METHYL-ACCEPTING CHEMOTAXIS PROTEIN II in water
95969
    1LIG      N    1   2.551   9.513   5.036 -0.5901 -0.7351  0.4339
    1LIG     H1    2   2.584   9.598   5.086 -1.9102 -0.0572  0.1812
    1LIG     H2    3   2.637   9.465   5.004  1.0269  0.0874  3.3041
    1LIG     H3    4   2.489   9.550   4.961  0.8413 -0.8623 -0.8411
    1LIG     CA    5   2.461   9.417   5.123 -0.6192  0.1464  0.2681
    1LIG     HA    6   2.523   9.357   5.189  0.2209 -0.0651 -0.6918
    1LIG     CB    7   2.369   9.504   5.218  0.3649  0.1708 -0.0651
    1LIG    HB1    8   2.279   9.533   5.160 -0.8169 -1.8439  0.7097
    1LIG    HB2    9   2.426   9.589   5.261 -0.2916 -0.2279  1.6711
    1LIG     CG   10   2.317   9.422   5.337 -0.4208  0.9163 -0.7459
    1LIG    OD1   11   2.193   9.436   5.363 -0.4582 -0.0989  0.2221
    1LIG    OD2   12   2.391   9.347   5.403  0.0579 -0.2684  0.4235
    1LIG      C   13   2.374   9.311   5.047 -0.1688 -0.3907 -0.8292
    1LIG    OT1   14   2.358   9.315   4.920  0.1521  0.4809  0.0032
    1LIG    OT2   15   2.320   9.218   5.112  0.5282  0.5112  0.2633
    2LIG      N   16   0.414   2.609   0.567 -0.0436  0.1752 -0.1677
    2LIG     H1   17   0.472   2.524   0.550  1.9848  1.4974 -0.0794
    2LIG     H2   18   0.325   2.582   0.614  0.3233 -1.6009 -0.4321
    2LIG     H3   19   0.381   2.646   0.477 -2.1102 -2.1021 -0.4018
    2LIG     CA   20   0.492   2.708   0.655 -0.0777 -0.0614 -0.1133
    2LIG     HA   21   0.441   2.803   0.648  0.8077  0.4476  0.2752
    2LIG     CB   22   0.489   2.647   0.799  0.3843  0.8452 -0.4827
    2LIG    HB1   23   0.552   2.556   0.807  0.2312  0.7775 -0.0275
    2LIG    HB2   24   0.385   2.616   0.821  0.7073  0.2643  0.2712
    2LIG     CG   25   0.524   2.749   0.907 -0.4194 -0.8083  0.1122
    2LIG    OD1   26   0.620   2.734   0.982  0.2740  0.1882 -0.9442
    2LIG    OD2   27   0.444   2.847   0.913  0.1617  0.3014 -0.5940
    2LIG      C   28   0.633   2.741   0.609 -0.1862  0.6506  1.1498
    2LIG    OT1   29   0.672   2.690   0.499 -0.3226  0.0274  0.1393
    2LIG    OT2   30   0.710   2.816   0.675  0.2710  0.3502  0.4790
    3LIG      N   31   4.102   1.312   1.497  0.1448  0.5537 -0.7932
    3LIG     H1   32   4.192   1.312   1.445 -1.1008  1.9435 -3.0599
    3LIG     H2   33   4.106   1.333   1.598  1.6915  0.4242 -0.8105
    3LIG     H3   34   4.073   1.212   1.497 -0.3493  0.6266  2.8990
    3LIG     CA   35   4.012   1.403   1.423 -0.0306 -0.6075 -0.2152
    3LIG     HA   36   4.063   1.498   1.429 -0.4009 -0.3865 -0.5773
    3LIG     CB   37   4.005   1.352   1.280  0.1048 -0.0132 -0.1742
    3LIG    HB1   38   3.915   1.287   1.266  0.0280 -0.0171  0.3332
    3LIG    HB2   39   4.100   1.301   1.255  0.7941  1.1631  0.0438
    3LIG     CG   40   3.983   1.475   1.196  0.1999 -1.1975  0.9008
    3LIG    OD1   41   3.913   1.464   1.095 -0.1325 -0.2897 -0.0055
    3LIG    OD2   42   4.053   1.576   1.212  0.3131 -0.1749  0.1754
    3LIG      C   43   3.877   1.422   1.487  0.3220  0.5994 -0.2807
    3LIG    OT1   44   3.842   1.355   1.588 -0.5210  0.0348 -0.5031
    3LIG    OT2   45   3.794   1.503   1.434  0.4144 -0.1150  0.0670
    4LIG      N   46   0.840   8.965   1.280 -0.3252  0.3921  0.2054
    4LIG     H1   47   0.908   8.923   1.347 -3.5217 -1.2890  2.5302
    4LIG     H2   48   0.757   8.904   1.264 -1.8252  2.5473 -0.4472
    4LIG     H3   49   0.876   8.989   1.185 -1.6244 -0.0814 -0.4252
    4LIG     CA   50   0.788   9.093   1.330  0.8322 -0.2472 -0.3444
    4LIG     HA   51   0.691   9.114   1.288  0.7865  0.4117  0.0730
    4LIG     CB   52   0.777   9.095   1.481 -0.0880  0.1557 -0.5663
    4LIG    HB1   53   0.876   9.117   1.526 -1.2994  0.5297  2.0371
    4LIG    HB2   54   0.746   8.994   1.516  1.3673 -0.0606  0.1217
    4LIG     CG   55   0.676   9.196   1.542  0.1861  0.9951 -0.1365
    4LIG    OD1   56   0.697   9.240   1.656 -0.1019  0.1154 -0.7459
    4LIG    OD2   57   0.565   9.205   1.483 -0.4853  0.4285 -0.0917
    4LIG      C   58   0.877   9.211   1.278 -0.3119 -0.6077 -0.2436
    4LIG    OT1   59   0.975   9.190   1.203 -0.1208  0.4809  0.4889
    4LIG    OT2   60   0.849   9.326   1.318  0.2358  0.0053 -0.0647
    5LIG      N   61   8.941   3.343   0.554  0.1662 -0.1159  0.1281
    5LIG     H1   62   8.839   3.362   0.553 -0.1988 -1.9348  0.5003
    5LIG     H2   63   8.975   3.368   0.459  0.0625  0.5458  0.2640
    5LIG     H3   64   8.937   3.239   0.560  2.0525 -0.2685 -0.8902
    5LIG     CA   65   9.015   3.419   0.662  0.4888 -0.3450  0.6894
    5LIG     HA   66   8.985   3.520   0.641 -1.0372 -1.1539 -1.2345
    5LIG     CB   67   8.966   3.389   0.803 -0.7393 -0.1446  0.2654
    5LIG    HB1   68   9.010   3.292   0.833  1.4280  1.3265  2.0936
    5LIG    HB2   69   8.855   3.391   0.792 -0.8058 -0.5714  0.8516
    5LIG     CG   70   9.000   3.491   0.906 -0.2821  0.3082  0.2781
    5LIG    OD1   71   9.007   3.465   1.028 -0.1453  0.0514  0.5658
    5LIG    OD2   72   9.017   3.608   0.860 -0.5118  0.0398  0.0981
    5LIG      C   73   9.168   3.405   0.634  0.7497 -0.1076 -0.4800
    5LIG    OT1   74   9.218   3.362   0.524  0.2152 -0.1889 -0.1381
    5LIG    OT2   75   9.240   3.441   0.732  0.3341  0.1632 -0.0923
    6LIG      N   76   5.308   0.107   8.523  0.3849 -0.0157  0.3290
    6LIG     H1   77   5.235   0.100   8.450  2.2365 -0.5689 -1.4919
    6LIG     H2   78   5.269   0.124   8.618  1.4385 -0.1402  0.7883
    6LIG     H3   79   5.370   0.187   8.502 -0.1049  0.0654 -0.8249
    6LIG     CA   80   5.388  -0.016   8.517  0.0454 -0.0941  0.3291
    6LIG     HA   81   5.461   0.001   8.595 -1.3234  0.9187  1.4358
    6LIG     CB   82   5.292  -0.131   8.559  0.0504  0.7468  0.3979
    6LIG    HB1   83   5.229  -0.173   8.477  1.9503  2.0061 -1.7636
    6LIG    HB2   84   5.222  -0.093   8.637 -1.1697  0.4673 -0.5416
    6LIG     CG   85   5.374  -0.251   8.612  0.1122  0.0905 -0.3529
    6LIG    OD1   86   5.353  -0.369   8.574  0.1773  0.0024 -0.0124
    6LIG    OD2   87   5.468  -0.228   8.696 -0.2376  0.3597  0.3718
    6LIG      C   88   5.457  -0.041   8.388 -0.1668  0.0679  0.0143
    6LIG    OT1   89   5.442   0.029   8.285  0.2811  0.2896  0.2917
    6LIG    OT2   90   5.544  -0.131   8.389  0.1345 -0.6996  0.1236
    7LIG      N   91   2.323   7.017   5.046  0.3279 -0.5044 -0.0032
    7LIG     H1   92   2.248   6.956   5.008 -1.2895  0.8992  0.9034
    7LIG     H2   93   2.370   6.981   5.131  0.9621 -1.4987 -0.7603
    7LIG     H3   94   2.267   7.099   5.078 -0.3522 -0.8850 -0.2089
    7LIG     CA   95   2.416   7.056   4.931  0.4523  1.1855 -0.4533
    7LIG     HA   96   2.355   7.110   4.861 -0.2280  2.4955  1.1159
    7LIG     CB   97   2.512   7.159   4.983  0.8734  0.0302  0.1702
    7LIG    HB1   98   2.594   7.118   5.045  0.1030  1.1936  1.9935
    7LIG    HB2   99   2.454   7.236   5.037  1.3033  0.8193 -0.4893
    7LIG     CG  100   2.580   7.234   4.869 -0.8709 -0.4181 -0.4913
    7LIG    OD1  101   2.696   7.274   4.892  0.3856  0.2319 -0.3211
    7LIG    OD2  102   2.516   7.271   4.767  0.3659  0.4500 -0.5982
    7LIG      C  103   2.499   6.944   4.866 -0.4855  0.3946  0.2425
    7LIG    OT1  104   2.505   6.827   4.925  0.1276  0.4217 -0.0031
    7LIG    OT2  105   2.572   6.972   4.767  0.0631 -0.2249 -0.1618
    8LIG      N  106   8.477   2.381   5.166 -0.0151  0.1769  0.0272
    8LIG     H1  107   8.464   2.286   5.203  2.8466 -0.7016 -1.0566
    8LIG     H2  108   8.429   2.392   5.074  0.4903 -0.7795 -0.3545
    8LIG     H3  109   8.576   2.392   5.134 -0.0498  1.1902  0.2247
    8LIG     CA  110   8.438   2.493   5.254  0.7159 -0.4954 -0.1405
    8LIG     HA  111   8.441   2.587   5.200 -1.6523 -0.0637  0.4265
    8LIG     CB  112   8.290   2.460   5.296 -0.8043 -0.0338  0.8644
    8LIG    HB1  113   8.277   2.377   5.368 -0.8571 -0.5067  0.3057
    8LIG    HB2  114   8.240   2.439   5.199  0.1422  0.8742  0.1727
    8LIG     CG  115   8.222   2.580   5.356  0.2453  0.5762 -0.3744
    8LIG    OD1  116   8.131   2.569   5.450 -0.6345  0.2338 -0.8968
    8LIG    OD2  117   8.237   2.690   5.298 -0.6254  0.6760 -0.3666
    8LIG      C  118   8.514   2.509   5.388 -0.2015  0.2190 -0.2103
    8LIG    OT1  119   8.585   2.409   5.423  0.1963 -0.2692 -0.2897
    8LIG    OT2  120   8.500   2.607   5.465  0.0342 -0.1513 -0.2641
    9LIG      N  121   9.698   5.613   5.257 -0.0836  0.3690 -0.4616
    9LIG     H1  122   9.604   5.657   5.252  0.6925  2.0254 -1.0296
    9LIG     H2  123   9.733   5.645   5.350 -1.5494 -0.7774  0.5016
    9LIG     H3  124   9.753   5.641   5.174 -0.5162 -0.3548 -0.9910
    9LIG     CA  125   9.696   5.460   5.266 -0.4197 -0.5373 -0.2697
    9LIG     HA  126   9.594   5.431   5.285 -0.2730 -1.2135 -0.5333
    9LIG     CB  127   9.737   5.404   5.131 -0.0747 -0.7869  0.2220
    9LIG    HB1  128   9.847   5.413   5.121 -0.3001  0.5824 -1.2523
    9LIG    HB2  129   9.701   5.457   5.040  1.9972 -1.3646 -0.9741
    9LIG     CG  130   9.705   5.254   5.120 -0.0419  0.1220 -0.5731
    9LIG    OD1  131   9.803   5.176   5.104 -0.3268  0.0932 -0.2669
    9LIG    OD2  132   9.582   5.220   5.145  0.6422  0.1017  0.3073
    9LIG      C  133   9.793   5.422   5.385 -0.3407 -0.3751  0.2355
    9LIG    OT1  134   9.873   5.506   5.437 -0.2575  0.3574 -0.1218
    9LIG    OT2  135   9.771   5.310   5.433  0.5488  0.6793 -0.1220
   10LIG      N  136   0.423   3.378   4.609  0.1703 -0.0426 -0.2719
   10LIG     H1  137   0.479   3.419   4.686  2.1070  1.5780 -2.4829
   10LIG     H2  138   0.320   3.382   4.618  0.2318  1.8297 -0.1466
   10LIG     H3  139   0.451   3.279   4.621  2.6466  0.9648  2.7125
   10LIG     CA  140   0.460   3.436   4.481  0.5177  0.3533  0.0488
   10LIG     HA  141   0.432   3.540   4.493 -2.7406 -0.6999  1.9175
   10LIG     CB  142   0.615   3.410   4.466  0.0335  0.3394  0.1681
   10LIG    HB1  143   0.618   3.304   4.431 -1.5835 -0.2717  1.7731
   10LIG    HB2  144   0.670   3.401   4.562 -1.6733 -2.3119  0.9470
   10LIG     CG  145   0.690   3.492   4.372 -0.0079  0.0356  0.0916
   10LIG    OD1  146   0.766   3.441   4.285 -0.1403  0.4565 -0.0578
   10LIG    OD2  147   0.678   3.619   4.382 -0.3291  0.3906 -0.9041
   10LIG      C  148   0.387   3.380   4.360 -0.8558  0.3556  0.6230
   10LIG    OT1  149   0.309   3.281   4.370  0.0407  0.5651 -0.1824
   10LIG    OT2  150   0.413   3.432   4.248 -0.0179  0.3735  0.2608
   11LIG      N  151   9.114   2.023   5.250  0.1336 -0.0417  0.0315
   11LIG     H1  152   9.134   2.099   5.319  0.7460  2.5434 -2.8851
   11LIG     H2  153   9.012   2.018   5.228  0.4828 -2.3393 -1.2392
   11LIG     H3  154   9.150   1.931   5.283  2.2058  1.0852  1.0076
   11LIG     CA  155   9.187   2.061   5.121  0.1288  0.4955  0.3909
   11LIG     HA  156   9.283   2.101   5.154  0.8423  0.4101 -1.5338
   11LIG     CB  157   9.208   1.932   5.035 -0.3115  0.2375  0.0597
   11LIG    HB1  158   9.119   1.891   4.982  0.9612 -1.3890 -0.8615
   11LIG    HB2  159   9.251   1.852   5.099  0.1718 -0.0193 -0.5805
   11LIG     CG  160   9.313   1.959   4.930  0.5700  0.4206  0.0518
   11LIG    OD1  161   9.294   1.893   4.819  0.3592  0.0955  0.1697
   11LIG    OD2  162   9.416   2.028   4.944 -0.2795 -0.5771  0.1441
   11LIG      C  163   9.119   2.176   5.046  0.5290  0.5850  0.3608
   11LIG    OT1  164   9.010   2.219   5.096  0.0747 -0.0522 -0.4151
   11LIG    OT2  165   9.161   2.224   4.935 -0.1961  0.4162  0.3603
   12LIG      N  166   5.601   8.987   7.529  0.6451  0.0441  0.6273
   12LIG     H1  167   5.559   9.003   7.623 -1.0394 -0.4320 -0.0364
   12LIG     H2  168   5.551   8.910   7.482  1.7224 -1.9673  2.6644
   12LIG     H3  169   5.704   8.973   7.539  0.6153 -1.3366 -0.8917
   12LIG     CA  170   5.582   9.105   7.443  0.1456  0.2465 -0.6209
   12LIG     HA  171   5.475   9.107   7.433 -0.0241 -2.0802  0.2607
   12LIG     CB  172   5.656   9.223   7.510 -0.8588 -0.2664  0.3716
   12LIG    HB1  173   5.766   9.209   7.501 -0.4097  3.1013  0.2659
   12LIG    HB2  174   5.630   9.227   7.618 -0.3735  1.3220  0.4377
   12LIG     CG  175   5.618   9.353   7.438  0.1745 -0.6810 -0.4610
   12LIG    OD1  176   5.714   9.438   7.425  0.1909 -0.3634  0.1571
   12LIG    OD2  177   5.497   9.369   7.408 -0.1878  0.0496  0.6338
   12LIG      C  178   5.645   9.069   7.302 -0.5612 -0.6679 -0.0456
   12LIG    OT1  179   5.691   8.956   7.284 -0.0343  0.6548  0.0435
   12LIG    OT2  180   5.643   9.156   7.214 -0.0570  0.1582  0.2448
   13LIG      N  181   0.438   5.829   2.014  0.0249 -0.4212 -0.2372
   13LIG     H1  182   0.455   5.786   1.920 -1.1955  0.6281 -0.9559
   13LIG     H2  183   0.449   5.932   2.005 -0.9509 -0.3310 -0.4434
   13LIG     H3  184   0.507   5.792   2.083  0.4224  2.1026  0.7456
   13LIG     CA  185   0.301   5.786   2.064 -0.0376 -0.3611 -0.2346
   13LIG     HA  186   0.314   5.706   2.135  0.0847  0.1959  0.3744
   13LIG     CB  187   0.249   5.924   2.109  0.1728  0.9474  0.0604
   13LIG    HB1  188   0.217   5.978   2.017 -0.0471 -2.2001 -1.7969
   13LIG    HB2  189   0.318   5.990   2.166  0.7741  0.6855 -0.3508
   13LIG     CG  190   0.127   5.899   2.192  0.5221  0.8843 -0.0816
   13LIG    OD1  191   0.014   5.911   2.140  0.5611 -0.5289  0.1965
   13LIG    OD2  192   0.147   5.856   2.304 -0.4246  0.4084 -0.0960
   13LIG      C  193   0.211   5.715   1.954 -0.4177 -0.1572  0.1939
   13LIG    OT1  194   0.254   5.709   1.838 -0.4809 -0.1481  0.0532
   13LIG    OT2  195   0.107   5.656   1.983 -0.1925  0.0849 -0.0460
   14LIG      N  196   2.391   8.231   7.867  0.5712  0.0077 -0.1847
   14LIG     H1  197   2.367   8.193   7.961 -2.8508  2.1235 -0.1500
   14LIG     H2  198   2.301   8.238   7.817 -0.1730 -0.1656  1.1224
   14LIG     H3  199   2.465   8.174   7.821 -1.7104 -2.4196 -0.8941
   14LIG     CA  200   2.453   8.370   7.885 -0.0593 -0.2302 -0.3016
   14LIG     HA  201   2.384   8.420   7.951  0.7775  0.3188  0.1656
   14LIG     CB  202   2.594   8.341   7.958 -0.4826 -0.4114  0.2071
   14LIG    HB1  203   2.672   8.287   7.900  1.3254  0.8470  1.4360
   14LIG    HB2  204   2.576   8.297   8.058 -1.6552 -0.3106  0.0527
   14LIG     CG  205   2.647   8.474   7.993 -0.0418 -0.1502 -0.3519
   14LIG    OD1  206   2.768   8.508   7.971 -0.0403  0.0941 -0.2515
   14LIG    OD2  207   2.567   8.548   8.058  0.5190 -0.8067  0.0561
   14LIG      C  208   2.461   8.448   7.752  0.4834 -0.0072 -0.3829
   14LIG    OT1  209   2.465   8.387   7.646  0.1259 -0.4102 -0.3646
   14LIG    OT2  210   2.467   8.578   7.754 -0.5265  0.2520 -0.0692
   15LIG      N  211   9.222   0.620   2.068 -0.4205  0.2639 -0.8039
   15LIG     H1  212   9.319   0.587   2.084 -1.5572 -1.9424  1.9218
   15LIG     H2  213   9.169   0.621   2.158 -0.3750 -0.6269 -0.7610
   15LIG     H3  214   9.169   0.554   2.008  0.7985  1.4905 -3.2950
   15LIG     CA  215   9.233   0.751   2.002 -0.1086  0.1232 -0.0434
   15LIG     HA  216   9.262   0.821   2.078  0.6144 -0.8755  0.6186
   15LIG     CB  217   9.336   0.746   1.883  0.0321  0.3878  0.6157
   15LIG    HB1  218   9.279   0.701   1.799  0.5128 -0.4129  0.7210
   15LIG    HB2  219   9.427   0.688   1.909 -1.2131 -0.8925  2.2244
   15LIG     CG  220   9.379   0.887   1.839  0.4502 -0.1765  0.2682
   15LIG    OD1  221   9.402   0.906   1.718  0.3609 -0.2221  0.1503
   15LIG    OD2  222   9.399   0.970   1.931 -0.1843  0.2586 -0.0302
   15LIG      C  223   9.090   0.806   1.952 -0.3909 -0.5481 -0.7084
   15LIG    OT1  224   8.987   0.742   1.976 -0.1501  0.1639 -0.7714
   15LIG    OT2  225   9.074   0.911   1.881  0.3054  0.3660 -0.9136
   16LIG      N  226   7.771   3.505   0.121  0.5991  0.1604  0.2542
   16LIG     H1  227   7.756   3.599   0.163  0.8109 -0.3286  1.4279
   16LIG     H2  228   7.867   3.477   0.147  0.3695 -1.0484 -0.1635
   16LIG     H3  229   7.761   3.510   0.017 -0.1057  0.3497  0.3254
   16LIG     CA  230   7.675   3.398   0.167  0.2535  0.5758  0.0387
   16LIG     HA  231   7.685   3.400   0.274 -0.8886 -0.2725  0.1759
   16LIG     CB  232   7.547   3.444   0.097  0.5816  0.3520  0.1159
   16LIG    HB1  233   7.551   3.393  -0.001 -2.6160 -2.4866  1.3699
   16LIG    HB2  234   7.524   3.552   0.090 -1.0358 -0.0647 -1.4015
   16LIG     CG  235   7.430   3.387   0.181 -0.2334 -0.8343 -0.0542
   16LIG    OD1  236   7.325   3.349   0.123  0.6746 -0.0318  0.5213
   16LIG    OD2  237   7.441   3.387   0.303 -0.2355 -0.2428 -0.2015
   16LIG      C  238   7.717   3.246   0.122 -0.6929  0.3139  0.7545
   16LIG    OT1  239   7.835   3.233   0.083 -0.0893  0.2584 -0.3610
   16LIG    OT2  240   7.639   3.152   0.139  0.6008 -0.0723  0.1581
   17LIG      N  241   3.379   0.871   9.305  0.2297  0.0223  0.1233
   17LIG     H1  242   3.316   0.931   9.249 -0.5765  2.0084  3.0573
   17LIG     H2  243   3.322   0.825   9.379 -1.3513  1.3108 -0.2934
   17LIG     H3  244   3.455   0.936   9.337 -0.8588  1.5087 -0.2866
   17LIG     CA  245   3.449   0.775   9.209  0.1657 -0.6144 -0.7397
   17LIG     HA  246   3.496   0.833   9.131 -4.4700  3.4346 -0.7368
   17LIG     CB  247   3.543   0.686   9.304  0.3547  0.0200  0.5926
   17LIG    HB1  248   3.481   0.608   9.355  0.7489 -0.1819  0.7633
   17LIG    HB2  249   3.609   0.750   9.366 -0.1818  1.0167  0.1527
   17LIG     CG  250   3.645   0.610   9.216 -0.0050 -0.6036  0.4016
   17LIG    OD1  251   3.699   0.506   9.266  0.4286 -0.3254 -0.0144
   17LIG    OD2  252   3.689   0.662   9.115 -0.4481  0.0540 -0.0648
   17LIG      C  253   3.338   0.686   9.147  0.3660  0.1002  0.1596
   17LIG    OT1  254   3.219   0.709   9.174  0.1128 -0.0727 -0.0603
   17LIG    OT2  255   3.376   0.593   9.075  0.0784 -0.5888 -0.0969
   18LIG      N  256   2.572   0.680   0.322 -0.2358  0.3749  0.6797
   18LIG     H1  257   2.550   0.588   0.279  0.0032  0.5532  0.1724
   18LIG     H2  258   2.662   0.698   0.371  0.6460 -0.4446 -0.6132
   18LIG     H3  259   2.499   0.698   0.395 -1.6550 -1.3560 -0.2685
   18LIG     CA  260   2.545   0.806   0.232  0.2264 -0.1377  0.0902
   18LIG     HA  261   2.628   0.872   0.250 -0.4241  0.0757  2.3450
   18LIG     CB  262   2.544   0.755   0.091 -0.5624  0.1524 -0.2337
   18LIG    HB1  263   2.457   0.689   0.072  0.2932 -0.9352 -0.4075
   18LIG    HB2  264   2.635   0.692   0.073 -1.1413 -0.7930  0.1424
   18LIG     CG  265   2.541   0.869  -0.010 -0.6304 -0.1237 -0.5580
   18LIG    OD1  266   2.458   0.857  -0.101  0.0359  0.1199 -0.0193
   18LIG    OD2  267   2.632   0.954  -0.005 -0.0688 -0.1992 -0.4573
   18LIG      C  268   2.411   0.872   0.280  0.2967  0.7240 -0.0700
   18LIG    OT1  269   2.344   0.819   0.369  0.7066  0.1397 -0.0249
   18LIG    OT2  270   2.378   0.980   0.229 -0.4821  0.6305  0.7946
   19LIG      N  271   4.566   0.097   5.571  0.1369  0.0369 -0.8144
   19LIG     H1  272   4.536   0.055   5.481 -3.1373  0.2494  0.0988
   19LIG     H2  273   4.622   0.028   5.625  2.2285  2.4563  0.1598
   19LIG     H3  274   4.473   0.115   5.616  0.7833 -1.8421  1.3573
   19LIG     CA  275   4.633   0.225   5.540 -0.0663 -0.1473  0.3352
   19LIG     HA  276   4.739   0.209   5.553 -0.3716 -1.4245  1.4471
   19LIG     CB  277   4.602   0.274   5.396  0.4793 -0.0513 -0.0341
   19LIG    HB1  278   4.630   0.380   5.377  0.1319  0.3783  1.8040
   19LIG    HB2  279   4.492   0.280   5.390  0.2180 -1.4372  2.5045
   19LIG     CG  280   4.665   0.188   5.292 -0.0049  1.0485  0.3440
   19LIG    OD1  281   4.635   0.213   5.173  0.2141  0.6663  0.3826
   19LIG    OD2  282   4.749   0.103   5.329 -0.2335  0.2238  0.2334
   19LIG      C  283   4.602   0.349   5.629 -0.0873 -0.8205 -0.2690
   19LIG    OT1  284   4.514   0.335   5.719 -0.0972 -0.1772 -0.0287
   19LIG    OT2  285   4.672   0.453   5.616  0.3333  0.4263 -0.3336
   20LIG      N  286   7.906   9.165   4.413  0.1093  0.2254 -0.1487
   20LIG     H1  287   7.807   9.133   4.405 -0.1505  0.8818  0.4155
   20LIG     H2  288   7.936   9.177   4.314 -0.1872  0.1214 -0.2504
   20LIG     H3  289   7.964   9.090   4.455  0.1895 -1.3417 -2.9278
   20LIG     CA  290   7.935   9.284   4.492 -0.0506  0.1717 -0.3272
   20LIG     HA  291   8.042   9.292   4.485 -0.2557  1.8874 -2.0083
   20LIG     CB  292   7.859   9.393   4.420 -0.0237  0.2735  0.0604
   20LIG    HB1  293   7.750   9.386   4.438 -0.5138  0.5506 -2.6278
   20LIG    HB2  294   7.872   9.383   4.310 -2.3289 -2.5888 -0.0046
   20LIG     CG  295   7.913   9.524   4.468 -0.0304 -0.5684 -0.2231
   20LIG    OD1  296   7.829   9.618   4.483  0.1630  0.6532  0.1181
   20LIG    OD2  297   8.033   9.559   4.484 -0.9028  0.1847 -0.2570
   20LIG      C  298   7.896   9.271   4.640 -0.9484  1.3022  0.4992
   20LIG    OT1  299   7.834   9.168   4.671  0.3835  0.5246  0.5208
   20LIG    OT2  300   7.927   9.360   4.728  0.9485  0.2596 -0.1486
   21LIG      N  301   8.575   7.291   0.628  0.3374  0.3895 -0.2046
   21LIG     H1  302   8.659   7.272   0.686  0.8780 -1.0363 -1.4290
   21LIG     H2  303   8.529   7.381   0.654  0.3175  0.6231 -1.0367
   21LIG     H3  304   8.502   7.218   0.637  0.4794  0.0486 -1.7795
   21LIG     CA  305   8.634   7.315   0.486 -0.1021  0.3342  0.2948
   21LIG     HA  306   8.649   7.421   0.476  1.6191 -0.0324 -1.5233
   21LIG     CB  307   8.767   7.243   0.488  1.1453 -0.0752 -0.5538
   21LIG    HB1  308   8.757   7.132   0.488  1.7881 -0.1587  1.6719
   21LIG    HB2  309   8.830   7.273   0.574  1.8120 -1.8049 -0.4293
   21LIG     CG  310   8.860   7.275   0.371 -0.1301  0.2301 -0.4939
   21LIG    OD1  311   8.915   7.188   0.307 -0.3863 -0.2008 -0.4750
   21LIG    OD2  312   8.891   7.397   0.358 -0.1086 -0.0133  0.1631
   21LIG      C  313   8.547   7.261   0.370  0.2193  0.2761 -0.1496
   21LIG    OT1  314   8.444   7.195   0.384  0.5758  0.5325 -0.1543
   21LIG    OT2  315   8.580   7.297   0.255  0.3112  0.2273  0.8961
   22LIG      N  316   2.688   4.711   9.965  0.1062  0.2882 -0.4997
   22LIG     H1  317   2.760   4.640   9.988  0.0700  0.3901 -0.0720
   22LIG     H2  318   2.661   4.728   9.866 -0.7591 -1.4446 -0.5775
   22LIG     H3  319   2.728   4.799  10.004  1.1930 -1.2181  1.9241
   22LIG     CA  320   2.560   4.678  10.039 -0.4303 -0.1493  0.3761
   22LIG     HA  321   2.580   4.694  10.144 -1.5676  1.4884  0.3622
   22LIG     CB  322   2.447   4.775   9.996  0.1399  0.0800 -0.1579
   22LIG    HB1  323   2.383   4.746   9.910  0.7434 -0.7580 -0.3280
   22LIG    HB2  324   2.497   4.873   9.983 -1.7672  1.0145 -0.6386
   22LIG     CG  325   2.348   4.797  10.108  0.7902 -0.2468  0.2699
   22LIG    OD1  326   2.224   4.787  10.082  0.4072  0.1308  0.1698
   22LIG    OD2  327   2.391   4.848  10.217 -0.2230 -0.3825 -0.4411
   22LIG      C  328   2.517   4.532  10.035 -0.2356  0.4695  0.9817
   22LIG    OT1  329   2.566   4.449   9.952  0.3241 -0.2111  0.1794
   22LIG    OT2  330   2.417   4.497  10.107 -0.3619 -0.5086 -0.0954
   23LIG      N  331   2.245   1.985   8.672 -0.3924 -0.2146  0.3318
   23LIG     H1  332   2.294   1.958   8.585 -1.3590  0.2918 -0.3716
   23LIG     H2  333   2.207   2.081   8.660  1.6111  0.7417  1.3049
   23LIG     H3  334   2.305   1.986   8.758 -3.6956 -2.4001  2.7672
   23LIG     CA  335   2.127   1.900   8.692  0.3929  0.2922  0.0999
   23LIG     HA  336   2.133   1.836   8.605  2.3257 -1.3797  1.4187
   23LIG     CB  337   2.152   1.830   8.829 -0.1077 -0.0626 -0.5913
   23LIG    HB1  338   2.131   1.900   8.914 -1.4666 -0.3452 -0.6858
   23LIG    HB2  339   2.258   1.795   8.835  0.1508  0.7099 -0.5940
   23LIG     CG  340   2.061   1.717   8.848 -0.0185 -0.6359 -0.0491
   23LIG    OD1  341   1.992   1.704   8.952  0.2191 -0.7144 -1.0456
   23LIG    OD2  342   2.045   1.642   8.752 -0.8682 -0.3690  0.6179
   23LIG      C  343   1.992   1.979   8.680  0.4774 -0.3864 -0.1490
   23LIG    OT1  344   1.996   2.100   8.646 -0.1760  0.1834 -0.0945
   23LIG    OT2  345   1.887   1.914   8.698  0.0156 -0.5591 -0.4588
   24LIG      N  346   0.487   2.434   2.410 -0.1927 -0.3280  0.7449
   24LIG     H1  347   0.455   2.515   2.468  1.8062  1.5730 -0.7128
   24LIG     H2  348   0.463   2.457   2.312 -0.4348 -0.1424  0.8474
   24LIG     H3  349   0.439   2.345   2.435  1.9746 -1.8403 -0.2936
   24LIG     CA  350   0.640   2.428   2.416  0.5708  0.0818 -0.2206
   24LIG     HA  351   0.662   2.324   2.399 -0.1514 -0.3830  1.5245
   24LIG     CB  352   0.689   2.523   2.300 -0.2446 -0.5179  0.2104
   24LIG    HB1  353   0.653   2.626   2.317  0.0761 -0.3107 -0.3434
   24LIG    HB2  354   0.651   2.480   2.205 -0.5904  1.9353 -0.7807
   24LIG     CG  355   0.839   2.517   2.291 -0.0382  0.8296  0.3644
   24LIG    OD1  356   0.895   2.633   2.294  0.3342  0.1492 -0.3612
   24LIG    OD2  357   0.906   2.413   2.268  0.4210 -0.1743  0.0186
   24LIG      C  358   0.688   2.471   2.561 -0.5422  0.0776 -0.7095
   24LIG    OT1  359   0.612   2.529   2.644 -0.7635  0.2951 -0.1725
   24LIG    OT2  360   0.806   2.440   2.587  0.1637 -0.1356 -0.2067
   25LIG      N  361   0.804   3.466   8.516 -0.7848  0.0604  0.8077
   25LIG     H1  362   0.806   3.464   8.412  1.3197 -0.2964  0.8333
   25LIG     H2  363   0.729   3.405   8.555  0.8508 -0.6004  3.0408
   25LIG     H3  364   0.809   3.562   8.554  1.0178  1.0642 -1.8238
   25LIG     CA  365   0.936   3.417   8.565 -0.3061  0.1734  0.2051
   25LIG     HA  366   0.936   3.312   8.541  1.1748 -0.4922  2.8460
   25LIG     CB  367   1.058   3.493   8.493 -0.2851 -0.4094 -0.3363
   25LIG    HB1  368   1.052   3.599   8.524 -3.3579 -1.2076  1.9719
   25LIG    HB2  369   1.047   3.490   8.382  0.7157 -0.3338 -0.4466
   25LIG     CG  370   1.192   3.428   8.518  0.2325  0.0810  0.3256
   25LIG    OD1  371   1.295   3.503   8.536 -0.1609 -0.0493  0.1317
   25LIG    OD2  372   1.202   3.306   8.505  0.2332  0.7016 -0.0333
   25LIG      C  373   0.949   3.433   8.722 -0.5700 -0.6936  0.1713
   25LIG    OT1  374   0.896   3.531   8.774  0.0885  0.5986 -0.0266
   25LIG    OT2  375   1.033   3.360   8.774 -0.1743 -0.0559 -0.2462
   26LIG      N  376   0.667   7.314   0.920 -0.6037 -0.9414  0.3684
   26LIG     H1  377   0.566   7.330   0.939 -0.7394 -0.3866 -0.8176
   26LIG     H2  378   0.675   7.247   0.841  2.2558  1.6323 -1.5937
   26LIG     H3  379   0.718   7.282   1.005 -1.2235  1.2688  1.6054
   26LIG     CA  380   0.732   7.436   0.871  0.5254  0.1029 -0.0064
   26LIG     HA  381   0.831   7.401   0.848  0.3009 -1.4875  1.3442
   26LIG     CB  382   0.657   7.495   0.748 -0.1853 -0.4917  0.0667
   26LIG    HB1  383   0.571   7.558   0.780 -1.3988 -1.1963 -1.6542
   26LIG    HB2  384   0.604   7.416   0.689 -1.8935  0.7185 -0.0532
   26LIG     CG  385   0.755   7.569   0.653 -0.5004 -0.3250 -0.2435
   26LIG    OD1  386   0.727   7.681   0.604  0.1948  0.5484 -0.0653
   26LIG    OD2  387   0.857   7.509   0.618 -0.2228 -0.8431  0.1247
   26LIG      C  388   0.751   7.551   0.984 -0.3043  0.3361  0.2604
   26LIG    OT1  389   0.682   7.541   1.087 -0.0042 -0.6887 -0.1548
   26LIG    OT2  390   0.837   7.635   0.962  0.3058  0.7219 -0.0625
   27LIG      N  391   4.660   0.050   4.937  0.1149  0.2073 -0.5157
   27LIG     H1  392   4.668   0.110   5.022 -0.1403 -0.6670  0.1339
   27LIG     H2  393   4.650  -0.050   4.965  1.8906 -0.0144 -0.6364
   27LIG     H3  394   4.751   0.063   4.889 -0.0180  0.6825 -0.6437
   27LIG     CA  395   4.545   0.085   4.848 -0.4852  0.3364  0.0741
   27LIG     HA  396   4.506   0.186   4.858 -1.8692 -0.0186 -1.4107
   27LIG     CB  397   4.604   0.086   4.705  0.0102 -0.5093  0.0907
   27LIG    HB1  398   4.622  -0.018   4.670 -0.1028 -0.5988  0.3076
   27LIG    HB2  399   4.691   0.155   4.701 -0.6340  0.2447 -2.0809
   27LIG     CG  400   4.510   0.163   4.609 -0.1656  0.3101 -0.0333
   27LIG    OD1  401   4.514   0.126   4.492  0.0244  0.3911  0.6174
   27LIG    OD2  402   4.443   0.259   4.645 -0.0412 -0.6864 -0.2144
   27LIG      C  403   4.422  -0.010   4.861 -0.1949  1.0287 -0.0205
   27LIG    OT1  404   4.429  -0.108   4.943 -0.5217 -0.2032  0.1043
   27LIG    OT2  405   4.322   0.013   4.802  0.1513  0.4557 -0.4226
   28LIG      N  406   9.535   8.999   3.235  0.4879  0.2517 -0.3888
   28LIG     H1  407   9.628   8.960   3.258  1.1893  1.2772 -1.4243
   28LIG     H2  408   9.463   8.932   3.270  0.8595  0.2356  0.3525
   28LIG     H3  409   9.528   8.995   3.131  1.3473  0.3856 -0.4523
   28LIG     CA  410   9.516   9.129   3.305  0.0802  0.3671  0.5222
   28LIG     HA  411   9.604   9.190   3.290 -0.3764  0.9135  0.0671
   28LIG     CB  412   9.387   9.198   3.250 -0.3565  0.4083 -0.0811
   28LIG    HB1  413   9.296   9.142   3.280  0.7919 -0.4446  1.9289
   28LIG    HB2  414   9.402   9.209   3.141  0.9954 -2.2452 -0.2031
   28LIG     CG  415   9.376   9.342   3.292  0.0812 -0.1622 -0.1719
   28LIG    OD1  416   9.266   9.382   3.331 -0.6985 -0.0093  0.4130
   28LIG    OD2  417   9.473   9.417   3.267  0.2520 -0.4785 -0.0229
   28LIG      C  418   9.500   9.104   3.463 -0.4531 -0.5791 -0.4365
   28LIG    OT1  419   9.512   8.985   3.505 -0.6627 -0.0763  0.1488
   28LIG    OT2  420   9.480   9.202   3.537 -0.0616 -0.5836  0.2991
   29LIG      N  421   3.452   1.451   1.904  0.0463  0.1082 -0.6192
   29LIG     H1  422   3.536   1.431   1.845  0.5281 -0.3104  0.2081
   29LIG     H2  423   3.396   1.521   1.851 -1.6930  0.8689  2.1557
   29LIG     H3  424   3.488   1.490   1.993  2.4281 -0.1295 -1.4314
   29LIG     CA  425   3.374   1.328   1.944 -1.0701 -0.3075  0.6171
   29LIG     HA  426   3.295   1.369   2.005  0.5046 -0.4482  2.8102
   29LIG     CB  427   3.335   1.263   1.811 -0.4292 -0.1654  0.0574
   29LIG    HB1  428   3.419   1.225   1.749  0.0644 -2.3823  2.0240
   29LIG    HB2  429   3.278   1.343   1.759 -0.2054  1.3721  2.1177
   29LIG     CG  430   3.235   1.149   1.824  0.0270  0.0894  0.0994
   29LIG    OD1  431   3.255   1.046   1.761 -0.1845 -0.8549 -0.3084
   29LIG    OD2  432   3.125   1.173   1.883 -0.3037  0.1503 -0.5058
   29LIG      C  433   3.459   1.223   2.028 -0.3624 -0.5593  0.4126
   29LIG    OT1  434   3.572   1.259   2.059 -0.3305  0.3121 -0.6735
   29LIG    OT2  435   3.417   1.118   2.080  0.1203  0.4200  0.3939
   30LIG      N  436   1.298   9.361   4.756 -0.1152 -0.0197 -0.6059
   30LIG     H1  437   1.302   9.358   4.652 -0.2140  1.3287 -0.6519
   30LIG     H2  438   1.281   9.263   4.785  0.5909 -0.2082 -0.8389
   30LIG     H3  439   1.213   9.410   4.791  0.2094 -0.5838  1.0109
   30LIG     CA  440   1.425   9.407   4.820 -0.2234 -0.6170  0.3517
   30LIG     HA  441   1.423   9.375   4.924  3.2454 -3.6410 -0.3983
   30LIG     CB  442   1.540   9.332   4.741 -0.4963 -0.3336  0.1067
   30LIG    HB1  443   1.562   9.390   4.648  1.3617 -1.6665 -0.2979
   30LIG    HB2  444   1.525   9.229   4.704  0.8343 -0.0535 -1.2767
   30LIG     CG  445   1.667   9.323   4.816  0.4287 -0.7169 -0.6237
   30LIG    OD1  446   1.772   9.357   4.763  0.5078  0.0517 -0.3678
   30LIG    OD2  447   1.658   9.278   4.931 -0.3607  0.2712 -0.4931
   30LIG      C  448   1.444   9.562   4.812 -0.1316  0.0872 -0.0468
   30LIG    OT1  449   1.356   9.637   4.765 -0.6032 -0.1494  0.5834
   30LIG    OT2  450   1.552   9.608   4.871 -0.5004 -0.2708  0.7017
   31LIG      N  451   6.365   9.460   6.986 -0.3542 -0.0934 -0.1325
   31LIG     H1  452   6.300   9.492   6.911 -0.6867 -1.0140 -0.2387
   31LIG     H2  453   6.458   9.486   6.948 -0.5960  1.0560  0.0142
   31LIG     H3  454   6.358   9.357   6.989  0.6681 -0.1364  1.3875
   31LIG     CA  455   6.354   9.534   7.112 -0.1539  0.0792 -0.1987
   31LIG     HA  456   6.370   9.638   7.089 -0.5747 -0.1716 -1.6391
   31LIG     CB  457   6.208   9.493   7.167 -0.1265 -0.1452 -0.0678
   31LIG    HB1  458   6.197   9.387   7.199 -1.3697 -0.2304 -0.7447
   31LIG    HB2  459   6.130   9.507   7.088  3.3053  0.8864 -3.4206
   31LIG     CG  460   6.151   9.578   7.281 -0.1141 -1.0302  0.9775
   31LIG    OD1  461   6.084   9.532   7.374 -0.1123 -0.1399  0.7252
   31LIG    OD2  462   6.171   9.703   7.271  0.5707 -0.4945  0.2501
   31LIG      C  463   6.460   9.497   7.221 -0.2693 -0.2564 -0.1176
   31LIG    OT1  464   6.539   9.408   7.189  0.6667 -0.0792 -0.3440
   31LIG    OT2  465   6.457   9.550   7.336 -0.2047 -0.2425 -0.1951
   32LIG      N  466   4.213   1.587   5.211 -0.0890  0.3306  0.1980
   32LIG     H1  467   4.234   1.569   5.111 -0.7300 -2.0009  0.4562
   32LIG     H2  468   4.279   1.661   5.241  0.0834  0.2597 -0.0035
   32LIG     H3  469   4.228   1.493   5.254  0.5485  0.3420  0.0133
   32LIG     CA  470   4.072   1.647   5.219 -0.4064  0.5228  0.2985
   32LIG     HA  471   4.009   1.573   5.170  0.1751  0.9134 -1.0710
   32LIG     CB  472   4.035   1.685   5.370  0.0993  0.3279 -0.8536
   32LIG    HB1  473   4.081   1.781   5.401  4.4440 -1.2619 -1.8978
   32LIG    HB2  474   4.082   1.611   5.438  2.3730  0.5503 -2.1231
   32LIG     CG  475   3.889   1.680   5.394  0.6074  0.1605  0.1568
   32LIG    OD1  476   3.836   1.777   5.461 -0.5851  0.1665  0.8620
   32LIG    OD2  477   3.826   1.583   5.352  0.5171 -0.0620 -0.6325
   32LIG      C  478   4.053   1.777   5.125 -0.1799  0.4024  0.1554
   32LIG    OT1  479   4.156   1.829   5.079 -0.2248 -0.3659 -0.1002
   32LIG    OT2  480   3.938   1.816   5.109 -0.2725 -0.1637  0.0145
   33LIG      N  481   8.438   3.886   6.237 -0.0828 -0.4520  0.2063
   33LIG     H1  482   8.349   3.842   6.270 -1.0634 -0.9300 -2.8739
   33LIG     H2  483   8.515   3.818   6.222  1.2626  0.7081  1.7647
   33LIG     H3  484   8.482   3.951   6.304  2.0728 -0.6003 -1.0380
   33LIG     CA  485   8.401   3.965   6.114 -0.6862 -0.3643  0.7533
   33LIG     HA  486   8.492   3.986   6.059 -0.4075  1.3971  1.8307
   33LIG     CB  487   8.312   3.864   6.025 -0.3014 -0.6004 -0.7140
   33LIG    HB1  488   8.206   3.850   6.056 -0.8798  0.8794 -1.9283
   33LIG    HB2  489   8.372   3.770   6.028 -0.5936 -0.7667  0.1222
   33LIG     CG  490   8.311   3.916   5.878 -0.2857  0.5866  0.3220
   33LIG    OD1  491   8.211   3.951   5.816 -0.0895 -0.3073  0.3960
   33LIG    OD2  492   8.425   3.929   5.830  0.3831  0.0406  0.6133
   33LIG      C  493   8.337   4.099   6.132  0.6864 -0.2447  0.0443
   33LIG    OT1  494   8.325   4.137   6.251  0.1523  0.0987  0.1161
   33LIG    OT2  495   8.311   4.168   6.030 -0.2946  0.1460  0.3166
   34LIG      N  496   9.769   5.690   2.671  0.6312  0.2575  0.1428
   34LIG     H1  497   9.778   5.587   2.688 -0.1346  0.6034  2.8448
   34LIG     H2  498   9.738   5.704   2.572  1.4877 -0.1518 -0.1944
   34LIG     H3  499   9.846   5.755   2.695  0.3144  1.4493 -1.9464
   34LIG     CA  500   9.647   5.714   2.748  0.4361 -0.7123 -0.2945
   34LIG     HA  501   9.593   5.622   2.734  1.4528 -0.7962 -4.0749
   34LIG     CB  502   9.689   5.735   2.903  0.2075 -0.0079  0.5258
   34LIG    HB1  503   9.739   5.831   2.931  1.7069 -0.5667 -0.1895
   34LIG    HB2  504   9.756   5.651   2.932  0.2233  0.6095  2.3545
   34LIG     CG  505   9.570   5.731   2.993  0.5031 -0.0236  0.3675
   34LIG    OD1  506   9.547   5.823   3.081 -0.4348 -0.3834  0.6907
   34LIG    OD2  507   9.489   5.638   2.973 -0.6418 -0.4756  0.6021
   34LIG      C  508   9.572   5.838   2.679 -0.3234  0.2530  0.8453
   34LIG    OT1  509   9.640   5.927   2.613 -0.1894 -0.2865  0.2779
   34LIG    OT2  510   9.450   5.851   2.703 -0.3705  0.5327 -0.6874
   35LIG      N  511   0.292   1.186   6.041  0.0200  0.0897  0.6384
   35LIG     H1  512   0.253   1.185   5.944 -2.0853 -1.2039  1.4704
   35LIG     H2  513   0.314   1.090   6.075 -0.8993 -0.2309  0.3402
   35LIG     H3  514   0.221   1.222   6.108  1.1134 -1.2072  2.5223
   35LIG     CA  515   0.425   1.257   6.051  0.2108  0.2804 -0.0123
   35LIG     HA  516   0.412   1.352   6.002  1.6906 -0.7455 -2.5214
   35LIG     CB  517   0.447   1.293   6.202  0.1840 -0.6880  0.6665
   35LIG    HB1  518   0.495   1.207   6.254  3.4606 -0.3455 -1.6636
   35LIG    HB2  519   0.348   1.317   6.248  0.4337 -0.8418  1.2911
   35LIG     CG  520   0.534   1.424   6.208 -0.3148 -0.3578  0.0830
   35LIG    OD1  521   0.637   1.423   6.281  0.1886  0.0330 -0.3603
   35LIG    OD2  522   0.506   1.523   6.137  0.6101 -0.0244 -0.2114
   35LIG      C  523   0.547   1.176   6.000  1.2384 -0.1904 -1.1129
   35LIG    OT1  524   0.553   1.056   6.010  0.4916 -0.0196 -0.5582
   35LIG    OT2  525   0.629   1.248   5.946 -0.1500 -0.1352 -0.3984
   36LIG      N  526   8.975   3.100   7.623  0.3773  0.0825 -0.4469
   36LIG     H1  527   9.032   3.149   7.552 -0.4255  1.8693  0.1252
   36LIG     H2  528   8.877   3.078   7.596 -0.6427  1.7424  1.7534
   36LIG     H3  529   8.964   3.154   7.711  0.4089 -2.3912  1.1289
   36LIG     CA  530   9.032   2.980   7.677  0.7192 -0.1565 -0.0832
   36LIG     HA  531   9.138   2.982   7.659  0.4262 -0.7489 -1.9946
   36LIG     CB  532   9.004   2.982   7.836  0.8416 -0.2360 -0.2067
   36LIG    HB1  533   8.895   2.979   7.853  0.6587 -0.5763 -1.4137
   36LIG    HB2  534   9.037   3.084   7.868  0.4190 -0.1047 -0.1902
   36LIG     CG  535   9.098   2.886   7.902 -0.3270 -0.1963  0.2942
   36LIG    OD1  536   9.063   2.797   7.984 -0.9645 -0.3908  0.5908
   36LIG    OD2  537   9.218   2.911   7.872 -0.2359 -0.2937  0.1846
   36LIG      C  538   8.963   2.854   7.622 -0.9180  0.1137  0.1452
   36LIG    OT1  539   8.866   2.864   7.543  0.8522 -0.4938  0.2076
   36LIG    OT2  540   9.016   2.743   7.644  1.0005  0.0907 -0.7054
   37LIG      N  541   6.699   7.945   4.579  0.0010  0.0198  0.5173
   37LIG     H1  542   6.608   7.915   4.539  0.6480  0.2994 -1.2167
   37LIG     H2  543   6.747   7.985   4.496 -1.9444  0.1305 -0.5838
   37LIG     H3  544   6.748   7.861   4.616 -1.1254 -0.0772  1.8395
   37LIG     CA  545   6.683   8.045   4.687  0.9780 -0.0210 -0.2413
   37LIG     HA  546   6.778   8.076   4.728  2.2048 -1.5594 -1.8734
   37LIG     CB  547   6.630   8.174   4.616  0.2983  0.4676  0.6188
   37LIG    HB1  548   6.525   8.156   4.582 -0.1967  0.2657  2.2047
   37LIG    HB2  549   6.696   8.189   4.528 -2.5037 -0.6754 -1.7481
   37LIG     CG  550   6.636   8.290   4.703  0.3997 -0.0846 -0.3681
   37LIG    OD1  551   6.531   8.361   4.713 -0.2715  0.6551 -0.6099
   37LIG    OD2  552   6.751   8.316   4.739  0.0488 -0.2300  0.1803
   37LIG      C  553   6.592   7.997   4.810 -0.6268 -0.5808  0.4792
   37LIG    OT1  554   6.522   7.899   4.777  0.0491  0.0957  0.1951
   37LIG    OT2  555   6.594   8.064   4.916 -0.2710 -0.0424 -0.7959
   38LIG      N  556   7.452   1.852   6.647 -0.3845 -0.0990  0.2515
   38LIG     H1  557   7.485   1.765   6.598  0.7627  1.1916 -1.3397
   38LIG     H2  558   7.507   1.928   6.602 -2.8069  0.9032 -1.1360
   38LIG     H3  559   7.470   1.850   6.749  1.3203  0.7180 -0.0137
   38LIG     CA  560   7.312   1.875   6.606 -0.3262  1.1576  0.0429
   38LIG     HA  561   7.303   1.983   6.605  1.2164  1.3123  0.3573
   38LIG     CB  562   7.286   1.828   6.456  0.3149  1.0043 -0.5740
   38LIG    HB1  563   7.266   1.719   6.459 -0.4370  1.1528  3.1774
   38LIG    HB2  564   7.366   1.860   6.387  0.0065  1.7668 -0.5860
   38LIG     CG  565   7.160   1.898   6.389  0.1538  0.5278 -0.7264
   38LIG    OD1  566   7.079   1.829   6.329  0.2174 -0.2051  0.4268
   38LIG    OD2  567   7.154   2.026   6.389  0.3488 -0.0595  0.2093
   38LIG      C  568   7.212   1.808   6.703 -0.2073  0.7654 -0.1349
   38LIG    OT1  569   7.240   1.726   6.795 -0.7552 -0.3899 -0.2899
   38LIG    OT2  570   7.090   1.834   6.688  0.6388  0.2432 -0.0978
   39LIG      N  571   8.808   7.794   4.137  0.0045  0.5498 -0.5930
   39LIG     H1  572   8.739   7.810   4.061 -1.3444  0.8653  0.6940
   39LIG     H2  573   8.899   7.764   4.097  0.7799  2.5151 -0.3558
   39LIG     H3  574   8.771   7.719   4.199 -3.3816  0.5894 -2.4136
   39LIG     CA  575   8.813   7.923   4.222  0.3717 -0.1686 -0.8139
   39LIG     HA  576   8.709   7.954   4.225  0.5809  0.8680 -3.3109
   39LIG     CB  577   8.860   7.892   4.374  0.5130  0.4773 -0.3842
   39LIG    HB1  578   8.969   7.886   4.393  0.9202 -2.5640 -3.1891
   39LIG    HB2  579   8.818   7.793   4.403  1.5766  0.8398  2.6112
   39LIG     CG  580   8.801   7.992   4.465  0.2939  0.0118 -0.2862
   39LIG    OD1  581   8.877   8.055   4.539 -0.4454 -0.0578  0.0958
   39LIG    OD2  582   8.677   8.018   4.464  0.1943 -0.4209  0.2148
   39LIG      C  583   8.902   8.033   4.159  0.1421 -0.2960  0.2346
   39LIG    OT1  584   8.966   8.014   4.055  0.5234 -0.0026 -0.3130
   39LIG    OT2  585   8.914   8.147   4.216 -0.6713 -0.0305  0.7040
   40LIG      N  586   9.086   5.955   0.992 -1.0230 -0.8573  0.3092
   40LIG     H1  587   9.102   5.936   1.093  0.7958  0.9596  0.4012
   40LIG     H2  588   9.145   6.038   0.974  0.8863 -1.9209  1.4526
   40LIG     H3  589   8.985   5.965   0.972 -0.9827 -0.5951  0.2403
   40LIG     CA  590   9.145   5.838   0.924 -0.2526  0.3385  0.0324
   40LIG     HA  591   9.099   5.751   0.968  0.9111  0.4590  1.5588
   40LIG     CB  592   9.114   5.845   0.771 -1.1358 -0.3246 -0.2667
   40LIG    HB1  593   9.192   5.896   0.711  0.8819 -0.8581  1.7951
   40LIG    HB2  594   9.008   5.873   0.753 -0.6445 -0.0635 -2.9024
   40LIG     CG  595   9.112   5.699   0.724  0.0261  0.2944  0.0763
   40LIG    OD1  596   9.157   5.678   0.608  0.0143 -0.2191  0.3971
   40LIG    OD2  597   9.057   5.605   0.791 -0.8711  0.2004 -0.2975
   40LIG      C  598   9.294   5.802   0.960  0.0456  1.0239  0.2523
   40LIG    OT1  599   9.351   5.874   1.034  0.1929  0.0833 -0.1950
   40LIG    OT2  600   9.339   5.691   0.925 -0.5487  0.0821 -1.1504
   41LIG      N  601   8.997   4.435   7.384  0.1010  0.3560  0.5097
   41LIG     H1  602   9.003   4.394   7.479 -1.9475  0.5844  0.7634
   41LIG     H2  603   9.079   4.400   7.329 -0.1152  0.7636 -0.0827
   41LIG     H3  604   8.995   4.538   7.399  0.0930  0.6166 -1.1586
   41LIG     CA  605   8.870   4.398   7.329  0.3045  0.6694  0.0920
   41LIG     HA  606   8.852   4.456   7.239  1.6362 -0.2382 -0.7725
   41LIG     CB  607   8.897   4.250   7.280  0.3221  0.9188 -1.2569
   41LIG    HB1  608   8.913   4.184   7.369  1.1990  3.3472  0.4363
   41LIG    HB2  609   8.987   4.239   7.217  1.2966 -1.1121  0.4013
   41LIG     CG  610   8.773   4.203   7.194 -0.7473  0.7184  0.6162
   41LIG    OD1  611   8.730   4.092   7.231  0.4411 -0.1081 -0.7703
   41LIG    OD2  612   8.741   4.258   7.089 -0.1043 -0.2050  0.3124
   41LIG      C  613   8.749   4.427   7.424  0.3664  0.4055 -0.4918
   41LIG    OT1  614   8.774   4.470   7.540 -0.5608 -0.4529  0.2201
   41LIG    OT2  615   8.626   4.404   7.389 -0.1261  0.0986  0.1738
   42LIG      N  616   9.536   4.205   2.987  0.2750  0.7268 -0.3903
   42LIG     H1  617   9.490   4.174   3.075 -1.7574  1.4788 -1.1488
   42LIG     H2  618   9.594   4.285   3.019  1.1099  0.3696 -1.0008
   42LIG     H3  619   9.468   4.246   2.920  0.2234  1.9359  0.3815
   42LIG     CA  620   9.622   4.102   2.929 -0.1535  0.5398  0.1093
   42LIG     HA  621   9.555   4.018   2.915 -0.6935  1.1122 -0.7859
   42LIG     CB  622   9.680   4.160   2.802 -0.4239 -0.2629  0.1269
   42LIG    HB1  623   9.765   4.228   2.827 -0.1405 -0.7345  0.4527
   42LIG    HB2  624   9.611   4.227   2.746 -0.0949  1.1831  1.3948
   42LIG     CG  625   9.718   4.057   2.700 -0.1615  0.4273  0.0821
   42LIG    OD1  626   9.805   4.098   2.622 -0.4638  0.0319 -0.9534
   42LIG    OD2  627   9.660   3.942   2.688  0.5529 -0.0866 -0.2782
   42LIG      C  628   9.732   4.059   3.024 -0.3791 -0.6934 -0.2158
   42LIG    OT1  629   9.771   4.136   3.122  0.7137  0.2124  0.3277
   42LIG    OT2  630   9.795   3.952   2.985 -0.1390 -0.3639  0.6946
   43LIG      N  631   0.929   7.293   1.989 -0.2452  0.5725 -0.0137
   43LIG     H1  632   1.020   7.263   1.948  1.3695  3.5494  1.1923
   43LIG     H2  633   0.858   7.246   1.930  0.1355  1.0993 -0.9079
   43LIG     H3  634   0.914   7.394   2.010  0.5035  1.0973 -1.8309
   43LIG     CA  635   0.912   7.227   2.113  0.1636 -0.2663  0.6089
   43LIG     HA  636   0.949   7.290   2.193  3.2266  0.7338 -1.5149
   43LIG     CB  637   0.759   7.221   2.128 -0.2332 -0.5587 -0.4237
   43LIG    HB1  638   0.713   7.146   2.061  0.4085 -1.8535  0.5510
   43LIG    HB2  639   0.708   7.314   2.094 -1.1259  0.4934  3.5219
   43LIG     CG  640   0.729   7.195   2.275 -0.1217  0.0857 -0.0158
   43LIG    OD1  641   0.615   7.148   2.300 -0.1944 -0.3828  0.6391
   43LIG    OD2  642   0.808   7.232   2.365  0.0767  0.1343  0.3302
   43LIG      C  643   0.983   7.089   2.125  0.3217 -0.1879  0.5565
   43LIG    OT1  644   1.015   7.022   2.020 -0.4951  0.2140 -0.2450
   43LIG    OT2  645   1.009   7.044   2.238  0.1794 -0.5077  0.4362
   44LIG      N  646   1.335   9.802   6.969 -0.3421 -0.3269 -0.1161
   44LIG     H1  647   1.303   9.808   7.067 -1.3713  2.3992 -0.5787
   44LIG     H2  648   1.261   9.823   6.900 -1.2694  1.8533  1.5068
   44LIG     H3  649   1.373   9.707   6.946 -2.7050 -1.0964 -1.0677
   44LIG     CA  650   1.441   9.903   6.943  0.5064  0.0525  0.3389
   44LIG     HA  651   1.390   9.998   6.937  0.6927  0.1017 -0.4489
   44LIG     CB  652   1.533   9.907   7.067 -0.0094 -0.9322  0.2285
   44LIG    HB1  653   1.571   9.803   7.081  0.3233 -0.9634 -0.8948
   44LIG    HB2  654   1.473   9.921   7.160  3.9244 -1.5212  2.9762
   44LIG     CG  655   1.646  10.005   7.066  0.0477  0.6322 -0.8491
   44LIG    OD1  656   1.763   9.950   7.064 -0.6416  0.6588  0.1303
   44LIG    OD2  657   1.626  10.123   7.044  0.5008 -0.3119 -0.4840
   44LIG      C  658   1.508   9.882   6.811  0.6806  0.3548 -0.2588
   44LIG    OT1  659   1.499   9.768   6.747  0.1810 -0.3148 -0.3547
   44LIG    OT2  660   1.576   9.973   6.763  0.0990  0.6278  0.6372
   45LIG      N  661   0.381   1.487   4.020  0.2830 -0.0708 -0.1967
   45LIG     H1  662   0.296   1.444   4.062  0.5891 -1.4520 -0.9890
   45LIG     H2  663   0.449   1.410   4.002  0.2705 -0.3021  0.7055
   45LIG     H3  664   0.418   1.556   4.089  0.0886  0.4973 -0.6595
   45LIG     CA  665   0.349   1.562   3.896  0.1549 -0.1384 -0.0961
   45LIG     HA  666   0.440   1.560   3.838  1.4768  2.5907  1.8012
   45LIG     CB  667   0.238   1.473   3.829  0.0839 -0.0032 -0.6460
   45LIG    HB1  668   0.138   1.474   3.878 -0.6302  0.7145 -2.1058
   45LIG    HB2  669   0.273   1.367   3.832  2.1622  0.6808  0.3205
   45LIG     CG  670   0.237   1.519   3.693  0.4615  0.5093  0.3839
   45LIG    OD1  671   0.130   1.557   3.634  0.4056 -0.5253  0.1509
   45LIG    OD2  672   0.347   1.514   3.628 -0.2815 -0.3728  0.4875
   45LIG      C  673   0.295   1.706   3.917  0.1243 -0.2771 -0.1898
   45LIG    OT1  674   0.269   1.746   4.036 -0.2421 -0.3189 -0.5714
   45LIG    OT2  675   0.282   1.787   3.818 -0.0387  0.1446 -0.5879
   46LIG      N  676   1.465   1.339   6.842 -0.4780 -0.3457  0.5668
   46LIG     H1  677   1.407   1.392   6.775  2.7212  3.3402  0.5402
   46LIG     H2  678   1.506   1.261   6.788 -1.0029  0.1178 -0.5035
   46LIG     H3  679   1.419   1.296   6.925  1.3587 -0.3463  1.6171
   46LIG     CA  680   1.585   1.423   6.871  0.4538  0.7447  0.1703
   46LIG     HA  681   1.582   1.451   6.976 -0.8398 -2.2613  0.9719
   46LIG     CB  682   1.707   1.326   6.846 -0.0213 -0.0637 -0.8223
   46LIG    HB1  683   1.725   1.286   6.744  2.0140 -1.1449 -0.0737
   46LIG    HB2  684   1.693   1.238   6.912 -1.3937  1.7829  1.4489
   46LIG     CG  685   1.837   1.380   6.904  0.0122  0.0807  0.3788
   46LIG    OD1  686   1.947   1.371   6.840  0.7221  0.4311 -0.2044
   46LIG    OD2  687   1.838   1.433   7.016 -0.3182 -0.4046  0.4092
   46LIG      C  688   1.596   1.551   6.773 -0.0435  0.1191 -0.2813
   46LIG    OT1  689   1.512   1.569   6.686 -0.2783 -0.0582  0.7570
   46LIG    OT2  690   1.683   1.640   6.794  0.0363  0.3252  0.4592
   47LIG      N  691   1.893   0.827   4.385  0.3517 -0.0150  0.1863
   47LIG     H1  692   1.794   0.856   4.393 -0.1384 -1.9512  1.7104
   47LIG     H2  693   1.954   0.897   4.431  0.8407  1.1008 -2.0658
   47LIG     H3  694   1.912   0.825   4.283 -0.8259  0.8180 -0.0530
   47LIG     CA  695   1.905   0.703   4.464  0.6122 -0.2591  0.5444
   47LIG     HA  696   2.006   0.695   4.500  0.6899  0.3463  0.4521
   47LIG     CB  697   1.804   0.711   4.577 -0.2222 -0.2306  0.3129
   47LIG    HB1  698   1.697   0.697   4.553 -0.4182  0.3936  0.8222
   47LIG    HB2  699   1.819   0.810   4.624 -0.4266 -0.6588  1.3036
   47LIG     CG  700   1.843   0.617   4.691 -0.4759  1.0328 -0.1667
   47LIG    OD1  701   1.748   0.581   4.767 -1.0009  1.0027  0.0107
   47LIG    OD2  702   1.962   0.579   4.701 -0.1686  0.2713  0.0709
   47LIG      C  703   1.863   0.590   4.363  0.0642  0.0927 -0.3701
   47LIG    OT1  704   1.849   0.606   4.237 -0.4106 -0.0107 -0.5101
   47LIG    OT2  705   1.844   0.478   4.410  0.1013 -0.4276 -0.4507
   48LIG      N  706   4.919   4.143   9.499 -0.1217  0.5142 -1.2560
   48LIG     H1  707   4.867   4.193   9.424  1.5159  0.1624 -2.6846
   48LIG     H2  708   4.905   4.182   9.594  3.8451 -0.9397  0.0285
   48LIG     H3  709   5.021   4.151   9.476  0.3001 -0.2954  0.3166
   48LIG     CA  710   4.869   4.006   9.485 -0.1995 -0.3794  0.5158
   48LIG     HA  711   4.779   4.005   9.544 -0.3361  2.5120  0.4298
   48LIG     CB  712   4.873   3.972   9.335 -0.9609  0.4690 -0.2073
   48LIG    HB1  713   4.972   3.975   9.286 -1.0508  0.3304 -0.3948
   48LIG    HB2  714   4.821   4.056   9.286 -0.2538 -0.5423 -2.7533
   48LIG     CG  715   4.794   3.846   9.312  0.5336  0.5375 -0.8903
   48LIG    OD1  716   4.849   3.742   9.277 -0.3228 -0.1233 -0.2272
   48LIG    OD2  717   4.670   3.853   9.333  0.4970  0.6848  0.0955
   48LIG      C  718   4.963   3.906   9.561 -0.6919  0.3375 -0.3193
   48LIG    OT1  719   5.085   3.942   9.577  0.7733 -0.1381  0.1888
   48LIG    OT2  720   4.923   3.787   9.594  0.0904  0.0235 -0.5662
   49LIG      N  721   6.068   1.543   6.528  0.2853 -0.4113  0.0521
   49LIG     H1  722   6.118   1.633   6.538  0.6348 -0.4128 -1.5861
   49LIG     H2  723   6.041   1.507   6.622 -0.3376  0.7063  0.3031
   49LIG     H3  724   6.133   1.485   6.471  0.9310  1.7327 -1.4630
   49LIG     CA  725   5.939   1.569   6.447 -0.2341  0.3911  0.6686
   49LIG     HA  726   5.973   1.627   6.363  4.1555  2.8484  3.9139
   49LIG     CB  727   5.866   1.434   6.426  0.2854 -0.3229 -0.6278
   49LIG    HB1  728   5.829   1.396   6.524 -0.1319 -1.1020 -1.0853
   49LIG    HB2  729   5.940   1.378   6.366  0.4514  1.8540 -2.5362
   49LIG     CG  730   5.749   1.443   6.327 -0.7825  0.4557 -0.3904
   49LIG    OD1  731   5.635   1.424   6.367  0.1851  0.3802 -0.3970
   49LIG    OD2  732   5.773   1.474   6.207  0.4719  0.1694 -0.2740
   49LIG      C  733   5.846   1.661   6.531  0.0660  0.2072 -0.6933
   49LIG    OT1  734   5.861   1.680   6.657  0.1137 -0.4211 -0.8476
   49LIG    OT2  735   5.745   1.720   6.475 -0.2389  0.0733  0.2050
   50LIG      N  736   6.670   0.390   3.086  0.1152 -0.3660 -0.4451
   50LIG     H1  737   6.712   0.393   3.181 -1.7069  0.7416  0.3444
   50LIG     H2  738   6.741   0.436   3.025 -1.3000 -0.0774 -1.9172
   50LIG     H3  739   6.582   0.445   3.089  1.7195  2.1947  0.4004
   50LIG     CA  740   6.644   0.245   3.046 -0.0473 -0.4067  0.1870
   50LIG     HA  741   6.552   0.216   3.095 -0.8495 -2.7891 -2.6156
   50LIG     CB  742   6.633   0.254   2.890 -0.7875  0.4505 -0.1411
   50LIG    HB1  743   6.735   0.280   2.854 -0.8427  0.3005 -0.4113
   50LIG    HB2  744   6.559   0.328   2.852  0.2827  1.1276 -0.9188
   50LIG     CG  745   6.600   0.111   2.841 -0.0893  0.1828 -0.6594
   50LIG    OD1  746   6.674   0.063   2.760  0.4259 -0.5194 -0.8741
   50LIG    OD2  747   6.497   0.050   2.877 -0.1702 -0.1814  0.0859
   50LIG      C  748   6.763   0.160   3.098  0.2079 -0.5252 -0.3719
   50LIG    OT1  749   6.861   0.208   3.157 -0.1921 -0.3251  0.2637
   50LIG    OT2  750   6.759   0.036   3.080  0.1551  0.4722  0.1390
   51LIG      N  751   8.118   6.709   8.037  0.0909 -0.2888  0.0499
   51LIG     H1  752   8.194   6.749   8.096 -3.0267 -0.1445  4.2746
   51LIG     H2  753   8.142   6.692   7.938 -0.9121  0.5423 -0.3536
   51LIG     H3  754   8.039   6.776   8.049  0.9165  0.3789  1.9840
   51LIG     CA  755   8.086   6.574   8.089 -0.1461  0.4289 -0.2184
   51LIG     HA  756   8.119   6.563   8.191  1.1270  0.8987 -0.5752
   51LIG     CB  757   7.932   6.571   8.091  0.2077 -0.4703 -0.0610
   51LIG    HB1  758   7.896   6.566   7.987 -0.0055  0.0769 -0.0103
   51LIG    HB2  759   7.893   6.664   8.137 -0.3273  0.1034 -1.6453
   51LIG     CG  760   7.864   6.458   8.164 -0.2419 -0.2328  0.3294
   51LIG    OD1  761   7.782   6.396   8.097 -0.0781  0.1186 -0.2309
   51LIG    OD2  762   7.892   6.443   8.287 -0.2763 -0.4067  0.3524
   51LIG      C  763   8.157   6.464   8.000  0.4916 -0.0781  1.1506
   51LIG    OT1  764   8.213   6.500   7.894 -0.2546  0.5448  0.3034
   51LIG    OT2  765   8.155   6.341   8.034  0.1254  0.3023  0.4714
   52LIG      N  766   9.692   4.978   7.738  0.1978  0.6445 -0.4870
   52LIG     H1  767   9.662   4.879   7.735  2.8522 -0.2474  0.2141
   52LIG     H2  768   9.630   5.045   7.689  1.4983  0.9194 -1.7867
   52LIG     H3  769   9.784   4.981   7.689  0.4058 -0.0651 -0.1421
   52LIG     CA  770   9.692   5.021   7.884 -0.4999  0.0774 -0.5175
   52LIG     HA  771   9.724   4.939   7.947  1.5092 -0.3639 -2.0344
   52LIG     CB  772   9.798   5.132   7.902  0.5495 -0.1899  0.5174
   52LIG    HB1  773   9.747   5.225   7.868  0.1068 -1.0314 -1.1754
   52LIG    HB2  774   9.885   5.105   7.839  0.6684  0.7652  0.2625
   52LIG     CG  775   9.834   5.158   8.045  0.4969 -0.0292 -0.6920
   52LIG    OD1  776   9.853   5.276   8.085  0.2336 -0.4515  0.3847
   52LIG    OD2  777   9.874   5.061   8.113 -0.0728  0.2661  0.2473
   52LIG      C  778   9.554   5.068   7.922  0.9414 -0.2602  0.1146
   52LIG    OT1  779   9.458   5.072   7.839 -0.1715 -0.0114  0.3231
   52LIG    OT2  780   9.532   5.078   8.047 -0.3638  0.4998  0.6267
   53LIG      N  781   0.107   2.785   6.563  0.0375 -0.4526  0.2360
   53LIG     H1  782   0.149   2.799   6.470 -0.1685  0.9843  0.3552
   53LIG     H2  783   0.122   2.874   6.615 -0.7068 -0.2178  0.0633
   53LIG     H3  784   0.164   2.717   6.618 -1.5809 -0.1103  2.4480
   53LIG     CA  785  -0.033   2.732   6.570 -0.4121 -0.2245 -0.2266
   53LIG     HA  786  -0.099   2.803   6.522  0.5255  0.0900 -1.0453
   53LIG     CB  787  -0.042   2.597   6.489 -0.2117  0.1718 -0.1405
   53LIG    HB1  788   0.024   2.516   6.527 -0.4889  0.2993  0.6099
   53LIG    HB2  789   0.001   2.615   6.388 -1.0775 -0.5152 -0.6355
   53LIG     CG  790  -0.181   2.542   6.468 -0.2146  0.2158  0.2969
   53LIG    OD1  791  -0.211   2.424   6.484 -0.7228 -0.0392 -0.0200
   53LIG    OD2  792  -0.268   2.622   6.422 -0.3229 -0.2080  0.2778
   53LIG      C  793  -0.077   2.712   6.715  0.3947 -0.2727 -0.4327
   53LIG    OT1  794   0.008   2.711   6.809  0.4418 -0.0234  0.0094
   53LIG    OT2  795  -0.201   2.688   6.733  0.8087 -0.1041  0.1137
   54LIG      N  796   9.287   6.219   5.444 -0.0780  0.0285  0.5418
   54LIG     H1  797   9.332   6.283   5.513 -0.3125  0.3823  0.3684
   54LIG     H2  798   9.332   6.128   5.465 -0.1638 -0.9413 -3.2227
   54LIG     H3  799   9.302   6.253   5.347 -1.1114  1.6038  0.9150
   54LIG     CA  800   9.143   6.203   5.464 -0.7645 -0.1018  0.2816
   54LIG     HA  801   9.113   6.115   5.410 -0.2420 -1.0243  1.4804
   54LIG     CB  802   9.145   6.192   5.614  0.0288  0.8716 -0.5749
   54LIG    HB1  803   9.168   6.285   5.671 -0.0429  0.1626  0.6481
   54LIG    HB2  804   9.223   6.123   5.653 -0.8082  0.0709 -0.2806
   54LIG     CG  805   9.017   6.129   5.671  0.5916 -0.1398  0.1120
   54LIG    OD1  806   8.963   6.201   5.756  0.1441 -0.0411 -0.1762
   54LIG    OD2  807   8.963   6.025   5.627  0.3036  0.0037 -0.2557
   54LIG      C  808   9.062   6.327   5.416  0.4777  0.3364 -0.1724
   54LIG    OT1  809   9.132   6.436   5.397 -0.1636 -0.3274 -0.0993
   54LIG    OT2  810   8.939   6.325   5.398  0.0454 -0.1524 -0.1366
   55LIG      N  811   0.298   3.774   9.242 -0.0893 -0.2196 -0.2198
   55LIG     H1  812   0.226   3.848   9.236 -1.9107 -2.0545 -1.9981
   55LIG     H2  813   0.258   3.691   9.194 -2.2130  0.5579  0.1684
   55LIG     H3  814   0.297   3.740   9.340  0.9300  1.2859  0.3230
   55LIG     CA  815   0.440   3.795   9.182 -0.2806 -1.0623  0.4384
   55LIG     HA  816   0.493   3.879   9.225 -1.1474  0.1841 -0.8759
   55LIG     CB  817   0.502   3.661   9.229 -0.2360 -0.1734 -0.1729
   55LIG    HB1  818   0.462   3.582   9.163 -0.8880 -0.0775  0.1034
   55LIG    HB2  819   0.491   3.636   9.337 -1.3401  2.8332  0.4670
   55LIG     CG  820   0.650   3.679   9.199  0.3870  0.0528 -0.2673
   55LIG    OD1  821   0.707   3.594   9.130 -0.4386 -0.7352 -0.2272
   55LIG    OD2  822   0.713   3.782   9.244 -0.4805  0.1118  0.4916
   55LIG      C  823   0.430   3.804   9.027  0.6265  0.1274 -0.3950
   55LIG    OT1  824   0.323   3.771   8.970  1.0269 -0.4380 -0.1472
   55LIG    OT2  825   0.529   3.835   8.956  0.0706  0.2658  0.6105
   56LIG      N  826   3.400   8.579   1.034  0.2937 -0.0088 -0.4177
   56LIG     H1  827   3.465   8.656   1.059  0.3777  0.3833 -1.8218
   56LIG     H2  828   3.460   8.498   1.007  2.1522  1.8064 -1.8971
   56LIG     H3  829   3.341   8.605   0.952  1.0094  0.3825 -0.8197
   56LIG     CA  830   3.301   8.554   1.143  0.2914 -0.5506 -0.2963
   56LIG     HA  831   3.363   8.560   1.232  2.4818  0.2570 -1.8427
   56LIG     CB  832   3.187   8.656   1.124  0.0429  0.5029  0.3367
   56LIG    HB1  833   3.131   8.643   1.029 -1.6222  0.9752  1.2521
   56LIG    HB2  834   3.238   8.755   1.117 -0.7359  0.8355 -0.7893
   56LIG     CG  835   3.101   8.667   1.249  0.1131 -0.4327  0.2400
   56LIG    OD1  836   2.975   8.674   1.238 -0.3924  0.4285  1.0120
   56LIG    OD2  837   3.158   8.668   1.359  0.4430  0.6255 -0.2058
   56LIG      C  838   3.249   8.399   1.135  0.4640 -0.2597 -0.8409
   56LIG    OT1  839   3.291   8.318   1.053  0.8276  0.3915 -0.1306
   56LIG    OT2  840   3.176   8.360   1.230 -0.3727 -0.0790  0.3085
   57LIG      N  841   3.409   0.272   5.816 -0.2842  0.1197  0.2108
   57LIG     H1  842   3.311   0.278   5.851  0.8670  1.0372  3.5346
   57LIG     H2  843   3.408   0.277   5.712  0.2290 -0.2953  0.1882
   57LIG     H3  844   3.450   0.183   5.852 -0.3041 -0.0961 -0.3017
   57LIG     CA  845   3.482   0.385   5.876  0.8708 -0.4622 -0.0769
   57LIG     HA  846   3.581   0.387   5.834  0.9459  0.1756  0.1175
   57LIG     CB  847   3.409   0.521   5.834 -0.0916 -0.1896  0.1110
   57LIG    HB1  848   3.314   0.534   5.890  0.0967  0.8953  0.1894
   57LIG    HB2  849   3.376   0.521   5.728 -0.9674  1.1419  0.3737
   57LIG     CG  850   3.494   0.637   5.857 -0.9715  1.1033  0.7857
   57LIG    OD1  851   3.453   0.734   5.933 -0.2088  0.2930  0.1327
   57LIG    OD2  852   3.605   0.639   5.796 -0.1263 -0.9984  0.0608
   57LIG      C  853   3.510   0.361   6.024 -0.3352 -0.4766  0.1676
   57LIG    OT1  854   3.449   0.273   6.094 -0.1240 -0.2109 -0.0271
   57LIG    OT2  855   3.597   0.432   6.075  0.1832  0.7310  0.2954
   58LIG      N  856   0.391   4.804   6.749  0.7096  0.1934  0.0655
   58LIG     H1  857   0.378   4.866   6.666 -1.1281 -1.4830 -0.9263
   58LIG     H2  858   0.371   4.705   6.724 -2.7836  0.5823  1.0452
   58LIG     H3  859   0.317   4.832   6.816 -0.7383  3.2037 -2.6528
   58LIG     CA  860   0.530   4.837   6.802  0.5213 -0.1898 -0.6954
   58LIG     HA  861   0.581   4.889   6.722 -1.1011  0.2061 -1.4991
   58LIG     CB  862   0.498   4.929   6.925  0.0244 -0.6261 -0.2271
   58LIG    HB1  863   0.476   4.858   7.008 -1.9274  3.0844  2.5791
   58LIG    HB2  864   0.415   5.002   6.910 -0.6130 -1.2187  0.4131
   58LIG     CG  865   0.623   5.001   6.963 -0.1699  0.1973  0.4480
   58LIG    OD1  866   0.651   5.029   7.082  0.3055 -0.0911  0.0413
   58LIG    OD2  867   0.699   5.042   6.863 -0.2761  0.1791  0.4506
   58LIG      C  868   0.610   4.704   6.841  0.7460 -0.2782  0.0847
   58LIG    OT1  869   0.567   4.591   6.820 -0.1334 -0.3281  0.1090
   58LIG    OT2  870   0.722   4.724   6.895  0.8754 -0.0207 -0.3755
   59LIG      N  871   5.375   9.999   0.809 -1.1544  0.2170  0.1835
   59LIG     H1  872   5.436  10.058   0.869  2.2194 -2.8808  0.0191
   59LIG     H2  873   5.353   9.910   0.857  1.2277 -0.6325 -0.2418
   59LIG     H3  874   5.423   9.964   0.723  2.1186 -0.4423  2.1705
   59LIG     CA  875   5.248  10.065   0.770 -0.5903 -0.2085 -0.7000
   59LIG     HA  876   5.271  10.166   0.737  0.7621 -0.2870 -0.0422
   59LIG     CB  877   5.182   9.978   0.664  0.6031  0.0466 -0.1154
   59LIG    HB1  878   5.159   9.879   0.708 -1.4408  0.4115 -0.3199
   59LIG    HB2  879   5.257   9.961   0.583  0.5612 -2.3385  0.3075
   59LIG     CG  880   5.068  10.055   0.606  0.0586  0.5389 -0.0175
   59LIG    OD1  881   4.951  10.015   0.622 -0.1117  0.3306  0.3991
   59LIG    OD2  882   5.099  10.160   0.540  0.3355 -0.0992  0.7262
   59LIG      C  883   5.153  10.086   0.894  0.1968  0.0524 -0.0585
   59LIG    OT1  884   5.178  10.052   1.010  0.0484  0.0921 -0.2241
   59LIG    OT2  885   5.054  10.160   0.872 -0.0285 -0.5145  1.0406
   60LIG      N  886   5.227   7.607   0.394 -0.0740  0.5320 -0.1991
   60LIG     H1  887   5.219   7.537   0.317  2.6361 -0.0985  0.0393
   60LIG     H2  888   5.191   7.565   0.482 -0.7400 -1.4816 -1.3720
   60LIG     H3  889   5.183   7.697   0.366  0.6536  0.8430 -0.3523
   60LIG     CA  890   5.378   7.623   0.408  0.7460  0.2429 -0.4473
   60LIG     HA  891   5.407   7.702   0.476  2.2511 -0.7880  0.1347
   60LIG     CB  892   5.426   7.489   0.469  0.1677 -0.2721  0.7461
   60LIG    HB1  893   5.422   7.417   0.384 -1.0043  0.7805 -0.1059
   60LIG    HB2  894   5.362   7.454   0.553  0.4599 -0.6536  0.8096
   60LIG     CG  895   5.571   7.481   0.521 -0.4996 -0.2202 -0.3601
   60LIG    OD1  896   5.639   7.379   0.485  0.5208  0.2045 -0.0882
   60LIG    OD2  897   5.603   7.564   0.608 -0.1415  0.6050  0.5444
   60LIG      C  898   5.452   7.659   0.277  0.6287  0.3396 -1.0330
   60LIG    OT1  899   5.390   7.659   0.168 -1.1155  0.4735 -0.3836
   60LIG    OT2  900   5.570   7.700   0.288 -0.5687  0.7838  0.1548
   61LIG      N  901   1.485   3.610   3.301  0.0586 -0.5038  0.4454
   61LIG     H1  902   1.478   3.585   3.402  0.7790  0.2125  0.6678
   61LIG     H2  903   1.397   3.587   3.250  0.2686  2.1426 -1.2179
   61LIG     H3  904   1.552   3.546   3.253 -1.6089 -1.6947 -0.3722
   61LIG     CA  905   1.506   3.754   3.267  0.1056  0.2766  0.6598
   61LIG     HA  906   1.609   3.768   3.297  0.0005  0.4389  0.9413
   61LIG     CB  907   1.476   3.759   3.114 -0.1997  0.0543  0.8454
   61LIG    HB1  908   1.368   3.755   3.085  0.2788 -0.2139 -0.9463
   61LIG    HB2  909   1.507   3.671   3.053  1.4648  0.7877  0.6066
   61LIG     CG  910   1.534   3.893   3.055  0.7386  0.7996 -0.1362
   61LIG    OD1  911   1.480   3.961   2.965  0.2216 -0.3114  0.1271
   61LIG    OD2  912   1.641   3.926   3.108  0.4836 -0.2872 -0.9111
   61LIG      C  913   1.407   3.837   3.359  0.5029  0.3031 -0.1451
   61LIG    OT1  914   1.316   3.786   3.433 -0.0048  0.2074  0.3321
   61LIG    OT2  915   1.416   3.963   3.343  0.2532  0.8256  0.0073
   62LIG      N  916   4.205   1.604   9.107  0.2451  0.2551 -0.0527
   62LIG     H1  917   4.251   1.686   9.153 -1.4881  0.8854  0.5975
   62LIG     H2  918   4.102   1.602   9.117  0.4706  2.0458  3.5982
   62LIG     H3  919   4.230   1.521   9.165 -0.4155  0.0816 -0.0195
   62LIG     CA  920   4.256   1.584   8.966 -1.0597  0.0562  0.0109
   62LIG     HA  921   4.186   1.516   8.919 -0.9322 -1.9563  2.5629
   62LIG     CB  922   4.243   1.722   8.891 -0.3648 -0.0078  0.7049
   62LIG    HB1  923   4.330   1.787   8.912  1.1150 -1.8008  0.2407
   62LIG    HB2  924   4.147   1.770   8.921 -0.5062  0.3429 -0.2987
   62LIG     CG  925   4.244   1.699   8.738  0.4863  0.0614 -0.2711
   62LIG    OD1  926   4.322   1.762   8.661  0.2287  0.2014 -0.5650
   62LIG    OD2  927   4.161   1.620   8.686 -0.3887 -0.7534  0.1064
   62LIG      C  928   4.403   1.525   8.947  0.3680  1.2912 -0.8231
   62LIG    OT1  929   4.470   1.516   9.054  0.1589 -0.5578 -0.2469
   62LIG    OT2  930   4.450   1.502   8.830 -0.3195 -0.2081 -0.0812
   63LIG      N  931   8.144   3.050   1.448  0.5592  0.1595 -0.7581
   63LIG     H1  932   8.117   3.151   1.449 -0.6487 -0.1506  1.2036
   63LIG     H2  933   8.054   3.002   1.472  1.5298 -0.7753  1.0863
   63LIG     H3  934   8.212   3.040   1.525 -0.8992  0.6305  0.6333
   63LIG     CA  935   8.192   3.001   1.319  0.1730 -0.0949 -0.5949
   63LIG     HA  936   8.194   2.893   1.332 -0.7233 -0.0835 -0.3284
   63LIG     CB  937   8.101   3.059   1.209 -0.0916  0.0696  0.4906
   63LIG    HB1  938   8.134   3.161   1.181  0.6035  0.6522  3.2986
   63LIG    HB2  939   7.997   3.075   1.243 -0.4776  0.9154 -1.0543
   63LIG     CG  940   8.102   2.975   1.090 -0.6924  0.2813 -0.2277
   63LIG    OD1  941   8.093   3.030   0.979 -0.0416  0.0216 -0.2272
   63LIG    OD2  942   8.117   2.847   1.093 -0.0499 -0.1396  0.1774
   63LIG      C  943   8.343   3.023   1.298 -0.4980 -0.0706  0.2205
   63LIG    OT1  944   8.412   3.078   1.388 -0.6166 -0.3855  1.4995
   63LIG    OT2  945   8.398   2.976   1.199 -0.0723  0.6822  0.3082
   64LIG      N  946   9.102   6.322   5.955 -0.1022 -0.0182 -0.0381
   64LIG     H1  947   9.163   6.250   5.911 -1.1045  0.0160 -1.5319
   64LIG     H2  948   9.071   6.301   6.052 -1.2045  1.4311 -0.0496
   64LIG     H3  949   9.017   6.338   5.898  0.3090  0.5688 -0.4972
   64LIG     CA  950   9.165   6.461   5.958  0.3077  0.1122 -0.3107
   64LIG     HA  951   9.271   6.442   5.945  0.6793  1.4193  0.6924
   64LIG     CB  952   9.112   6.554   5.850 -0.1412 -0.3954  0.2078
   64LIG    HB1  953   9.006   6.575   5.876  0.2370  0.0258  1.4221
   64LIG    HB2  954   9.105   6.523   5.744 -0.5274 -0.6719  0.3138
   64LIG     CG  955   9.185   6.684   5.851  0.5240 -0.2199  1.1944
   64LIG    OD1  956   9.115   6.791   5.844 -0.7419  0.0949 -0.2493
   64LIG    OD2  957   9.312   6.682   5.852 -0.3582 -0.2964  0.2752
   64LIG      C  958   9.146   6.522   6.102  0.8926 -0.3618  0.0725
   64LIG    OT1  959   9.071   6.459   6.182  0.0732 -0.1747  0.1460
   64LIG    OT2  960   9.198   6.630   6.135 -0.0099 -0.3846 -0.3010
   65LIG      N  961   7.850   7.201   2.867  0.5302  0.0717  0.1778
   65LIG     H1  962   7.913   7.157   2.937  1.0973  0.2331 -0.2222
   65LIG     H2  963   7.905   7.213   2.779 -0.7576  1.2596 -0.4733
   65LIG     H3  964   7.822   7.298   2.893 -0.3324  0.9237 -3.5810
   65LIG     CA  965   7.735   7.119   2.846  0.6765 -0.5547 -0.0753
   65LIG     HA  966   7.754   7.070   2.751 -2.0535 -0.7328 -0.5621
   65LIG     CB  967   7.728   7.033   2.979  0.5718 -0.7876 -0.0252
   65LIG    HB1  968   7.696   7.088   3.070  0.7136  2.9315 -2.1603
   65LIG    HB2  969   7.828   6.984   2.983  0.9847  0.0161 -0.4197
   65LIG     CG  970   7.643   6.910   2.962 -0.4592  0.4583  1.1217
   65LIG    OD1  971   7.578   6.866   3.066 -0.4407 -0.5032  0.3700
   65LIG    OD2  972   7.642   6.851   2.850  0.0464 -0.2981 -0.6805
   65LIG      C  973   7.600   7.203   2.828 -0.3980 -0.3313 -0.2401
   65LIG    OT1  974   7.595   7.327   2.838  0.1703  0.1594 -0.6017
   65LIG    OT2  975   7.490   7.144   2.810  0.4496  0.2182 -0.3284
   66LIG      N  976   3.963   9.090   1.625  0.1669 -0.6283  0.8214
   66LIG     H1  977   3.944   9.174   1.683 -1.7019 -0.1349 -0.4640
   66LIG     H2  978   3.979   9.127   1.529  0.2824  1.2621  1.5445
   66LIG     H3  979   3.874   9.036   1.629  0.0060 -0.3859  0.4455
   66LIG     CA  980   4.083   9.007   1.663  0.0670  0.5417  0.2692
   66LIG     HA  981   4.169   9.067   1.638  0.4884 -0.5184 -0.8602
   66LIG     CB  982   4.082   8.974   1.823  0.3006 -0.6346  0.4188
   66LIG    HB1  983   4.041   8.870   1.828 -0.1712 -0.4304  0.8572
   66LIG    HB2  984   4.022   9.048   1.880 -0.5582 -1.1691  0.2134
   66LIG     CG  985   4.217   8.969   1.884  0.4588 -0.4432 -0.7557
   66LIG    OD1  986   4.239   8.868   1.958  0.2071 -0.1783  0.4567
   66LIG    OD2  987   4.298   9.060   1.871 -0.3160 -0.2094 -0.1589
   66LIG      C  988   4.097   8.874   1.582 -1.4223 -0.1143 -1.2629
   66LIG    OT1  989   4.016   8.838   1.495  0.3704  0.2134  0.6983
   66LIG    OT2  990   4.206   8.811   1.603  0.0675 -0.2246 -0.2764
   67LIG      N  991   9.258   7.653   3.879  0.3388 -0.4876 -0.4373
   67LIG     H1  992   9.251   7.631   3.980 -2.6830 -0.1834 -0.5402
   67LIG     H2  993   9.347   7.704   3.862  1.0198 -1.3274  0.5285
   67LIG     H3  994   9.181   7.716   3.847  0.5722  1.8285  3.2932
   67LIG     CA  995   9.246   7.522   3.804 -0.0033  0.3678  0.0362
   67LIG     HA  996   9.269   7.547   3.701  1.1384  0.1685  0.2438
   67LIG     CB  997   9.352   7.425   3.867  0.5769  0.2661 -0.0342
   67LIG    HB1  998   9.311   7.373   3.956  2.4780  1.3762  1.5078
   67LIG    HB2  999   9.449   7.475   3.886  1.3364 -1.6402  1.2138
   67LIG     CG 1000   9.396   7.328   3.761 -0.0436  0.2841  0.2504
   67LIG    OD1 1001   9.404   7.207   3.790  0.3995  0.4203 -1.0025
   67LIG    OD2 1002   9.423   7.371   3.646 -0.1893 -0.3158  0.4089
   67LIG      C 1003   9.111   7.452   3.807  0.2810  0.4926 -0.5074
   67LIG    OT1 1004   9.008   7.515   3.851  0.5401  0.8758 -0.4969
   67LIG    OT2 1005   9.096   7.335   3.759 -0.2922 -0.4815 -0.3949
   68LIG      N 1006   0.545   2.149   3.400 -0.0841  0.0220  0.3017
   68LIG     H1 1007   0.479   2.142   3.320 -0.7766  0.8003  0.8009
   68LIG     H2 1008   0.642   2.134   3.364  0.6046  0.1916  2.0314
   68LIG     H3 1009   0.519   2.083   3.476  1.7708 -0.4502  0.5730
   68LIG     CA 1010   0.548   2.284   3.444 -0.0802 -0.6940  0.2468
   68LIG     HA 1011   0.448   2.315   3.471 -0.1020 -0.4989 -0.0482
   68LIG     CB 1012   0.647   2.285   3.563 -0.1786 -1.2445 -0.3561
   68LIG    HB1 1013   0.756   2.282   3.546  0.0172  2.5511 -0.0750
   68LIG    HB2 1014   0.629   2.194   3.624  0.1918  1.5578  4.1798
   68LIG     CG 1015   0.620   2.401   3.656 -0.0207  0.6338 -0.1790
   68LIG    OD1 1016   0.707   2.493   3.670 -0.2769  0.0540 -0.4154
   68LIG    OD2 1017   0.510   2.398   3.720 -0.0875  0.5386 -0.5552
   68LIG      C 1018   0.589   2.386   3.329 -0.0133  0.1293 -0.1406
   68LIG    OT1 1019   0.597   2.349   3.205  0.0859 -0.0540 -0.4102
   68LIG    OT2 1020   0.629   2.500   3.371  0.1468 -0.2269 -0.4312
   69LIG      N 1021   6.591   5.534   9.144 -0.6691  0.0861  0.2319
   69LIG     H1 1022   6.691   5.507   9.151  0.1563  2.4644 -1.6102
   69LIG     H2 1023   6.529   5.469   9.196 -0.7230  0.1594  0.2582
   69LIG     H3 1024   6.572   5.523   9.042  1.0178  0.3202 -0.1201
   69LIG     CA 1025   6.549   5.675   9.179  0.0111  0.1469 -0.1361
   69LIG     HA 1026   6.449   5.692   9.143 -0.2847  1.4835  1.2698
   69LIG     CB 1027   6.538   5.688   9.331  0.3476  0.5066  0.5998
   69LIG    HB1 1028   6.644   5.683   9.364  0.8684 -1.6949 -1.2579
   69LIG    HB2 1029   6.485   5.597   9.367  0.2601 -0.0113 -0.7993
   69LIG     CG 1030   6.472   5.814   9.375 -0.3605  0.0350 -0.5008
   69LIG    OD1 1031   6.519   5.887   9.462 -0.5386  0.0015  0.1101
   69LIG    OD2 1032   6.353   5.829   9.343 -0.0570  0.3392 -0.3284
   69LIG      C 1033   6.644   5.787   9.120 -0.1441  0.4008 -0.8101
   69LIG    OT1 1034   6.751   5.757   9.062 -0.5043  0.2078 -0.0569
   69LIG    OT2 1035   6.608   5.908   9.133 -0.1366 -0.1558  0.3037
   70LIG      N 1036   4.728   0.014   7.955 -0.4562  0.6790  0.1958
   70LIG     H1 1037   4.732  -0.016   7.856 -1.0690 -0.3255  0.4639
   70LIG     H2 1038   4.794   0.092   7.975 -1.9892  1.8127  0.9395
   70LIG     H3 1039   4.745  -0.059   8.027 -0.9591 -1.6198 -1.9801
   70LIG     CA 1040   4.592   0.064   7.972 -0.0492  0.3061 -0.1310
   70LIG     HA 1041   4.533   0.020   7.893 -0.5935 -0.5037  0.7151
   70LIG     CB 1042   4.540   0.029   8.111  0.2099 -0.7917  0.4591
   70LIG    HB1 1043   4.576   0.108   8.179 -3.2129  1.1059  0.2014
   70LIG    HB2 1044   4.583  -0.069   8.139 -1.9495 -1.2322  2.3801
   70LIG     CG 1045   4.391   0.026   8.117  0.5270 -0.6522  0.3029
   70LIG    OD1 1046   4.348   0.109   8.202 -0.3776 -0.1877  0.1931
   70LIG    OD2 1047   4.319  -0.050   8.046 -0.5656  0.0241  0.2012
   70LIG      C 1048   4.576   0.212   7.936  0.1636 -0.5382  0.1847
   70LIG    OT1 1049   4.677   0.279   7.913  0.4117  0.0335  0.0661
   70LIG    OT2 1050   4.456   0.266   7.930 -0.2797 -0.4249  0.2269
   71LIG      N 1051   9.434   8.566   3.819 -0.0254  0.0815 -0.5452
   71LIG     H1 1052   9.415   8.610   3.911 -0.4434  0.5623 -0.8618
   71LIG     H2 1053   9.461   8.641   3.751 -0.4905 -0.2614 -1.1160
   71LIG     H3 1054   9.345   8.522   3.787 -2.3833  2.4862  2.5216
   71LIG     CA 1055   9.536   8.454   3.828 -1.1474 -0.2831  0.1300
   71LIG     HA 1056   9.557   8.425   3.726 -0.6609  2.5422 -0.6241
   71LIG     CB 1057   9.647   8.512   3.909 -0.6734  0.2513 -0.1007
   71LIG    HB1 1058   9.610   8.542   4.010 -1.3527  0.9212 -0.5467
   71LIG    HB2 1059   9.680   8.606   3.860  0.7014 -0.6591 -0.9314
   71LIG     CG 1060   9.772   8.440   3.935 -0.2771  0.2446  0.0931
   71LIG    OD1 1061   9.816   8.427   4.055  0.3855  0.1851 -0.1115
   71LIG    OD2 1062   9.838   8.396   3.839  0.1912  0.0633  0.5488
   71LIG      C 1063   9.470   8.327   3.878 -0.1917 -0.9541 -0.9851
   71LIG    OT1 1064   9.349   8.319   3.911 -0.5475  0.6094  0.0308
   71LIG    OT2 1065   9.538   8.220   3.875 -0.1356  0.3566  0.1582
   72LIG      N 1066   0.111   8.194   7.458  0.3759  0.5921  0.5712
   72LIG     H1 1067   0.172   8.168   7.378 -0.0187  1.6537 -0.0792
   72LIG     H2 1068   0.118   8.135   7.544 -0.0577  0.5292  0.5621
   72LIG     H3 1069   0.012   8.192   7.427 -0.1725 -1.1918  2.2734
   72LIG     CA 1070   0.145   8.328   7.509  0.6314  0.8177  0.4770
   72LIG     HA 1071   0.156   8.385   7.418  0.0001  1.5347  0.8497
   72LIG     CB 1072   0.021   8.355   7.600  0.6345 -0.4686  0.3115
   72LIG    HB1 1073   0.025   8.296   7.694  0.1899  1.2848  1.4371
   72LIG    HB2 1074  -0.075   8.338   7.545 -0.4429  0.5922  1.8436
   72LIG     CG 1075   0.007   8.498   7.639  0.0108 -0.4919 -0.0205
   72LIG    OD1 1076   0.006   8.523   7.762 -0.3022  0.2065  0.0902
   72LIG    OD2 1077   0.004   8.580   7.545  1.3113 -0.3684 -0.3508
   72LIG      C 1078   0.276   8.332   7.590  0.4875  0.6815  0.6344
   72LIG    OT1 1079   0.352   8.233   7.604 -0.3189  1.0162  0.4921
   72LIG    OT2 1080   0.302   8.446   7.638  0.2239  0.3721  0.2206
   73LIG      N 1081   8.614   8.185   9.524  0.3446  0.0972 -0.2197
   73LIG     H1 1082   8.671   8.243   9.458  0.2185  1.4760  0.8622
   73LIG     H2 1083   8.550   8.253   9.569  1.2244 -0.1915  1.4814
   73LIG     H3 1084   8.673   8.142   9.597  0.7321  0.9457 -0.0243
   73LIG     CA 1085   8.552   8.070   9.447 -0.0573 -0.0271 -0.0397
   73LIG     HA 1086   8.518   7.994   9.517  0.5544  0.0026  0.2874
   73LIG     CB 1087   8.425   8.140   9.386  0.1341  0.6448  0.1094
   73LIG    HB1 1088   8.446   8.206   9.299  2.8394 -0.6255 -0.2461
   73LIG    HB2 1089   8.372   8.192   9.470  1.3655 -0.2508  1.4545
   73LIG     CG 1090   8.321   8.035   9.345  0.2984 -0.0075 -0.4133
   73LIG    OD1 1091   8.278   8.033   9.225 -0.8343 -0.4336 -0.2868
   73LIG    OD2 1092   8.272   7.955   9.427  0.4701 -0.2909  0.2106
   73LIG      C 1093   8.644   8.001   9.343 -0.0331 -0.0433 -0.7772
   73LIG    OT1 1094   8.761   8.041   9.334 -0.2982 -0.6432 -0.2062
   73LIG    OT2 1095   8.603   7.907   9.269  0.1679 -0.3611  0.3345
   74LIG      N 1096   0.544   3.277   6.320 -0.1021  0.2040  0.1113
   74LIG     H1 1097   0.521   3.373   6.288 -2.1765 -0.5952 -0.8543
   74LIG     H2 1098   0.488   3.209   6.265  3.8319 -0.9097 -2.7874
   74LIG     H3 1099   0.533   3.267   6.423 -0.1214  1.6786  0.2582
   74LIG     CA 1100   0.690   3.257   6.303 -0.7736  0.0496  0.4664
   74LIG     HA 1101   0.709   3.228   6.200 -0.5603  0.2267  0.4557
   74LIG     CB 1102   0.763   3.387   6.355  0.7542 -0.1269  0.0413
   74LIG    HB1 1103   0.781   3.380   6.465 -1.0607  1.6104  0.4641
   74LIG    HB2 1104   0.708   3.480   6.329  2.5627  0.4734 -1.7801
   74LIG     CG 1105   0.896   3.407   6.283 -0.0857 -0.2030  0.0930
   74LIG    OD1 1106   0.999   3.455   6.341  0.6140  0.3261 -0.3187
   74LIG    OD2 1107   0.895   3.384   6.156  0.1486 -0.0384 -0.7316
   74LIG      C 1108   0.752   3.145   6.385 -0.9548  0.3752  0.4550
   74LIG    OT1 1109   0.679   3.081   6.462  0.2885  0.4133  0.1681
   74LIG    OT2 1110   0.866   3.106   6.369 -0.3415 -0.2097  0.2653
   75LIG      N 1111   5.579   7.968   9.340  0.6743  0.0833 -0.7820
   75LIG     H1 1112   5.625   7.874   9.342  1.6255  0.5768  1.8520
   75LIG     H2 1113   5.634   8.031   9.278  1.0708  0.4954 -0.0214
   75LIG     H3 1114   5.586   8.012   9.434 -1.3080  1.7502 -1.4008
   75LIG     CA 1115   5.440   7.964   9.292  0.3831 -0.5642 -0.4103
   75LIG     HA 1116   5.407   8.066   9.282 -0.1672 -0.6254  0.7186
   75LIG     CB 1117   5.415   7.868   9.173 -0.4162  0.9319  0.6933
   75LIG    HB1 1118   5.433   7.765   9.213  0.2923  0.9615  0.4566
   75LIG    HB2 1119   5.479   7.886   9.085  0.5267 -0.1859  1.1337
   75LIG     CG 1120   5.281   7.881   9.122  0.4717  0.8404  0.5074
   75LIG    OD1 1121   5.211   7.775   9.122  0.0302 -0.0397 -0.6958
   75LIG    OD2 1122   5.229   7.992   9.092  0.0880 -0.1963 -0.5184
   75LIG      C 1123   5.359   7.918   9.417  0.2882  0.1117  1.2224
   75LIG    OT1 1124   5.419   7.885   9.523  0.1842  0.6259 -0.3436
   75LIG    OT2 1125   5.233   7.920   9.413 -0.6236 -0.3075  0.4793
   76LIG      N 1126   0.628   3.745   4.913  0.1771 -0.0729  0.6026
   76LIG     H1 1127   0.556   3.805   4.958  0.0222  0.4138 -0.3005
   76LIG     H2 1128   0.717   3.794   4.891  0.2203 -0.6455 -0.5418
   76LIG     H3 1129   0.595   3.688   4.832  0.7638 -0.9082  0.9376
   76LIG     CA 1130   0.664   3.629   5.000  0.4146  0.0602 -0.5196
   76LIG     HA 1131   0.578   3.603   5.060  0.8141  1.6076  0.7771
   76LIG     CB 1132   0.716   3.514   4.922  0.0878 -0.4246  0.3638
   76LIG    HB1 1133   0.730   3.434   4.998 -0.1901  0.7183  1.6353
   76LIG    HB2 1134   0.805   3.542   4.861 -0.9749  0.3389 -0.8644
   76LIG     CG 1135   0.611   3.459   4.831 -0.3006 -0.0768  0.1632
   76LIG    OD1 1136   0.550   3.548   4.761 -0.0688  0.5066 -0.4192
   76LIG    OD2 1137   0.592   3.338   4.814  0.1045  0.0689 -0.0149
   76LIG      C 1138   0.777   3.673   5.090  0.2962 -0.3489 -0.7176
   76LIG    OT1 1139   0.823   3.792   5.085  0.2856 -0.3240 -0.0040
   76LIG    OT2 1140   0.832   3.586   5.160  0.2983  0.0288 -0.1873
   77LIG      N 1141   8.557   5.727   3.960 -0.4282  0.3009  0.5834
   77LIG     H1 1142   8.654   5.761   3.943 -0.3457 -0.5839 -0.8004
   77LIG     H2 1143   8.557   5.709   4.062  0.6447 -2.3265  0.1529
   77LIG     H3 1144   8.536   5.647   3.897  0.3084  1.3631 -1.0333
   77LIG     CA 1145   8.459   5.828   3.916  0.4690  0.3675 -0.1497
   77LIG     HA 1146   8.398   5.862   3.998 -1.1463 -0.5086 -0.9669
   77LIG     CB 1147   8.537   5.941   3.855 -0.2280  0.3559 -0.2369
   77LIG    HB1 1148   8.575   5.919   3.753 -0.4441 -0.3507 -0.1630
   77LIG    HB2 1149   8.629   5.962   3.915 -1.6463 -0.1803  2.2174
   77LIG     CG 1150   8.444   6.063   3.864  0.2222  0.5892 -0.4272
   77LIG    OD1 1151   8.400   6.114   3.754  0.2652  0.1795  0.3082
   77LIG    OD2 1152   8.408   6.104   3.978  0.6407 -0.0746  0.0242
   77LIG      C 1153   8.349   5.776   3.827 -0.6536  0.2791  0.7714
   77LIG    OT1 1154   8.351   5.662   3.779 -0.0963 -0.2802  0.2879
   77LIG    OT2 1155   8.242   5.849   3.811 -0.7163 -0.0971 -0.2401
   78LIG      N 1156   4.068   7.944   9.944  0.2586 -0.3842  0.3982
   78LIG     H1 1157   4.110   8.004   9.871 -2.5779  0.1682 -0.8183
   78LIG     H2 1158   3.964   7.946   9.937  0.4991  0.7545 -4.0296
   78LIG     H3 1159   4.107   7.974  10.036 -1.0325  0.3623  0.7117
   78LIG     CA 1160   4.108   7.807   9.904 -0.4675  0.0396 -0.5432
   78LIG     HA 1161   4.086   7.741   9.986  0.2832  0.3769 -0.0633
   78LIG     CB 1162   4.021   7.780   9.783 -0.0701  0.4668 -0.2809
   78LIG    HB1 1163   4.047   7.843   9.695  0.3148  1.1992  0.3507
   78LIG    HB2 1164   3.911   7.781   9.801 -0.3422  0.8462 -1.8875
   78LIG     CG 1165   4.043   7.636   9.735 -0.0182  0.0867 -0.5944
   78LIG    OD1 1166   4.068   7.628   9.611 -0.4646 -0.3224 -0.6711
   78LIG    OD2 1167   4.028   7.539   9.810 -0.0165  0.2475  0.0611
   78LIG      C 1168   4.255   7.799   9.873 -0.5009 -0.1627 -0.1456
   78LIG    OT1 1169   4.327   7.905   9.887 -0.1035 -0.0434  0.0780
   78LIG    OT2 1170   4.311   7.686   9.845  0.3067 -0.0812 -0.6161
   79LIG      N 1171   9.381   4.019   1.053 -0.0325 -0.1584  0.0489
   79LIG     H1 1172   9.416   4.110   1.016  0.1587  0.6752  2.1964
   79LIG     H2 1173   9.371   4.029   1.156  1.8097 -0.7633  0.2940
   79LIG     H3 1174   9.460   3.955   1.033  0.9141  0.4299  1.8848
   79LIG     CA 1175   9.253   3.991   0.990 -0.2067  0.0149  0.2001
   79LIG     HA 1176   9.251   3.883   0.984  2.2879 -0.0004 -1.2682
   79LIG     CB 1177   9.134   4.045   1.066  0.0511  0.1765  0.1760
   79LIG    HB1 1178   9.125   4.155   1.053 -0.6934  0.1076  0.0283
   79LIG    HB2 1179   9.151   4.038   1.175 -3.8574  0.0101  0.8686
   79LIG     CG 1180   8.999   3.988   1.022  0.6595 -0.3742  0.4079
   79LIG    OD1 1181   8.897   4.059   1.032 -0.1436  0.6412  0.4444
   79LIG    OD2 1182   8.989   3.870   0.984  0.3177 -0.4042 -0.6057
   79LIG      C 1183   9.252   4.043   0.843  0.2290  0.5707  0.1821
   79LIG    OT1 1184   9.351   4.111   0.810  0.2203 -0.2963 -0.6069
   79LIG    OT2 1185   9.156   4.029   0.767  0.0219  0.3301 -0.3216
   80LIG      N 1186   1.708   6.087   6.264  0.7130 -0.2764 -0.4908
   80LIG     H1 1187   1.663   5.994   6.253 -1.1136  0.4041  0.7931
   80LIG     H2 1188   1.653   6.145   6.331  1.8329  0.1558  0.0659
   80LIG     H3 1189   1.711   6.135   6.172 -2.9055  0.7861 -0.1626
   80LIG     CA 1190   1.843   6.087   6.323  0.1571 -0.3241 -0.2113
   80LIG     HA 1191   1.911   6.027   6.264 -0.2258 -0.0969 -0.9017
   80LIG     CB 1192   1.897   6.233   6.332 -0.1091  0.6079  0.0066
   80LIG    HB1 1193   1.840   6.271   6.420 -2.5035 -0.8747 -0.8522
   80LIG    HB2 1194   1.867   6.286   6.239 -1.1393 -2.0917 -1.2272
   80LIG     CG 1195   2.046   6.246   6.349 -0.2319 -0.4101 -0.3085
   80LIG    OD1 1196   2.092   6.316   6.448  0.0683  0.8077 -0.1359
   80LIG    OD2 1197   2.127   6.189   6.273  0.2487 -0.2934 -0.0900
   80LIG      C 1198   1.849   6.028   6.473 -0.3421 -0.5096 -0.2828
   80LIG    OT1 1199   1.744   6.010   6.534 -0.3934  0.0347 -0.1203
   80LIG    OT2 1200   1.959   5.982   6.507 -0.1043 -0.0866  1.1310
   81LIG      N 1201   0.433   0.614   5.370 -0.1437  0.3680 -0.0005
   81LIG     H1 1202   0.400   0.598   5.467  0.2085  0.0832  0.0762
   81LIG     H2 1203   0.410   0.712   5.345 -1.7199 -0.1748 -0.7299
   81LIG     H3 1204   0.376   0.562   5.300 -1.1762 -0.3036  1.3341
   81LIG     CA 1205   0.577   0.569   5.364 -0.2301  0.2417 -0.2388
   81LIG     HA 1206   0.627   0.632   5.436 -2.5933  1.4788  0.3617
   81LIG     CB 1207   0.580   0.415   5.394 -0.3381 -0.8399 -0.1451
   81LIG    HB1 1208   0.553   0.354   5.305 -3.8944  2.4781 -1.5340
   81LIG    HB2 1209   0.510   0.380   5.473 -0.1378 -1.2313 -0.1419
   81LIG     CG 1210   0.709   0.368   5.454 -0.5408 -0.7106  0.2835
   81LIG    OD1 1211   0.749   0.251   5.426 -0.8348 -0.4654 -0.2076
   81LIG    OD2 1212   0.767   0.429   5.547  0.1583 -0.4458 -0.5435
   81LIG      C 1213   0.653   0.600   5.229 -0.1248 -0.1363  0.6763
   81LIG    OT1 1214   0.593   0.660   5.130  0.1228 -0.2478 -0.6113
   81LIG    OT2 1215   0.773   0.569   5.218 -0.0678  0.4075  0.1645
   82LIG      N 1216   0.253   3.350   8.722  0.1336 -0.5018  0.2978
   82LIG     H1 1217   0.338   3.392   8.765 -0.4749  0.2459  0.7622
   82LIG     H2 1218   0.230   3.408   8.638  1.7288 -1.5178 -0.8917
   82LIG     H3 1219   0.168   3.350   8.780  0.9158  0.0295  1.4508
   82LIG     CA 1220   0.290   3.216   8.666 -0.4879 -0.2680  0.2605
   82LIG     HA 1221   0.211   3.143   8.677 -0.3691 -0.3964  0.2651
   82LIG     CB 1222   0.341   3.243   8.516  0.2400 -0.6812 -0.8310
   82LIG    HB1 1223   0.443   3.289   8.518  0.4283 -1.1162 -0.3577
   82LIG    HB2 1224   0.259   3.291   8.459 -0.1675  0.6983  0.8945
   82LIG     CG 1225   0.362   3.107   8.444 -0.3104 -0.2492  0.8709
   82LIG    OD1 1226   0.480   3.081   8.404  0.1316 -0.3998 -0.8068
   82LIG    OD2 1227   0.264   3.028   8.434  0.4211  0.0980  0.3453
   82LIG      C 1228   0.399   3.152   8.755 -0.0550  0.3831  0.7893
   82LIG    OT1 1229   0.458   3.223   8.840  0.4455 -0.3133 -0.1849
   82LIG    OT2 1230   0.432   3.028   8.745  0.5671 -0.0351 -1.1812
   83LIG      N 1231   3.191   0.262   4.831  0.6109 -0.2101 -0.4879
   83LIG     H1 1232   3.126   0.325   4.882  2.2043  0.7038  0.4342
   83LIG     H2 1233   3.234   0.189   4.892 -0.3192 -0.1453  0.2627
   83LIG     H3 1234   3.268   0.325   4.801  0.7637 -0.8461 -1.4500
   83LIG     CA 1235   3.131   0.200   4.709  0.5404 -0.4565 -0.2154
   83LIG     HA 1236   3.043   0.150   4.746 -0.6887  0.1340 -2.2245
   83LIG     CB 1237   3.085   0.314   4.602 -0.7167 -0.2422 -1.4032
   83LIG    HB1 1238   3.174   0.343   4.543  0.7975  2.2102  1.9106
   83LIG    HB2 1239   3.039   0.404   4.649  0.1984 -0.1131 -0.7469
   83LIG     CG 1240   2.971   0.264   4.516  0.2108 -0.3512  0.5583
   83LIG    OD1 1241   2.966   0.311   4.398  0.1059 -0.0691  0.2284
   83LIG    OD2 1242   2.880   0.201   4.569 -0.1446 -0.5432 -0.0621
   83LIG      C 1243   3.225   0.094   4.645 -0.1922  0.7865  0.2660
   83LIG    OT1 1244   3.338   0.073   4.695 -0.0155 -0.2819 -0.1542
   83LIG    OT2 1245   3.176   0.022   4.554 -0.0772 -0.3581 -0.2339
   84LIG      N 1246   0.994   0.368   9.698 -0.2952 -0.0901  0.6849
   84LIG     H1 1247   0.946   0.296   9.640 -0.8709  0.4276  0.5115
   84LIG     H2 1248   1.075   0.394   9.638 -1.3787  0.2584 -0.6652
   84LIG     H3 1249   1.019   0.314   9.783  0.0237  1.1485  1.3883
   84LIG     CA 1250   0.907   0.491   9.737  0.8848  0.0507 -0.4555
   84LIG     HA 1251   0.947   0.542   9.823  3.7260  1.6833 -2.6300
   84LIG     CB 1252   0.915   0.578   9.606  0.3661 -0.2971 -1.0578
   84LIG    HB1 1253   0.859   0.548   9.514 -0.4433 -1.8971 -0.0758
   84LIG    HB2 1254   1.020   0.595   9.574  1.0445  1.4010  1.9027
   84LIG     CG 1255   0.881   0.726   9.641 -0.4990  0.8778  0.3929
   84LIG    OD1 1256   0.823   0.792   9.548 -0.0145  0.3469  0.2160
   84LIG    OD2 1257   0.922   0.770   9.750 -0.1410 -0.1251 -0.1242
   84LIG      C 1258   0.760   0.457   9.771  0.1432  0.1003  0.2557
   84LIG    OT1 1259   0.719   0.339   9.787 -0.0116  0.1030  0.1232
   84LIG    OT2 1260   0.677   0.552   9.777  0.0507 -0.7763 -0.0430
   85LIG      N 1261   8.804   9.689   5.373  0.4149  0.2765 -0.5519
   85LIG     H1 1262   8.765   9.777   5.335 -0.0631 -0.0880 -0.9142
   85LIG     H2 1263   8.830   9.708   5.472  0.6032  0.2332 -0.5926
   85LIG     H3 1264   8.896   9.671   5.327  0.6610  0.5104 -0.1581
   85LIG     CA 1265   8.713   9.573   5.325  0.2241 -0.8567 -0.0583
   85LIG     HA 1266   8.705   9.589   5.219 -0.4517 -1.2488 -0.0678
   85LIG     CB 1267   8.795   9.441   5.352 -0.3602 -0.1272 -0.0553
   85LIG    HB1 1268   8.789   9.413   5.459 -2.7217  2.1254  0.4488
   85LIG    HB2 1269   8.898   9.461   5.316 -1.0101 -1.0212 -2.5373
   85LIG     CG 1270   8.755   9.329   5.267 -0.1834  0.1193 -0.5336
   85LIG    OD1 1271   8.746   9.214   5.317 -0.3784 -0.1354 -0.1651
   85LIG    OD2 1272   8.739   9.342   5.143  0.1451 -0.2417 -0.6832
   85LIG      C 1273   8.573   9.568   5.374 -0.0355  0.3720 -0.2559
   85LIG    OT1 1274   8.536   9.651   5.461  0.3350 -0.5121  0.3734
   85LIG    OT2 1275   8.489   9.481   5.328 -0.1903 -0.2629  0.3352
   86LIG      N 1276   0.251   1.756   7.617  0.3132 -0.1560  0.4873
   86LIG     H1 1277   0.299   1.666   7.638 -1.2967 -1.1545  0.0296
   86LIG     H2 1278   0.238   1.772   7.515  0.9919  0.3976  0.4828
   86LIG     H3 1279   0.313   1.834   7.648 -0.2124  1.1623 -1.6950
   86LIG     CA 1280   0.124   1.771   7.703 -0.1230  0.1271 -0.0489
   86LIG     HA 1281   0.044   1.703   7.679 -1.6249  2.2266 -1.1586
   86LIG     CB 1282   0.182   1.739   7.847  0.3919  0.4910 -0.1760
   86LIG    HB1 1283   0.243   1.822   7.890  0.5791  0.5978 -0.6441
   86LIG    HB2 1284   0.254   1.655   7.842 -0.5466 -0.3286  0.0624
   86LIG     CG 1285   0.068   1.695   7.938  0.3758 -0.3250 -0.4514
   86LIG    OD1 1286   0.061   1.744   8.054  0.3095  0.2612 -0.2991
   86LIG    OD2 1287  -0.014   1.613   7.887 -0.4356  0.8631 -0.0930
   86LIG      C 1288   0.077   1.917   7.706 -0.4993  0.2301  0.0051
   86LIG    OT1 1289   0.149   2.004   7.654 -0.1128  0.0810  0.6049
   86LIG    OT2 1290  -0.028   1.952   7.766 -0.0826  0.4891  0.5387
   87LIG      N 1291   4.024   2.411   9.143 -0.3052  0.0918  0.3551
   87LIG     H1 1292   3.982   2.470   9.218 -1.5730 -2.0549  1.3725
   87LIG     H2 1293   4.023   2.462   9.053 -1.1931 -1.9349 -0.8082
   87LIG     H3 1294   3.964   2.328   9.123 -0.8859  0.0301  2.2005
   87LIG     CA 1295   4.155   2.361   9.175 -0.0639 -0.2783  0.1633
   87LIG     HA 1296   4.225   2.417   9.116  0.6588 -0.1911  1.0834
   87LIG     CB 1297   4.153   2.369   9.332 -0.1669  0.4704 -0.0104
   87LIG    HB1 1298   4.097   2.287   9.381  0.0520 -0.7364 -1.7208
   87LIG    HB2 1299   4.104   2.463   9.366  0.8309  0.9712  0.0958
   87LIG     CG 1300   4.299   2.369   9.381  0.2597 -0.4994  0.2061
   87LIG    OD1 1301   4.327   2.298   9.474  0.3673 -0.3102 -0.2815
   87LIG    OD2 1302   4.375   2.457   9.333 -0.0131  0.1928  0.4419
   87LIG      C 1303   4.177   2.215   9.120  0.3309 -0.5073  0.3574
   87LIG    OT1 1304   4.077   2.142   9.096 -0.3353 -0.2390 -0.1546
   87LIG    OT2 1305   4.289   2.160   9.103 -0.5832  0.2290  0.2630
   88LIG      N 1306   0.587   6.309   4.250 -0.0623 -0.0800 -0.3736
   88LIG     H1 1307   0.592   6.398   4.197  1.0843  0.3007  0.3501
   88LIG     H2 1308   0.497   6.301   4.302  0.5376 -0.2380  0.6658
   88LIG     H3 1309   0.658   6.318   4.326  1.0881 -2.2882 -1.1252
   88LIG     CA 1310   0.603   6.187   4.168  0.3220 -0.4365  0.3255
   88LIG     HA 1311   0.520   6.122   4.190 -0.3234 -0.4673 -2.0542
   88LIG     CB 1312   0.574   6.220   4.022 -0.2088  0.8457  0.0024
   88LIG    HB1 1313   0.661   6.270   3.974  0.8173 -0.3838  0.5534
   88LIG    HB2 1314   0.496   6.298   4.014 -0.4083  0.8321  1.7588
   88LIG     CG 1315   0.537   6.089   3.948 -0.1536 -0.2574  0.5088
   88LIG    OD1 1316   0.606   6.053   3.852  0.4561 -0.2086 -0.1126
   88LIG    OD2 1317   0.438   6.026   3.983 -0.1689 -0.6104  0.0168
   88LIG      C 1318   0.733   6.109   4.200  0.2880  0.1148  0.0854
   88LIG    OT1 1319   0.804   6.159   4.292  0.0798  0.6934  0.4054
   88LIG    OT2 1320   0.775   6.008   4.134 -0.2333 -0.0542 -0.2884
   89LIG      N 1321   0.624   8.483   1.781 -0.2260 -0.0205  0.3927
   89LIG     H1 1322   0.577   8.474   1.689  2.2969  1.3174 -1.1064
   89LIG     H2 1323   0.704   8.417   1.771 -0.1105  0.4003 -1.5778
   89LIG     H3 1324   0.570   8.437   1.857  0.5078 -1.3133  0.1555
   89LIG     CA 1325   0.664   8.624   1.803 -0.0610 -0.2688  0.2328
   89LIG     HA 1326   0.570   8.677   1.799  1.3584  2.5488  2.6179
   89LIG     CB 1327   0.727   8.634   1.943  1.0764  0.5157  0.6890
   89LIG    HB1 1328   0.832   8.602   1.955  1.0191  0.0869  0.0912
   89LIG    HB2 1329   0.668   8.580   2.021 -0.4428 -0.8390 -1.3134
   89LIG     CG 1330   0.727   8.777   1.995  0.1189  0.3347  0.1914
   89LIG    OD1 1331   0.826   8.819   2.061 -0.3727 -0.6678  0.7204
   89LIG    OD2 1332   0.623   8.846   1.992 -0.0835  0.1653  0.5800
   89LIG      C 1333   0.757   8.679   1.699 -0.2001 -0.5702  0.6545
   89LIG    OT1 1334   0.824   8.598   1.628  0.3964 -0.6777 -0.6232
   89LIG    OT2 1335   0.759   8.803   1.676 -0.0283  0.1958  0.2019
   90LIG      N 1336   3.372   0.714   2.214 -0.1503  0.2427  0.0906
   90LIG     H1 1337   3.306   0.794   2.226 -0.6349  0.1292 -1.5754
   90LIG     H2 1338   3.466   0.744   2.245 -0.2271 -0.4966  1.0509
   90LIG     H3 1339   3.371   0.696   2.111  0.0582  1.5047 -0.1449
   90LIG     CA 1340   3.326   0.587   2.286 -0.1654 -0.0168  0.0139
   90LIG     HA 1341   3.398   0.510   2.262 -1.3859 -0.3259 -2.8941
   90LIG     CB 1342   3.347   0.622   2.433 -0.5863  0.4136 -0.3876
   90LIG    HB1 1343   3.271   0.698   2.460 -0.0832  1.1112 -0.9165
   90LIG    HB2 1344   3.452   0.655   2.450 -0.6601  1.3003 -1.6034
   90LIG     CG 1345   3.326   0.508   2.538 -0.5205 -0.5565  0.0588
   90LIG    OD1 1346   3.259   0.541   2.642  0.5104 -0.0192  0.4056
   90LIG    OD2 1347   3.374   0.393   2.520  0.2469 -0.4261  0.3005
   90LIG      C 1348   3.175   0.554   2.252 -0.2913 -0.6644 -0.2011
   90LIG    OT1 1349   3.102   0.646   2.209 -0.8076 -0.3699  0.0199
   90LIG    OT2 1350   3.136   0.436   2.270  0.0531 -0.1254 -0.4171
   91LIG      N 1351   1.685   5.159   7.659 -0.8563  0.0269 -0.5523
   91LIG     H1 1352   1.759   5.214   7.708 -0.7564  0.1315 -0.8207
   91LIG     H2 1353   1.654   5.222   7.582 -0.9966 -1.4422 -1.7041
   91LIG     H3 1354   1.604   5.138   7.721 -0.0891 -1.3108  0.0065
   91LIG     CA 1355   1.738   5.048   7.576 -0.9252  0.3359  0.4323
   91LIG     HA 1356   1.763   4.976   7.652 -0.5813  4.2344  4.2329
   91LIG     CB 1357   1.617   4.995   7.495 -0.1297  0.1332  0.6420
   91LIG    HB1 1358   1.600   5.040   7.396 -2.9514 -2.7426 -0.2595
   91LIG    HB2 1359   1.523   4.998   7.554 -0.1960 -0.1476  0.5503
   91LIG     CG 1360   1.641   4.848   7.458  0.3206  0.4773 -0.4194
   91LIG    OD1 1361   1.588   4.812   7.350 -0.1470  0.3135 -0.5031
   91LIG    OD2 1362   1.697   4.774   7.537 -0.2155 -0.3296  0.2253
   91LIG      C 1363   1.862   5.080   7.488  0.1961  0.8779  0.0043
   91LIG    OT1 1364   1.908   5.197   7.501  0.4184 -0.1180 -0.2721
   91LIG    OT2 1365   1.906   5.002   7.400  0.1185 -0.7384 -0.4321
   92LIG      N 1366   8.229   6.918   3.997  0.3173 -0.2903 -0.3942
   92LIG     H1 1367   8.145   6.941   4.052  0.2978  1.9780 -1.3202
   92LIG     H2 1368   8.227   6.963   3.903 -1.5319 -0.7842 -0.5993
   92LIG     H3 1369   8.222   6.817   3.973 -2.2825  0.1605 -1.7243
   92LIG     CA 1370   8.349   6.943   4.064  0.2429  0.3289  0.7285
   92LIG     HA 1371   8.356   7.051   4.058 -0.6680  0.3611  0.2502
   92LIG     CB 1372   8.325   6.914   4.217 -0.4187  0.2230  0.1708
   92LIG    HB1 1373   8.341   6.807   4.244  1.3358  0.3560 -0.2449
   92LIG    HB2 1374   8.230   6.958   4.253  0.3208 -0.6655  3.3765
   92LIG     CG 1375   8.422   6.998   4.304  0.4297  0.2297 -0.7115
   92LIG    OD1 1376   8.469   6.951   4.413  0.5408  0.2036  0.2656
   92LIG    OD2 1377   8.453   7.112   4.263  0.0808 -0.5134  0.2798
   92LIG      C 1378   8.478   6.883   4.006 -0.6008  0.5506 -0.1853
   92LIG    OT1 1379   8.456   6.810   3.907 -0.1114  0.4142 -0.4319
   92LIG    OT2 1380   8.592   6.896   4.058  0.8102 -0.3982 -0.0348
   93LIG      N 1381   9.882   6.383   6.920  0.0064 -0.2502  0.1330
   93LIG     H1 1382   9.972   6.393   6.972 -1.4620  0.3505  2.6594
   93LIG     H2 1383   9.874   6.279   6.913 -1.4620 -0.1301 -0.0618
   93LIG     H3 1384   9.876   6.429   6.828 -1.4059  1.0230  0.8504
   93LIG     CA 1385   9.770   6.406   7.012 -1.0584  0.4436  0.2488
   93LIG     HA 1386   9.805   6.360   7.103  0.6186  1.1779 -0.0151
   93LIG     CB 1387   9.755   6.559   7.050 -0.1614  0.5019  0.2558
   93LIG    HB1 1388   9.725   6.605   6.953 -1.1498 -2.3292 -0.8093
   93LIG    HB2 1389   9.850   6.608   7.083  1.4069 -1.4799 -1.1697
   93LIG     CG 1390   9.661   6.599   7.156 -0.3281  0.3175  0.6288
   93LIG    OD1 1391   9.579   6.691   7.135  0.0037 -0.0100  0.0814
   93LIG    OD2 1392   9.676   6.550   7.272  0.1533 -0.6591  0.4826
   93LIG      C 1393   9.644   6.333   6.970  0.0385  0.7700 -0.1679
   93LIG    OT1 1394   9.634   6.275   6.859 -0.2964  0.2871 -0.8635
   93LIG    OT2 1395   9.538   6.328   7.042 -0.5570 -0.1157 -0.4051
   94LIG      N 1396   1.726   1.172   8.234  0.0145  0.0239  0.2047
   94LIG     H1 1397   1.826   1.169   8.262 -0.0045  2.7436  0.7257
   94LIG     H2 1398   1.702   1.250   8.170 -1.9250 -1.1608 -0.5431
   94LIG     H3 1399   1.679   1.180   8.327  2.4935  1.1568  1.4376
   94LIG     CA 1400   1.706   1.046   8.160  1.2365  0.4647 -0.6207
   94LIG     HA 1401   1.806   1.010   8.141  1.8144  2.0364 -0.6181
   94LIG     CB 1402   1.619   0.949   8.239 -0.2608 -0.4620  0.2535
   94LIG    HB1 1403   1.512   0.972   8.219  0.2641 -0.0215 -2.3386
   94LIG    HB2 1404   1.641   0.955   8.347  0.5115  1.0295  0.0279
   94LIG     CG 1405   1.648   0.807   8.199  0.3898 -0.4339 -0.1002
   94LIG    OD1 1406   1.549   0.726   8.208  0.5524  0.3894 -0.5799
   94LIG    OD2 1407   1.767   0.769   8.188 -0.2953  0.0382  0.4194
   94LIG      C 1408   1.645   1.072   8.017  0.2885  0.4020  0.7307
   94LIG    OT1 1409   1.602   1.186   7.978  0.7569  0.2428  0.1336
   94LIG    OT2 1410   1.636   0.973   7.942  0.1063 -0.0264  0.9290
   95LIG      N 1411   2.599   8.915   3.929  0.0049 -0.4493 -0.1111
   95LIG     H1 1412   2.662   8.921   3.846 -0.2422 -3.6014 -0.5911
   95LIG     H2 1413   2.503   8.917   3.888 -0.2477 -2.5254  0.3195
   95LIG     H3 1414   2.613   8.999   3.988  2.0723 -1.6797  1.1973
   95LIG     CA 1415   2.625   8.783   3.997  0.3137  0.0464 -0.2142
   95LIG     HA 1416   2.547   8.769   4.070  1.4647  2.5083  1.5397
   95LIG     CB 1417   2.599   8.665   3.903  0.1967  1.1530  0.1534
   95LIG    HB1 1418   2.676   8.658   3.823  1.1680  1.3601  1.0707
   95LIG    HB2 1419   2.497   8.656   3.860 -0.7298 -0.1112  2.5169
   95LIG     CG 1420   2.607   8.529   3.978  0.4477 -0.0046  0.3316
   95LIG    OD1 1421   2.655   8.434   3.917  0.5230 -0.0000  0.1228
   95LIG    OD2 1422   2.538   8.512   4.087 -0.4656  0.2688 -0.1304
   95LIG      C 1423   2.771   8.775   4.059 -0.4632  0.5986  0.4433
   95LIG    OT1 1424   2.850   8.867   4.026 -0.0511  0.1381  0.4332
   95LIG    OT2 1425   2.801   8.677   4.133  0.5801  0.3747  0.0654
   96LIG      N 1426   5.423   9.970   6.675 -0.4523 -0.8093 -0.0375
   96LIG     H1 1427   5.347   9.974   6.746  0.6971  2.0084  1.1201
   96LIG     H2 1428   5.389   9.965   6.577  3.5619 -0.2961 -1.5378
   96LIG     H3 1429   5.475   9.882   6.693  0.1803 -0.0881  1.8464
   96LIG     CA 1430   5.505  10.094   6.685  0.1168 -0.0302 -0.6374
   96LIG     HA 1431   5.446  10.180   6.657 -0.7585 -0.4418 -0.0763
   96LIG     CB 1432   5.555  10.112   6.834 -0.2174  0.2246  0.2167
   96LIG    HB1 1433   5.627  10.031   6.854  0.0783  0.8547  1.8078
   96LIG    HB2 1434   5.465  10.096   6.898 -1.3864 -1.4677 -1.7866
   96LIG     CG 1435   5.607  10.250   6.870 -0.4681  0.4873  0.1756
   96LIG    OD1 1436   5.711  10.265   6.944 -0.5400  0.1213 -0.0026
   96LIG    OD2 1437   5.537  10.343   6.826  0.1153  0.0002 -0.1689
   96LIG      C 1438   5.625  10.088   6.587  0.0161 -0.4490 -0.1648
   96LIG    OT1 1439   5.657   9.982   6.531  0.8196 -0.3831  0.0899
   96LIG    OT2 1440   5.694  10.195   6.565 -0.8511  0.2269 -0.6017
   97LIG      N 1441   1.499   2.320   5.215 -0.8599  0.5487  0.0449
   97LIG     H1 1442   1.491   2.387   5.136 -1.3422  0.7544  0.2708
   97LIG     H2 1443   1.598   2.292   5.236 -1.0266  1.3102  1.9674
   97LIG     H3 1444   1.449   2.236   5.180  0.1415 -0.8179  1.8085
   97LIG     CA 1445   1.427   2.373   5.332  0.2636  0.0798  0.0667
   97LIG     HA 1446   1.429   2.293   5.405 -1.1553  0.1159  0.1473
   97LIG     CB 1447   1.500   2.495   5.396  0.8318 -0.1222  0.0462
   97LIG    HB1 1448   1.479   2.586   5.336 -0.9296 -1.4907 -1.4715
   97LIG    HB2 1449   1.607   2.465   5.405  0.9290 -0.1027 -0.9498
   97LIG     CG 1450   1.441   2.518   5.534  0.1601 -0.0827  0.0960
   97LIG    OD1 1451   1.406   2.639   5.564  0.6525 -0.5468  0.4802
   97LIG    OD2 1452   1.453   2.432   5.621  0.0178 -0.4568 -0.4251
   97LIG      C 1453   1.278   2.403   5.305 -0.3503 -0.2806  1.1607
   97LIG    OT1 1454   1.237   2.419   5.184  0.5194  0.5039 -0.1346
   97LIG    OT2 1455   1.202   2.402   5.403 -0.0226 -0.3536  0.0361
   98LIG      N 1456   8.175   9.225   2.432 -0.1883  0.4556 -0.1502
   98LIG     H1 1457   8.175   9.326   2.457 -0.1093  0.2132  0.8860
   98LIG     H2 1458   8.267   9.186   2.463  0.8954  3.0396  0.0091
   98LIG     H3 1459   8.147   9.224   2.332  0.4314  1.8740 -0.3558
   98LIG     CA 1460   8.057   9.178   2.513  0.3826  0.3429  0.2094
   98LIG     HA 1461   7.968   9.228   2.479  2.1290  3.7871  0.5454
   98LIG     CB 1462   8.054   9.033   2.499  0.1521 -0.2052 -0.0961
   98LIG    HB1 1463   8.143   8.988   2.548  1.1621  1.3046 -0.4868
   98LIG    HB2 1464   8.052   8.998   2.393 -0.6787 -1.7574  0.4215
   98LIG     CG 1465   7.927   8.973   2.555  0.2930  0.4722 -0.0860
   98LIG    OD1 1466   7.931   8.858   2.606 -0.0242 -0.2531  0.1610
   98LIG    OD2 1467   7.816   9.023   2.535  0.1957 -0.1541  0.2731
   98LIG      C 1468   8.067   9.215   2.662 -0.2888  0.0807  0.2982
   98LIG    OT1 1469   8.166   9.279   2.707  0.1719 -0.6217 -0.1429
   98LIG    OT2 1470   7.970   9.180   2.742 -0.5184 -0.0943 -0.3894
   99LIG      N 1471   4.085   0.379   3.840  0.1780 -0.2299  0.6820
   99LIG     H1 1472   4.016   0.328   3.781 -1.1578  0.9291  1.2068
   99LIG     H2 1473   4.181   0.369   3.802  0.2910  0.5549  0.7404
   99LIG     H3 1474   4.068   0.365   3.942  2.2743  1.5555  1.3170
   99LIG     CA 1475   4.071   0.527   3.830  0.4148  0.4081 -0.4549
   99LIG     HA 1476   3.968   0.558   3.835 -0.2374 -2.0064  2.0923
   99LIG     CB 1477   4.171   0.572   3.935  0.2028  0.4222  0.5432
   99LIG    HB1 1478   4.274   0.559   3.896  0.3010  0.5075  0.7722
   99LIG    HB2 1479   4.168   0.516   4.031  2.2795 -1.6559 -0.5584
   99LIG     CG 1480   4.154   0.717   3.970 -0.5208  0.0991  0.2825
   99LIG    OD1 1481   4.255   0.784   3.996  0.2182  0.1497 -0.0506
   99LIG    OD2 1482   4.037   0.760   3.976  0.3865  0.2665 -0.1972
   99LIG      C 1483   4.115   0.580   3.690  0.1377 -0.2818  0.0802
   99LIG    OT1 1484   4.153   0.493   3.611 -0.0699  0.6545 -0.2644
   99LIG    OT2 1485   4.104   0.700   3.662  0.0768 -0.1109 -0.1168
  100LIG      N 1486   3.581   9.173   8.894 -0.5334 -0.4473  0.2260
  100LIG     H1 1487   3.618   9.158   8.990  2.5012 -1.0109 -0.9945
  100LIG     H2 1488   3.568   9.078   8.853  0.9156 -0.5090 -0.0889
  100LIG     H3 1489   3.658   9.221   8.844 -0.3577 -2.9635 -2.0172
  100LIG     CA 1490   3.468   9.262   8.868  0.3844 -0.7933  0.3089
  100LIG     HA 1491   3.383   9.200   8.894  0.5005 -0.8711  0.5056
  100LIG     CB 1492   3.508   9.391   8.948 -0.3981  0.6003  0.2730
  100LIG    HB1 1493   3.569   9.457   8.883  2.0439 -0.9488  0.9093
  100LIG    HB2 1494   3.565   9.370   9.042  2.9494  0.3442 -1.7475
  100LIG     CG 1495   3.382   9.463   8.990  0.1633  0.0219  0.5148
  100LIG    OD1 1496   3.372   9.585   8.951  0.6096  0.3053  0.2215
  100LIG    OD2 1497   3.291   9.401   9.050 -0.0519 -0.4004  0.2477
  100LIG      C 1498   3.456   9.306   8.718  0.3541  0.5448 -0.2137
  100LIG    OT1 1499   3.541   9.273   8.630 -0.6108  0.1799  0.5554
  100LIG    OT2 1500   3.360   9.382   8.693  0.5095 -1.1497 -0.1471
  101LIG      N 1501   4.819   8.234   1.619 -0.5400 -0.3577  0.4142
  101LIG     H1 1502   4.885   8.285   1.680 -1.6568  0.6091  0.8388
  101LIG     H2 1503   4.724   8.276   1.616 -0.3631  0.0273  0.1667
  101LIG     H3 1504   4.812   8.139   1.661  0.0364  0.5494  2.6115
  101LIG     CA 1505   4.876   8.206   1.479  0.3906 -0.5984 -0.5252
  101LIG     HA 1506   4.826   8.123   1.432  0.3525 -1.1897  0.5572
  101LIG     CB 1507   4.866   8.333   1.389 -0.0637  0.3099 -0.6910
  101LIG    HB1 1508   4.943   8.406   1.420 -0.5414  0.7215 -0.4671
  101LIG    HB2 1509   4.770   8.387   1.399 -0.9301 -1.5953  1.7930
  101LIG     CG 1510   4.886   8.301   1.236 -0.1832  0.4690 -1.1477
  101LIG    OD1 1511   4.939   8.388   1.164  0.0002  0.1226 -0.3727
  101LIG    OD2 1512   4.825   8.206   1.189  0.5205 -0.4243  0.7155
  101LIG      C 1513   5.028   8.166   1.497 -0.8196  0.3921  0.9404
  101LIG    OT1 1514   5.074   8.133   1.609  0.3228  0.3855 -0.6566
  101LIG    OT2 1515   5.094   8.148   1.389  0.1413  0.8789 -0.1957
  102LIG      N 1516   1.826   7.841   0.957  0.1447 -0.4126 -0.1466
  102LIG     H1 1517   1.848   7.882   0.863 -2.3709 -1.2831 -1.1637
  102LIG     H2 1518   1.783   7.749   0.937 -2.0677  0.3456  1.0349
  102LIG     H3 1519   1.767   7.907   1.011  1.8801 -0.1686  1.4938
  102LIG     CA 1520   1.948   7.823   1.018  0.3098  0.8545  0.1429
  102LIG     HA 1521   1.990   7.739   0.965  1.2165  1.0922  0.4733
  102LIG     CB 1522   2.027   7.954   0.993  0.2321  0.0326 -0.1565
  102LIG    HB1 1523   2.008   8.041   1.060 -1.5941 -0.5230  0.0649
  102LIG    HB2 1524   2.020   7.994   0.890 -1.8370 -1.5702 -0.6670
  102LIG     CG 1525   2.175   7.920   1.002  0.2848  0.5443 -0.2549
  102LIG    OD1 1526   2.246   7.996   1.070 -0.0325  0.4262 -0.5851
  102LIG    OD2 1527   2.219   7.829   0.932 -0.2810 -0.2845  0.2138
  102LIG      C 1528   1.932   7.786   1.171  0.1828 -0.6688 -0.4092
  102LIG    OT1 1529   1.823   7.776   1.222 -0.0706  0.7528 -0.2207
  102LIG    OT2 1530   2.036   7.755   1.231  0.3301 -0.2432  0.1825
  103LIG      N 1531   7.004   9.712   9.880  0.0671 -0.0170 -0.6102
  103LIG     H1 1532   7.088   9.682   9.934 -0.1029  0.1339 -0.2607
  103LIG     H2 1533   7.031   9.763   9.793  1.0750 -1.2792 -1.0408
  103LIG     H3 1534   6.959   9.785   9.939  2.0470 -0.4836  1.5164
  103LIG     CA 1535   6.911   9.598   9.857  0.0650  0.4489  0.2918
  103LIG     HA 1536   6.807   9.619   9.880 -0.3240  0.0277 -1.0144
  103LIG     CB 1537   6.928   9.553   9.711  0.3580 -0.2892  0.5961
  103LIG    HB1 1538   7.027   9.506   9.693 -0.5498 -1.3185 -1.8538
  103LIG    HB2 1539   6.904   9.635   9.640 -0.5050 -1.1524 -0.1136
  103LIG     CG 1540   6.818   9.451   9.682 -0.3536 -0.8254 -0.2815
  103LIG    OD1 1541   6.861   9.341   9.637 -0.1366 -0.0681 -1.2508
  103LIG    OD2 1542   6.701   9.476   9.703  0.0805 -0.2848 -0.5558
  103LIG      C 1543   6.950   9.477   9.951  0.0738 -1.2780 -0.6919
  103LIG    OT1 1544   7.045   9.495  10.035 -0.0824  0.3005  0.2668
  103LIG    OT2 1545   6.884   9.372   9.957 -0.1189  0.6573  0.4700
  104LIG      N 1546   9.337   3.412   3.666  0.4440  0.1929 -0.2969
  104LIG     H1 1547   9.269   3.490   3.655 -0.1786 -0.3930 -0.6421
  104LIG     H2 1548   9.327   3.387   3.766 -1.6553 -2.1169 -1.0162
  104LIG     H3 1549   9.432   3.444   3.640  0.5131  0.2787  0.0652
  104LIG     CA 1550   9.300   3.290   3.581  0.5817 -0.5103  0.4687
  104LIG     HA 1551   9.349   3.281   3.485  0.5027 -2.6369  0.5851
  104LIG     CB 1552   9.328   3.161   3.667  0.2546  0.8649 -0.5561
  104LIG    HB1 1553   9.251   3.148   3.746  0.1298 -0.8082 -0.9470
  104LIG    HB2 1554   9.429   3.169   3.714 -0.4293  0.6617  0.9491
  104LIG     CG 1555   9.346   3.050   3.568  0.3477 -0.8331 -0.2915
  104LIG    OD1 1556   9.301   2.936   3.594  0.2674  0.1838  0.0782
  104LIG    OD2 1557   9.401   3.067   3.453  0.2642  0.4761 -0.5802
  104LIG      C 1558   9.149   3.287   3.542  0.2796  0.3014  0.3600
  104LIG    OT1 1559   9.070   3.370   3.588  0.6662 -0.0098 -0.3500
  104LIG    OT2 1560   9.112   3.216   3.448 -0.2022 -0.3094  0.6939
  105LIG      N 1561   6.378   0.589   5.353  0.2586 -0.1045  0.1709
  105LIG     H1 1562   6.322   0.675   5.338 -0.7737 -0.3441  2.4196
  105LIG     H2 1563   6.372   0.523   5.273 -1.8979  1.7587 -1.2554
  105LIG     H3 1564   6.325   0.546   5.432  1.4168 -1.0126  0.4666
  105LIG     CA 1565   6.518   0.610   5.399 -0.2004 -0.1709  0.1563
  105LIG     HA 1566   6.551   0.674   5.318  0.0788 -1.5350 -0.8145
  105LIG     CB 1567   6.520   0.668   5.542  0.1366 -0.4834  0.0512
  105LIG    HB1 1568   6.494   0.583   5.609 -0.6001 -0.1209  0.2345
  105LIG    HB2 1569   6.445   0.747   5.565 -0.1802 -0.5651 -0.7085
  105LIG     CG 1570   6.650   0.731   5.576 -1.1375  0.0708  0.1129
  105LIG    OD1 1571   6.715   0.693   5.674  0.8720 -0.3262 -0.6013
  105LIG    OD2 1572   6.688   0.828   5.504  0.3489 -0.5691  0.0635
  105LIG      C 1573   6.597   0.480   5.383 -0.2197  0.3790 -0.3519
  105LIG    OT1 1574   6.537   0.373   5.363  0.0445 -0.0096 -0.1559
  105LIG    OT2 1575   6.727   0.489   5.372  0.4489  0.1588  0.6471
  106LIG      N 1576   5.358   9.841   4.522 -0.1602  0.2366 -0.3098
  106LIG     H1 1577   5.425   9.777   4.569  1.4473  2.6554  0.7799
  106LIG     H2 1578   5.335   9.909   4.597 -1.0249 -2.5027  2.0240
  106LIG     H3 1579   5.266   9.797   4.500  0.1610 -1.6543  1.8310
  106LIG     CA 1580   5.414   9.902   4.405  0.4453  0.3910  0.3666
  106LIG     HA 1581   5.467   9.826   4.350 -0.3108 -1.1547  1.7532
  106LIG     CB 1582   5.295   9.967   4.327  0.2404  0.5634  0.0795
  106LIG    HB1 1583   5.258  10.057   4.381 -1.6216 -0.6032  0.8022
  106LIG    HB2 1584   5.218   9.889   4.312  2.8528 -1.7913 -1.4127
  106LIG     CG 1585   5.343  10.006   4.191 -0.3940 -0.2259 -0.5520
  106LIG    OD1 1586   5.311  10.127   4.155 -0.6621 -0.1512  0.4418
  106LIG    OD2 1587   5.395   9.926   4.120 -0.1734 -0.2198 -0.1245
  106LIG      C 1588   5.526  10.004   4.437  0.2229  0.3174  0.9870
  106LIG    OT1 1589   5.550  10.039   4.556  0.1562 -0.5277 -0.7009
  106LIG    OT2 1590   5.594  10.050   4.341 -0.7934  0.6120  0.4804
  107LIG      N 1591   8.434   3.011   2.025 -0.8854  0.8661 -0.2306
  107LIG     H1 1592   8.506   2.937   2.039  0.1312  1.5956 -1.5133
  107LIG     H2 1593   8.489   3.086   1.979  1.8522 -0.8250  0.1384
  107LIG     H3 1594   8.400   3.036   2.120 -0.0580 -1.0572  0.6176
  107LIG     CA 1595   8.316   2.947   1.954 -0.1340 -0.2791  0.4066
  107LIG     HA 1596   8.228   3.007   1.970 -1.0688 -2.0200  1.9106
  107LIG     CB 1597   8.362   2.942   1.806 -0.4596 -0.0936 -0.2745
  107LIG    HB1 1598   8.442   2.866   1.796  1.2158  1.6968 -0.7255
  107LIG    HB2 1599   8.406   3.041   1.783  1.0164 -0.7588 -0.3536
  107LIG     CG 1600   8.253   2.904   1.710 -0.2915 -0.4616  0.2635
  107LIG    OD1 1601   8.257   2.798   1.644 -0.0767  0.0756 -0.1039
  107LIG    OD2 1602   8.156   2.986   1.698  0.1161 -0.4880 -0.5222
  107LIG      C 1603   8.271   2.809   2.005 -0.8220 -0.1859  0.2832
  107LIG    OT1 1604   8.343   2.758   2.094  0.7660  0.4512  0.0445
  107LIG    OT2 1605   8.171   2.756   1.949  0.2860 -0.0179  0.0030
  108LIG      N 1606   6.070   1.126   0.046 -0.6874  0.5448  0.1291
  108LIG     H1 1607   6.119   1.177   0.122 -0.2610  1.3453 -0.6700
  108LIG     H2 1608   5.968   1.147   0.047 -0.7376  0.2967  0.3233
  108LIG     H3 1609   6.084   1.023   0.053 -1.0360  0.5185  0.4385
  108LIG     CA 1610   6.101   1.166  -0.096 -0.9051  0.2809  0.1609
  108LIG     HA 1611   6.200   1.131  -0.119 -1.8097 -0.7017 -2.4070
  108LIG     CB 1612   6.002   1.096  -0.198 -0.5161 -0.6319  0.1281
  108LIG    HB1 1613   5.906   1.149  -0.216  0.5222  0.7807 -1.3512
  108LIG    HB2 1614   5.980   0.988  -0.182 -2.5164 -0.1944  0.5436
  108LIG     CG 1615   6.060   1.102  -0.339 -0.4224 -0.3551 -0.7397
  108LIG    OD1 1616   5.978   1.088  -0.428  0.2703 -0.2981 -0.3537
  108LIG    OD2 1617   6.185   1.081  -0.352  0.4948 -0.0483 -0.7438
  108LIG      C 1618   6.114   1.317  -0.122 -0.2523  0.5305 -0.6313
  108LIG    OT1 1619   6.064   1.396  -0.040  0.3452 -0.2267 -0.6598
  108LIG    OT2 1620   6.171   1.359  -0.227 -0.4430 -0.0165  0.5523
  109LIG      N 1621   4.060   6.559   0.266 -0.4297  0.1923  0.1566
  109LIG     H1 1622   4.044   6.585   0.166 -2.1239  1.2735  0.6943
  109LIG     H2 1623   4.152   6.515   0.288 -1.5087 -1.1827  2.0027
  109LIG     H3 1624   3.977   6.501   0.289  0.3105 -0.8239  0.2745
  109LIG     CA 1625   4.071   6.694   0.323  0.5543 -0.8988  0.5202
  109LIG     HA 1626   3.985   6.754   0.298  0.1409 -1.3842  0.7556
  109LIG     CB 1627   4.103   6.690   0.473  0.0297 -0.2331 -0.5586
  109LIG    HB1 1628   4.201   6.645   0.497 -0.7211 -0.3009  2.4981
  109LIG    HB2 1629   4.021   6.625   0.510 -0.7392  0.5156 -0.9161
  109LIG     CG 1630   4.082   6.826   0.544 -0.3623  0.2868 -0.4411
  109LIG    OD1 1631   4.162   6.848   0.639  0.2363 -0.0482  0.0594
  109LIG    OD2 1632   3.977   6.891   0.514 -0.0026 -0.0408  0.5062
  109LIG      C 1633   4.193   6.767   0.241  0.0110  0.5734  0.0224
  109LIG    OT1 1634   4.265   6.700   0.166 -0.1984  0.4747  0.4822
  109LIG    OT2 1635   4.231   6.880   0.272  0.0282 -0.2220 -0.2622
  110LIG      N 1636   9.926   0.158   2.048  0.7143 -0.1983  0.0340
  110LIG     H1 1637   9.907   0.201   2.140 -0.6933  0.8839 -0.7354
  110LIG     H2 1638   9.884   0.065   2.031 -0.6166  0.5069 -0.6379
  110LIG     H3 1639  10.029   0.166   2.031  0.6315 -1.1900 -1.0115
  110LIG     CA 1640   9.856   0.265   1.958 -0.3712  0.0943  1.1444
  110LIG     HA 1641   9.928   0.338   1.925 -0.8771  0.1374  0.1314
  110LIG     CB 1642   9.788   0.190   1.841  0.1746 -0.3006  0.2851
  110LIG    HB1 1643   9.721   0.112   1.884  0.2804 -0.0779  0.8507
  110LIG    HB2 1644   9.863   0.122   1.794  1.6917  0.1391  2.0363
  110LIG     CG 1645   9.728   0.268   1.727 -0.3688 -0.1506  0.4329
  110LIG    OD1 1646   9.629   0.224   1.666 -0.6318  0.4645 -0.2179
  110LIG    OD2 1647   9.770   0.382   1.694 -0.0170  0.1358 -0.0641
  110LIG      C 1648   9.752   0.336   2.048 -0.0864  0.4992  0.3981
  110LIG    OT1 1649   9.739   0.302   2.167 -0.1547 -0.5651 -0.0908
  110LIG    OT2 1650   9.671   0.424   2.009 -0.2486  0.3237  0.4137
  111LIG      N 1651   2.456   9.476   3.263 -0.8868 -0.4610  0.3931
  111LIG     H1 1652   2.365   9.492   3.216 -0.1784 -0.1430 -0.8726
  111LIG     H2 1653   2.529   9.529   3.211 -2.2807 -0.7810 -1.9474
  111LIG     H3 1654   2.480   9.375   3.272  1.7922  0.0718 -0.1861
  111LIG     CA 1655   2.421   9.527   3.400  0.3447  0.3623 -0.4764
  111LIG     HA 1656   2.506   9.504   3.463  0.4092  1.2321 -0.2333
  111LIG     CB 1657   2.398   9.682   3.400  0.1148  0.0761  0.1541
  111LIG    HB1 1658   2.296   9.710   3.365  0.5291 -0.3746 -1.4408
  111LIG    HB2 1659   2.470   9.738   3.336  1.4153 -1.7399  0.0050
  111LIG     CG 1660   2.408   9.741   3.540 -0.0944  0.5544  0.5002
  111LIG    OD1 1661   2.334   9.840   3.565  0.1434  0.3731  0.0233
  111LIG    OD2 1662   2.496   9.706   3.618  0.2676  0.0880  0.0162
  111LIG      C 1663   2.307   9.450   3.470 -0.0075  0.2337 -0.1182
  111LIG    OT1 1664   2.248   9.365   3.396 -0.5811  0.4565 -0.4390
  111LIG    OT2 1665   2.273   9.467   3.592  0.5820 -0.1844  0.4685
  112LIG      N 1666   2.287   7.863   7.997  0.9019  0.3837 -0.2408
  112LIG     H1 1667   2.367   7.886   8.058  2.1645 -1.5690 -1.0972
  112LIG     H2 1668   2.196   7.904   8.025  0.8567  0.2216 -0.1474
  112LIG     H3 1669   2.284   7.759   8.000 -1.5548  0.3628 -1.8471
  112LIG     CA 1670   2.319   7.894   7.858 -0.0066 -0.0473  0.1822
  112LIG     HA 1671   2.290   7.998   7.855  0.2694 -0.0183 -2.0634
  112LIG     CB 1672   2.472   7.863   7.841 -0.7646 -0.5797 -0.1556
  112LIG    HB1 1673   2.498   7.755   7.843  0.7209 -0.2421 -0.2996
  112LIG    HB2 1674   2.533   7.903   7.924  0.3926 -0.7058 -0.9248
  112LIG     CG 1675   2.518   7.930   7.715  0.5371 -0.0452  0.1992
  112LIG    OD1 1676   2.551   7.865   7.617 -0.1125  0.3245  0.4291
  112LIG    OD2 1677   2.533   8.056   7.722  0.1915 -0.2384  0.4767
  112LIG      C 1678   2.223   7.813   7.759 -0.0041  0.3747  0.4050
  112LIG    OT1 1679   2.133   7.739   7.805 -0.0478 -0.3588 -1.4207
  112LIG    OT2 1680   2.240   7.824   7.636 -1.1432  0.2729 -0.0901
  113LIG      N 1681   8.509   0.797   1.560 -0.2781 -0.2172 -0.4105
  113LIG     H1 1682   8.605   0.801   1.519 -0.8568 -1.9591 -2.0210
  113LIG     H2 1683   8.450   0.878   1.531  2.0370  1.2267 -1.2555
  113LIG     H3 1684   8.528   0.809   1.661  2.0190 -0.1893 -0.8127
  113LIG     CA 1685   8.451   0.664   1.535  0.3562  1.1078 -0.5782
  113LIG     HA 1686   8.362   0.665   1.597  0.0946  0.6779 -0.9378
  113LIG     CB 1687   8.419   0.662   1.376 -0.0987  0.7957 -0.0327
  113LIG    HB1 1688   8.518   0.651   1.327  0.2012  1.2397  0.4723
  113LIG    HB2 1689   8.383   0.761   1.340  1.6814  1.7280  0.7436
  113LIG     CG 1690   8.322   0.554   1.328 -0.1829 -0.2610 -0.0214
  113LIG    OD1 1691   8.343   0.515   1.207  0.4040  0.3512  0.5266
  113LIG    OD2 1692   8.219   0.516   1.392 -0.1275 -0.1809  0.0623
  113LIG      C 1693   8.555   0.558   1.591 -1.0207  0.0558  0.5680
  113LIG    OT1 1694   8.664   0.599   1.636  0.1793  0.2318 -0.0366
  113LIG    OT2 1695   8.529   0.435   1.578  0.5472  0.0327  0.5668
  114LIG      N 1696   0.245   8.781   3.930 -0.4248 -0.7738 -0.2335
  114LIG     H1 1697   0.233   8.801   3.828 -0.1839 -0.3908 -0.1913
  114LIG     H2 1698   0.154   8.785   3.980 -0.0139  1.5391  0.3800
  114LIG     H3 1699   0.300   8.853   3.981  1.1795 -1.1766 -1.3530
  114LIG     CA 1700   0.312   8.650   3.957 -0.2310 -0.0489  0.0149
  114LIG     HA 1701   0.414   8.658   3.922 -0.2333  0.4002  0.1049
  114LIG     CB 1702   0.322   8.632   4.112  0.3140 -0.2289  0.4444
  114LIG    HB1 1703   0.221   8.595   4.140  0.4526 -0.6291  0.4183
  114LIG    HB2 1704   0.354   8.729   4.156  3.4947 -0.0419 -2.1204
  114LIG     CG 1705   0.419   8.525   4.164  0.7605 -0.3600  0.0800
  114LIG    OD1 1706   0.399   8.461   4.267  0.1166  0.3774 -0.2981
  114LIG    OD2 1707   0.538   8.539   4.117  0.7220  0.3712 -0.1793
  114LIG      C 1708   0.249   8.532   3.880 -0.2874  0.1616 -0.3323
  114LIG    OT1 1709   0.142   8.550   3.813 -0.0812 -0.1567 -0.0046
  114LIG    OT2 1710   0.296   8.419   3.882  0.2493 -0.1833 -0.4017
  115LIG      N 1711   8.576   3.700   3.228  0.0406  0.2505  0.0885
  115LIG     H1 1712   8.492   3.762   3.229  1.0351  1.6126  2.3116
  115LIG     H2 1713   8.598   3.663   3.323 -2.5488 -3.6635 -0.6963
  115LIG     H3 1714   8.659   3.750   3.192 -0.6136  2.8269  1.9978
  115LIG     CA 1715   8.538   3.576   3.150  0.4358  0.5158 -0.4495
  115LIG     HA 1716   8.492   3.611   3.059 -0.9486 -0.1459 -0.0115
  115LIG     CB 1717   8.661   3.496   3.122 -0.3101  0.1059 -0.1804
  115LIG    HB1 1718   8.704   3.443   3.209 -2.8833 -1.2685  0.3211
  115LIG    HB2 1719   8.747   3.556   3.087 -1.6839  1.8258 -0.6849
  115LIG     CG 1720   8.638   3.397   3.012 -0.5478  0.1618 -0.0495
  115LIG    OD1 1721   8.682   3.282   3.026 -0.4231  0.6956 -0.0071
  115LIG    OD2 1722   8.572   3.426   2.913  0.3181  0.1754 -0.0690
  115LIG      C 1723   8.429   3.491   3.227 -0.2477  0.3762 -0.4012
  115LIG    OT1 1724   8.386   3.538   3.334  0.2614 -0.4190  0.3613
  115LIG    OT2 1725   8.387   3.374   3.189 -0.2829  0.3244 -0.5395
  116LIG      N 1726   2.185   0.643   1.240 -0.4114 -0.7290  0.0121
  116LIG     H1 1727   2.256   0.622   1.167  0.3202  1.6020  0.0395
  116LIG     H2 1728   2.153   0.560   1.295  2.4843 -1.9690 -0.0970
  116LIG     H3 1729   2.103   0.686   1.192 -1.6268 -0.5922  2.1353
  116LIG     CA 1730   2.252   0.731   1.334  0.0823 -0.3627  0.4205
  116LIG     HA 1731   2.341   0.675   1.359 -1.5846 -2.6796  1.3590
  116LIG     CB 1732   2.293   0.856   1.269  0.8430 -0.0514  0.8348
  116LIG    HB1 1733   2.204   0.922   1.279  0.1351 -0.7597 -0.7707
  116LIG    HB2 1734   2.314   0.839   1.162  0.7339 -3.1285  1.2722
  116LIG     CG 1735   2.413   0.935   1.321  0.4494  0.0872 -0.1062
  116LIG    OD1 1736   2.421   1.058   1.294  0.2769  0.1166  0.0057
  116LIG    OD2 1737   2.502   0.875   1.381  0.4456  0.1168  0.1050
  116LIG      C 1738   2.183   0.758   1.467 -0.0954 -0.1740  0.1915
  116LIG    OT1 1739   2.064   0.719   1.474 -0.0308  0.1436 -0.0635
  116LIG    OT2 1740   2.235   0.821   1.561  0.2089  0.0450 -0.3775
  117LIG      N 1741   2.270   2.934   4.616  0.4924  0.2167 -0.1053
  117LIG     H1 1742   2.359   2.908   4.663  0.6535  1.4972  0.3234
  117LIG     H2 1743   2.205   2.852   4.614 -0.4446  0.7632  3.5366
  117LIG     H3 1744   2.289   2.979   4.524  1.9589  1.0975  0.6099
  117LIG     CA 1745   2.213   3.048   4.695 -0.1546  0.1346 -0.6980
  117LIG     HA 1746   2.107   3.024   4.698 -0.0853 -0.6640 -3.1820
  117LIG     CB 1747   2.290   3.056   4.827  0.6735  0.0169 -0.2424
  117LIG    HB1 1748   2.388   3.105   4.808 -0.3455  1.8084 -1.0037
  117LIG    HB2 1749   2.303   2.954   4.869 -0.0710  0.1243  0.2618
  117LIG     CG 1750   2.224   3.132   4.933 -0.9447 -0.2264 -0.2241
  117LIG    OD1 1751   2.283   3.228   4.991  0.0014 -1.0149  0.1380
  117LIG    OD2 1752   2.111   3.095   4.962 -0.2110  0.2149 -0.5321
  117LIG      C 1753   2.220   3.177   4.606 -0.0234 -0.6429 -0.0766
  117LIG    OT1 1754   2.283   3.180   4.495  0.1396  0.0046 -0.4312
  117LIG    OT2 1755   2.165   3.285   4.646  0.4257  0.8407  0.5468
  118LIG      N 1756   9.238   6.746   6.758 -0.3634  0.0130  0.1784
  118LIG     H1 1757   9.210   6.758   6.658 -0.1306 -0.6646  0.0311
  118LIG     H2 1758   9.255   6.644   6.766  0.7832 -0.1197 -3.0221
  118LIG     H3 1759   9.156   6.767   6.819  0.0980  1.1693  0.4090
  118LIG     CA 1760   9.350   6.835   6.798  0.1191 -0.1180  0.0377
  118LIG     HA 1761   9.436   6.772   6.814  0.3195  0.3035  0.6559
  118LIG     CB 1762   9.385   6.930   6.679  0.2126 -0.5087 -0.0727
  118LIG    HB1 1763   9.324   7.023   6.680 -0.3445 -0.8737  0.8195
  118LIG    HB2 1764   9.358   6.885   6.581 -0.5688  1.4843 -0.7909
  118LIG     CG 1765   9.533   6.969   6.684  0.1333 -0.0636 -0.8929
  118LIG    OD1 1766   9.558   7.091   6.668 -0.3761  0.5316 -0.0616
  118LIG    OD2 1767   9.621   6.883   6.684 -0.4916 -0.3773 -0.1537
  118LIG      C 1768   9.337   6.917   6.925  0.0626  0.5101  0.2780
  118LIG    OT1 1769   9.222   6.923   6.976  0.3560  1.2492 -0.4741
  118LIG    OT2 1770   9.438   6.973   6.974  0.6301  0.0409 -0.6428
  119LIG      N 1771   0.114   5.971   1.750 -0.0643 -0.4970  0.1120
  119LIG     H1 1772   0.133   5.876   1.787 -0.3626 -0.4604  0.3595
  119LIG     H2 1773   0.132   5.960   1.648 -0.3492  1.5447 -0.1938
  119LIG     H3 1774   0.179   6.044   1.786  1.6285 -1.3690 -1.0869
  119LIG     CA 1775  -0.029   5.996   1.767 -0.5755  0.4645 -0.1026
  119LIG     HA 1776  -0.052   5.986   1.872  2.9778 -0.4584  0.6861
  119LIG     CB 1777  -0.032   6.143   1.715 -0.3702  0.1712  0.0499
  119LIG    HB1 1778  -0.021   6.147   1.604 -2.1852 -0.3974 -0.1638
  119LIG    HB2 1779   0.038   6.216   1.762  0.5769 -1.9971  2.0824
  119LIG     CG 1780  -0.152   6.213   1.756  0.4460 -0.0504  0.7171
  119LIG    OD1 1781  -0.230   6.267   1.673  0.6326  0.4142  0.5041
  119LIG    OD2 1782  -0.175   6.227   1.880  0.4162  0.2403 -0.0721
  119LIG      C 1783  -0.115   5.897   1.682 -0.5815 -0.1231  0.1676
  119LIG    OT1 1784  -0.054   5.819   1.604  0.0006  0.0094  0.6733
  119LIG    OT2 1785  -0.236   5.891   1.690 -0.5465 -0.4483 -0.4734
  120LIG      N 1786   4.416   1.892   0.382 -0.1390 -0.5461 -0.4598
  120LIG     H1 1787   4.323   1.878   0.427 -2.1078 -0.1761 -4.2509
  120LIG     H2 1788   4.415   1.893   0.278  0.1625  1.1292 -0.4508
  120LIG     H3 1789   4.486   1.824   0.419  0.7048  0.4425 -0.2203
  120LIG     CA 1790   4.457   2.027   0.426 -0.4353  0.4110 -0.1040
  120LIG     HA 1791   4.545   2.055   0.371 -0.9038  0.1781 -0.9757
  120LIG     CB 1792   4.344   2.128   0.393 -0.8173  0.1086  0.5886
  120LIG    HB1 1793   4.241   2.104   0.427 -0.9403  1.6576  1.3941
  120LIG    HB2 1794   4.322   2.126   0.284 -0.4812  0.6077  0.5098
  120LIG     CG 1795   4.380   2.280   0.394 -0.7254  0.0168  0.2539
  120LIG    OD1 1796   4.299   2.363   0.434  0.0340 -0.2286  0.4929
  120LIG    OD2 1797   4.487   2.313   0.340  0.2671  0.1056 -0.4294
  120LIG      C 1798   4.483   2.047   0.585 -0.7488 -0.2065  0.0276
  120LIG    OT1 1799   4.464   1.953   0.661  0.9166  0.0262 -0.0225
  120LIG    OT2 1800   4.539   2.155   0.612 -0.2283 -0.5320 -0.4989
  121LIG      N 1801   2.121   1.338   8.412 -0.7476 -0.2459 -0.1602
  121LIG     H1 1802   2.163   1.355   8.319  2.1152 -1.6745  0.8137
  121LIG     H2 1803   2.026   1.381   8.418 -0.7114  0.2089 -2.5860
  121LIG     H3 1804   2.180   1.393   8.477 -2.1284 -0.6603  1.5072
  121LIG     CA 1805   2.122   1.193   8.442  0.0130  0.1913 -0.0569
  121LIG     HA 1806   2.222   1.159   8.421 -0.2317 -0.4856 -0.1238
  121LIG     CB 1807   2.076   1.168   8.590 -0.1597 -0.1957 -0.1884
  121LIG    HB1 1808   1.965   1.165   8.590 -0.2096  1.1105  1.0108
  121LIG    HB2 1809   2.112   1.261   8.640  3.1720 -0.8874 -1.1993
  121LIG     CG 1810   2.146   1.050   8.647  0.2493 -0.4806 -0.3786
  121LIG    OD1 1811   2.087   0.996   8.744 -0.3777  0.7036  0.3673
  121LIG    OD2 1812   2.259   1.032   8.611 -0.6436 -0.1401  0.5181
  121LIG      C 1813   2.039   1.103   8.347 -0.3983 -0.4111 -0.2209
  121LIG    OT1 1814   1.984   1.166   8.244  0.0081  0.1078 -0.4380
  121LIG    OT2 1815   2.020   0.977   8.363  0.1112  0.2537 -0.2744
  122LIG      N 1816   8.443   1.370   0.593 -0.3641  0.2385  1.0355
  122LIG     H1 1817   8.512   1.347   0.518 -0.0578  0.4401  1.2558
  122LIG     H2 1818   8.492   1.346   0.681  1.0180  1.5330  0.6563
  122LIG     H3 1819   8.365   1.303   0.586 -0.4386  0.4242 -0.0543
  122LIG     CA 1820   8.416   1.515   0.587  0.0299  0.0386 -0.2874
  122LIG     HA 1821   8.358   1.528   0.497  0.9510 -0.5426 -0.9805
  122LIG     CB 1822   8.353   1.548   0.721 -0.3765  0.6609  0.0072
  122LIG    HB1 1823   8.423   1.560   0.807  0.3700 -0.0052 -0.5014
  122LIG    HB2 1824   8.275   1.471   0.739  1.9834 -1.8640 -0.2565
  122LIG     CG 1825   8.267   1.669   0.706  0.9453  0.5701 -0.3555
  122LIG    OD1 1826   8.255   1.745   0.801  0.1323  1.0043  0.3866
  122LIG    OD2 1827   8.205   1.691   0.597 -0.0886 -0.1183 -0.1825
  122LIG      C 1828   8.551   1.598   0.565 -0.2200 -0.2670 -0.4123
  122LIG    OT1 1829   8.666   1.540   0.545  0.2644 -0.0611 -0.1563
  122LIG    OT2 1830   8.539   1.722   0.589 -0.3651 -0.8967 -0.1802
  123LIG      N 1831   9.882   6.552   1.161 -0.3846 -0.1362 -0.6798
  123LIG     H1 1832   9.851   6.455   1.183 -0.3420 -0.0381 -0.1578
  123LIG     H2 1833   9.942   6.553   1.076 -3.1547  2.0485 -2.6756
  123LIG     H3 1834   9.935   6.590   1.242 -0.4209  0.3668 -0.8944
  123LIG     CA 1835   9.755   6.624   1.150  0.2182  0.9000  0.8964
  123LIG     HA 1836   9.773   6.730   1.137 -0.1778  0.8230 -0.2734
  123LIG     CB 1837   9.685   6.572   1.022 -0.1131  0.5216  0.0351
  123LIG    HB1 1838   9.628   6.478   1.039 -1.2789  1.0381 -1.0138
  123LIG    HB2 1839   9.758   6.565   0.938 -0.8580  0.7323 -0.6296
  123LIG     CG 1840   9.576   6.669   0.982  0.6263  0.0648 -0.2082
  123LIG    OD1 1841   9.463   6.626   0.954 -0.0667 -0.1356  0.0341
  123LIG    OD2 1842   9.613   6.790   0.962 -0.1555  0.1816 -0.0067
  123LIG      C 1843   9.657   6.598   1.273 -0.4040  0.3914  0.2344
  123LIG    OT1 1844   9.664   6.496   1.342 -0.1548  0.0283 -0.0936
  123LIG    OT2 1845   9.562   6.682   1.294  0.5211 -1.2054 -0.1111
  124LIG      N 1846   4.835   0.117   1.035  0.0399  0.0131 -0.1163
  124LIG     H1 1847   4.774   0.153   0.959 -1.3717 -0.1986  0.8792
  124LIG     H2 1848   4.926   0.092   0.993  1.0137 -0.5132  2.2469
  124LIG     H3 1849   4.787   0.032   1.071 -1.7193  1.1342  0.2671
  124LIG     CA 1850   4.842   0.216   1.144  0.4721  0.6871 -0.3704
  124LIG     HA 1851   4.901   0.168   1.221 -0.4738  1.3334  0.7818
  124LIG     CB 1852   4.912   0.344   1.089 -0.0780 -0.2203 -0.1576
  124LIG    HB1 1853   4.846   0.399   1.019 -0.0110  0.5105  0.3541
  124LIG    HB2 1854   5.002   0.308   1.035 -0.7954 -1.1698 -0.7420
  124LIG     CG 1855   4.963   0.431   1.198 -0.3303 -0.6045  0.1046
  124LIG    OD1 1856   4.933   0.549   1.201  0.1038 -0.2625  0.3141
  124LIG    OD2 1857   5.045   0.385   1.281 -0.6267 -0.0769  0.5618
  124LIG      C 1858   4.703   0.256   1.208  0.3312  0.3099 -0.1640
  124LIG    OT1 1859   4.599   0.237   1.141 -0.1680  0.7064 -0.2394
  124LIG    OT2 1860   4.701   0.307   1.323 -0.1333  0.2448 -0.0965
  125LIG      N 1861   4.587   1.319   3.989 -0.0374 -0.2525  0.2212
  125LIG     H1 1862   4.646   1.330   4.074 -0.1914 -0.6125  0.3768
  125LIG     H2 1863   4.534   1.407   3.973  2.1122  1.0543  0.2445
  125LIG     H3 1864   4.524   1.242   4.021 -0.1375 -0.6433 -0.9048
  125LIG     CA 1865   4.668   1.290   3.868  0.1983 -0.2153  0.0586
  125LIG     HA 1866   4.735   1.210   3.896 -1.3607 -1.1985  1.0571
  125LIG     CB 1867   4.571   1.242   3.760 -0.2338  0.8792 -0.3403
  125LIG    HB1 1868   4.511   1.330   3.728 -0.3877  0.7996 -0.2702
  125LIG    HB2 1869   4.503   1.161   3.795  1.2759 -0.5331 -0.6197
  125LIG     CG 1870   4.633   1.176   3.638 -0.3409  0.4980  0.0724
  125LIG    OD1 1871   4.567   1.173   3.532 -0.1697 -0.3208  0.2604
  125LIG    OD2 1872   4.745   1.113   3.648 -0.2440  0.1103 -0.1821
  125LIG      C 1873   4.752   1.402   3.817 -0.2440  0.3283 -0.2902
  125LIG    OT1 1874   4.778   1.506   3.883  0.0393 -0.2484  0.4594
  125LIG    OT2 1875   4.813   1.397   3.702  0.0293 -0.2467 -0.6387
  126LIG      N 1876   1.513   9.003   4.962  0.0977 -0.1881 -0.1607
  126LIG     H1 1877   1.581   9.036   4.891  0.2138 -0.6119 -0.2454
  126LIG     H2 1878   1.429   9.065   4.953 -1.3788 -1.9427  1.1186
  126LIG     H3 1879   1.552   9.028   5.055 -0.5354  0.3020 -0.0192
  126LIG     CA 1880   1.467   8.856   4.948  0.3029  0.5736 -0.4151
  126LIG     HA 1881   1.415   8.847   4.854 -0.3366  1.4197 -0.1449
  126LIG     CB 1882   1.594   8.760   4.936 -0.4485 -0.0395 -1.1303
  126LIG    HB1 1883   1.640   8.748   5.036  0.1162  2.2572 -1.0861
  126LIG    HB2 1884   1.671   8.798   4.866  1.3213 -0.5728  0.4837
  126LIG     CG 1885   1.546   8.629   4.868  0.1313 -0.7513 -0.1785
  126LIG    OD1 1886   1.582   8.520   4.915  0.0868 -0.2040  0.2635
  126LIG    OD2 1887   1.475   8.639   4.762 -0.5822 -0.1800 -0.4026
  126LIG      C 1888   1.371   8.808   5.059 -1.0728  0.0406 -0.0690
  126LIG    OT1 1889   1.336   8.894   5.145 -0.3790 -0.0305  0.6015
  126LIG    OT2 1890   1.316   8.691   5.063 -0.0572  0.0770  0.5971
  127LIG      N 1891   5.132   1.224   1.800  0.0071  0.1416 -1.0904
  127LIG     H1 1892   5.083   1.314   1.784  2.2841  1.6093 -0.0399
  127LIG     H2 1893   5.077   1.137   1.781 -1.6730  1.3801 -2.0436
  127LIG     H3 1894   5.151   1.224   1.902 -2.0252  1.5726 -0.6820
  127LIG     CA 1895   5.260   1.230   1.720 -0.3580  1.0667 -0.2247
  127LIG     HA 1896   5.307   1.133   1.735  2.7197  2.6940  1.1352
  127LIG     CB 1897   5.218   1.252   1.572 -0.2149  0.0380  0.1061
  127LIG    HB1 1898   5.163   1.348   1.565 -1.3853 -0.6528 -0.2222
  127LIG    HB2 1899   5.147   1.171   1.544  1.1908 -1.2602  0.2306
  127LIG     CG 1900   5.335   1.242   1.474  0.7860  0.1555  0.2692
  127LIG    OD1 1901   5.340   1.334   1.392 -0.1273  0.3856  0.2951
  127LIG    OD2 1902   5.407   1.143   1.471  0.1682 -0.3800 -0.5405
  127LIG      C 1903   5.360   1.345   1.769 -0.1575 -0.1120  0.7473
  127LIG    OT1 1904   5.334   1.425   1.862  0.7316 -0.1574 -0.4878
  127LIG    OT2 1905   5.478   1.339   1.732 -0.1223 -0.0415 -0.2061
  128LIG      N 1906   8.283   8.516   2.457 -0.1419 -0.2876 -0.0072
  128LIG     H1 1907   8.357   8.552   2.520  1.3074  0.9894 -2.3666
  128LIG     H2 1908   8.318   8.513   2.359  0.7993 -0.4251  0.3343
  128LIG     H3 1909   8.201   8.580   2.462  1.0596  1.1744  1.7199
  128LIG     CA 1910   8.227   8.380   2.504 -0.1409  0.2948  0.2230
  128LIG     HA 1911   8.176   8.344   2.416  0.2733  0.0742  0.0761
  128LIG     CB 1912   8.340   8.289   2.555 -0.2816  0.2334  0.1734
  128LIG    HB1 1913   8.382   8.326   2.651  1.3559 -2.0438  0.3745
  128LIG    HB2 1914   8.417   8.290   2.476 -0.0671 -3.1224  0.2541
  128LIG     CG 1915   8.292   8.149   2.568 -0.4061  0.5817  0.1739
  128LIG    OD1 1916   8.353   8.084   2.653 -0.8851 -0.0769  0.3250
  128LIG    OD2 1917   8.214   8.094   2.487 -0.1066 -0.4299  0.6498
  128LIG      C 1918   8.117   8.402   2.614 -0.5580 -0.1535 -0.0967
  128LIG    OT1 1919   8.109   8.502   2.687  0.5321  0.0673 -0.1061
  128LIG    OT2 1920   8.029   8.311   2.624  0.8029  0.0007 -0.0342
  129LIG      N 1921   0.882   8.727   7.969  0.4321 -0.6297 -0.2026
  129LIG     H1 1922   0.947   8.646   7.979  2.2991  0.5981 -1.9213
  129LIG     H2 1923   0.784   8.708   7.939  0.3009 -2.1828  1.1572
  129LIG     H3 1924   0.931   8.780   7.893  0.5701 -1.2598 -0.5566
  129LIG     CA 1925   0.897   8.794   8.104  0.2739  0.2818 -0.5407
  129LIG     HA 1926   0.868   8.897   8.085 -0.5829 -0.2136 -1.9436
  129LIG     CB 1927   0.806   8.729   8.206 -0.0351 -0.2598 -1.3424
  129LIG    HB1 1928   0.849   8.635   8.247 -1.5316 -1.4221 -2.4132
  129LIG    HB2 1929   0.704   8.705   8.169 -1.9104  1.7774  2.1833
  129LIG     CG 1930   0.770   8.827   8.318 -0.2366 -0.0452 -0.6919
  129LIG    OD1 1931   0.786   8.792   8.442  0.1492 -0.2372 -0.0343
  129LIG    OD2 1932   0.713   8.935   8.290  0.2097  0.3677  0.4670
  129LIG      C 1933   1.043   8.797   8.156 -0.1271 -0.4344  0.8655
  129LIG    OT1 1934   1.130   8.727   8.099 -0.4866  0.0214  0.1923
  129LIG    OT2 1935   1.076   8.865   8.256 -1.0404  0.3694 -0.1762
  130LIG      N 1936   6.772   7.407   0.298  0.5034 -0.0276 -0.0077
  130LIG     H1 1937   6.837   7.357   0.235 -1.0104 -0.1182 -1.5209
  130LIG     H2 1938   6.765   7.505   0.264  1.2834 -0.4719 -1.4918
  130LIG     H3 1939   6.821   7.425   0.388 -1.7269  0.0245  1.2366
  130LIG     CA 1940   6.645   7.325   0.315  0.3991 -0.2750  0.6354
  130LIG     HA 1941   6.579   7.398   0.360  1.2508  0.5476  0.5743
  130LIG     CB 1942   6.598   7.285   0.172  0.0480  0.2143  0.1628
  130LIG    HB1 1943   6.648   7.191   0.140 -2.5415 -0.9959 -0.4908
  130LIG    HB2 1944   6.608   7.356   0.087  0.8348 -0.5234 -0.3771
  130LIG     CG 1945   6.453   7.245   0.177  1.0605  0.0377 -0.6522
  130LIG    OD1 1946   6.413   7.134   0.127  0.0742 -0.5741 -0.4937
  130LIG    OD2 1947   6.374   7.327   0.230  0.8646 -0.3631 -0.0850
  130LIG      C 1948   6.672   7.212   0.415  0.0256 -0.4230  0.2057
  130LIG    OT1 1949   6.788   7.195   0.461 -0.7706  0.3059  0.0445
  130LIG    OT2 1950   6.577   7.143   0.452 -0.1486  1.0174 -0.1423
  131LIG      N 1951   9.113   5.543   3.700 -0.5127 -0.0537  0.3865
  131LIG     H1 1952   9.172   5.507   3.778 -0.5558 -3.3215 -0.9933
  131LIG     H2 1953   9.188   5.559   3.629 -0.5560  0.9115  0.5489
  131LIG     H3 1954   9.066   5.629   3.734 -0.3111 -0.0090  0.5518
  131LIG     CA 1955   9.027   5.429   3.659 -0.3286  0.4077  0.1448
  131LIG     HA 1956   8.996   5.448   3.558 -0.3107 -1.5475 -0.2561
  131LIG     CB 1957   9.120   5.303   3.663  0.2457 -0.1849  0.0078
  131LIG    HB1 1958   9.119   5.262   3.766  0.1430  0.0362  0.0960
  131LIG    HB2 1959   9.226   5.328   3.639 -0.0361  1.7549  0.6469
  131LIG     CG 1960   9.080   5.204   3.555  0.2716  0.0744 -0.3094
  131LIG    OD1 1961   9.130   5.091   3.551 -0.5762  0.2105  0.4393
  131LIG    OD2 1962   9.007   5.241   3.459  0.6216  0.8016  0.1036
  131LIG      C 1963   8.900   5.420   3.746 -0.3600  0.9242  0.0986
  131LIG    OT1 1964   8.886   5.493   3.849  0.0274  0.8697 -0.2422
  131LIG    OT2 1965   8.813   5.331   3.725 -0.4215  0.1216 -0.7162
  132LIG      N 1966   8.960   2.132   5.782  0.1211  0.1878  0.0364
  132LIG     H1 1967   8.936   2.196   5.861 -0.5454 -0.3804  0.3024
  132LIG     H2 1968   8.910   2.162   5.696 -1.6964  0.3232  1.1036
  132LIG     H3 1969   8.946   2.030   5.795  0.8341  0.2232  1.1987
  132LIG     CA 1970   9.105   2.159   5.769  0.2822  0.4238  0.8696
  132LIG     HA 1971   9.147   2.167   5.868  1.6753  1.0189  0.2412
  132LIG     CB 1972   9.162   2.043   5.679 -0.2037 -0.4710 -0.0609
  132LIG    HB1 1973   9.130   2.025   5.574 -0.2355 -0.3526 -0.0714
  132LIG    HB2 1974   9.143   1.944   5.726 -0.5709  0.1712  1.1689
  132LIG     CG 1975   9.314   2.063   5.679 -0.2093 -0.2498 -1.0388
  132LIG    OD1 1976   9.386   2.068   5.574 -0.3159  0.2430 -0.1326
  132LIG    OD2 1977   9.359   2.072   5.796 -0.5935 -0.0187  0.4156
  132LIG      C 1978   9.123   2.303   5.695 -0.1098 -0.5574  0.2996
  132LIG    OT1 1979   9.023   2.357   5.640 -0.1340 -0.0274 -0.1652
  132LIG    OT2 1980   9.238   2.353   5.691  0.1993 -0.0032 -0.1008
  133LIG      N 1981   6.400   2.240   9.858 -0.0652 -0.2007  0.4981
  133LIG     H1 1982   6.423   2.180   9.776  1.3503  2.1416 -0.8390
  133LIG     H2 1983   6.465   2.218   9.937 -0.2632  1.9708  1.2955
  133LIG     H3 1984   6.304   2.209   9.885 -1.2813  0.9315 -2.3395
  133LIG     CA 1985   6.388   2.386   9.830 -0.9965 -0.0233 -0.1498
  133LIG     HA 1986   6.463   2.435   9.890 -0.1907 -2.3153  0.7613
  133LIG     CB 1987   6.392   2.409   9.676  0.3375 -0.0356  0.1338
  133LIG    HB1 1988   6.295   2.371   9.638  0.4786  1.2274 -1.5198
  133LIG    HB2 1989   6.486   2.370   9.632 -0.2938  0.2447 -1.4962
  133LIG     CG 1990   6.392   2.555   9.662  0.3917  0.5763  0.9719
  133LIG    OD1 1991   6.287   2.613   9.610  0.0830  0.1170  0.1344
  133LIG    OD2 1992   6.497   2.616   9.683 -0.0806  0.2123 -0.0169
  133LIG      C 1993   6.251   2.431   9.895 -0.2425 -0.7478  0.5498
  133LIG    OT1 1994   6.155   2.349   9.919 -0.3064  0.0654  0.4600
  133LIG    OT2 1995   6.234   2.553   9.908  0.1328 -0.5571  0.4227
  134LIG      N 1996   0.409   8.766   4.949  0.5567  0.1519 -0.3509
  134LIG     H1 1997   0.368   8.711   4.871  0.4451 -2.9027  1.7732
  134LIG     H2 1998   0.335   8.817   5.002  0.4724  0.1234 -0.4410
  134LIG     H3 1999   0.472   8.837   4.907  2.5655  0.2899  2.6955
  134LIG     CA 2000   0.484   8.676   5.036 -0.7508  0.6770 -0.3843
  134LIG     HA 2001   0.562   8.730   5.088 -0.3697  0.3024 -0.5634
  134LIG     CB 2002   0.386   8.614   5.133  0.6770 -0.6931  0.0420
  134LIG    HB1 2003   0.309   8.542   5.097 -0.0028  0.4479 -0.7958
  134LIG    HB2 2004   0.322   8.691   5.180  1.0016  0.3101 -1.1537
  134LIG     CG 2005   0.460   8.546   5.252  0.8014  0.1938 -0.6085
  134LIG    OD1 2006   0.418   8.431   5.278 -0.2526  0.1738  0.5379
  134LIG    OD2 2007   0.544   8.613   5.320  0.4284 -0.1926 -0.6478
  134LIG      C 2008   0.561   8.578   4.946  0.2151 -0.0158 -0.0953
  134LIG    OT1 2009   0.536   8.564   4.825 -0.4801 -0.0519  1.0669
  134LIG    OT2 2010   0.647   8.505   5.003  0.3044  0.1643  0.3721
  135LIG      N 2011   3.430   8.078   7.407  0.1348 -0.0486 -0.5228
  135LIG     H1 2012   3.457   8.076   7.306  2.2689 -0.5408  0.0381
  135LIG     H2 2013   3.379   8.165   7.434 -0.0645 -0.3491  0.0798
  135LIG     H3 2014   3.522   8.080   7.455 -0.1500  1.7260 -0.0112
  135LIG     CA 2015   3.348   7.964   7.460 -0.7670 -0.1970 -0.0716
  135LIG     HA 2016   3.397   7.870   7.437 -0.8598 -0.3091  0.1851
  135LIG     CB 2017   3.356   7.997   7.611  0.1810 -0.1821 -0.2652
  135LIG    HB1 2018   3.295   8.086   7.636  0.7800 -0.3207  1.8265
  135LIG    HB2 2019   3.459   8.021   7.647  0.0445  0.9254 -0.6108
  135LIG     CG 2020   3.312   7.878   7.697  0.3939 -0.3752 -0.2460
  135LIG    OD1 2021   3.222   7.895   7.785  0.3018 -0.1418  0.3946
  135LIG    OD2 2022   3.368   7.771   7.683  0.0179  0.0066  0.1804
  135LIG      C 2023   3.207   7.955   7.401 -0.8028  0.0257 -0.1364
  135LIG    OT1 2024   3.170   8.047   7.320  0.5419  0.0305  0.1228
  135LIG    OT2 2025   3.131   7.858   7.425 -0.2874  0.0875  0.2384
  136LIG      N 2026   5.016   8.442   9.567 -0.0446 -0.5201  0.0613
  136LIG     H1 2027   4.946   8.519   9.571  0.4553 -0.1047  1.1985
  136LIG     H2 2028   5.061   8.442   9.661 -1.5155 -0.6624  0.7817
  136LIG     H3 2029   5.087   8.452   9.492  0.1484 -5.6684 -0.5912
  136LIG     CA 2030   4.952   8.314   9.547 -0.2920 -0.6443  0.4438
  136LIG     HA 2031   5.022   8.254   9.491  0.9316  1.1276  0.0322
  136LIG     CB 2032   4.947   8.243   9.685  0.3063 -0.6327  0.0054
  136LIG    HB1 2033   4.876   8.297   9.751 -1.0327  0.0096 -1.9127
  136LIG    HB2 2034   5.053   8.233   9.717 -0.1783  0.4973  2.0759
  136LIG     CG 2035   4.900   8.100   9.681 -0.6660  0.1426  0.5284
  136LIG    OD1 2036   4.819   8.059   9.772 -0.2169 -0.2664  0.1128
  136LIG    OD2 2037   4.946   8.023   9.592  1.3195 -0.2599 -0.7149
  136LIG      C 2038   4.819   8.322   9.471 -0.5766 -0.0288 -0.8943
  136LIG    OT1 2039   4.776   8.435   9.438  0.3013 -0.0562  0.2917
  136LIG    OT2 2040   4.752   8.216   9.446  0.1162  0.1810  0.0307
  137LIG      N 2041   8.506   1.471   7.127 -0.6649 -0.8911  0.1595
  137LIG     H1 2042   8.403   1.474   7.142 -0.2679  0.6199  3.0422
  137LIG     H2 2043   8.532   1.560   7.079  1.5415 -2.3902 -1.4962
  137LIG     H3 2044   8.537   1.394   7.065  0.3655 -0.6529  0.3627
  137LIG     CA 2045   8.575   1.472   7.253  0.2273 -0.3869  0.1220
  137LIG     HA 2046   8.537   1.386   7.305 -1.8897  0.6184  0.2939
  137LIG     CB 2047   8.728   1.454   7.220 -0.1438 -0.0576  0.6914
  137LIG    HB1 2048   8.782   1.550   7.203  3.2963 -1.8602  0.8737
  137LIG    HB2 2049   8.745   1.387   7.133 -1.7923  2.6084 -1.7427
  137LIG     CG 2050   8.805   1.396   7.337  0.0676 -0.5510 -0.1273
  137LIG    OD1 2051   8.907   1.454   7.386  0.1221  0.7646 -0.1570
  137LIG    OD2 2052   8.766   1.285   7.383 -0.0402 -0.2623  0.0491
  137LIG      C 2053   8.543   1.592   7.346  0.6169 -0.2928 -0.7438
  137LIG    OT1 2054   8.443   1.665   7.321  0.0007 -0.4615 -0.2239
  137LIG    OT2 2055   8.613   1.606   7.456 -0.2958 -0.1810  0.3879
  138LIG      N 2056   1.748   3.586   1.334  0.2220 -0.0617  0.0721
  138LIG     H1 2057   1.664   3.611   1.277 -0.9587 -0.0201  1.7950
  138LIG     H2 2058   1.822   3.656   1.319 -2.5170  2.9370  0.0267
  138LIG     H3 2059   1.776   3.493   1.298  1.1436 -0.1396  0.9669
  138LIG     CA 2060   1.717   3.593   1.475  0.4642  0.5798  0.4980
  138LIG     HA 2061   1.637   3.526   1.503 -0.1759  1.4645  0.8205
  138LIG     CB 2062   1.843   3.574   1.560  0.3258  0.2909 -0.8640
  138LIG    HB1 2063   1.918   3.656   1.559  2.0786 -1.2147  1.6492
  138LIG    HB2 2064   1.898   3.492   1.508 -0.7972  0.0581 -1.7022
  138LIG     CG 2065   1.803   3.514   1.691 -0.3359  0.3006 -0.3105
  138LIG    OD1 2066   1.855   3.556   1.799 -0.2966  1.0525  0.1996
  138LIG    OD2 2067   1.712   3.423   1.689  0.1659 -0.6363  0.1778
  138LIG      C 2068   1.657   3.726   1.514  0.7108  0.2333  0.0636
  138LIG    OT1 2069   1.666   3.829   1.440  0.3851 -0.3738 -0.2477
  138LIG    OT2 2070   1.590   3.733   1.625  0.0107 -0.1854 -0.0739
  139LIG      N 2071   2.115   1.190   9.791 -0.7906  0.4471  0.0076
  139LIG     H1 2072   2.079   1.254   9.717  0.6187  1.7742  0.4483
  139LIG     H2 2073   2.212   1.166   9.763 -1.0330 -0.7009  0.1082
  139LIG     H3 2074   2.067   1.098   9.790 -1.5054  0.8243 -1.0864
  139LIG     CA 2075   2.122   1.234   9.930 -0.1312  0.5581  0.4173
  139LIG     HA 2076   2.200   1.178   9.981  1.0442  1.3835 -0.4448
  139LIG     CB 2077   2.157   1.384   9.920  0.1096 -0.1519  0.8716
  139LIG    HB1 2078   2.070   1.443   9.885  0.4828 -0.0717  0.0578
  139LIG    HB2 2079   2.245   1.405   9.856 -2.6262  5.2415 -1.3814
  139LIG     CG 2080   2.188   1.427  10.064  0.9154  0.2159 -0.8511
  139LIG    OD1 2081   2.119   1.518  10.119 -0.5736  0.6431  0.4185
  139LIG    OD2 2082   2.290   1.378  10.117 -0.7381 -0.3260  0.5727
  139LIG      C 2083   1.994   1.211  10.010  0.1357 -0.1813 -0.0669
  139LIG    OT1 2084   1.890   1.184   9.938  0.0551  0.0808 -0.1130
  139LIG    OT2 2085   1.982   1.242  10.133  0.0916 -0.1165  0.1151
  140LIG      N 2086   1.749   5.899   1.570  0.0924 -0.2755 -0.3853
  140LIG     H1 2087   1.737   5.803   1.531 -2.0920 -0.2175  0.0649
  140LIG     H2 2088   1.654   5.940   1.579  0.1601 -0.7182  2.5793
  140LIG     H3 2089   1.799   5.960   1.502  0.2666  0.8336  0.7324
  140LIG     CA 2090   1.832   5.897   1.695  0.0980 -0.2768  0.3015
  140LIG     HA 2091   1.931   5.878   1.656  0.9621  0.1175  2.2660
  140LIG     CB 2092   1.848   6.041   1.746 -0.2562  0.3750  0.4296
  140LIG    HB1 2093   1.753   6.063   1.799 -1.9020 -2.8659 -1.0994
  140LIG    HB2 2094   1.882   6.115   1.671  0.8993 -2.0132 -1.4686
  140LIG     CG 2095   1.953   6.045   1.851  0.7008 -0.1115  0.3626
  140LIG    OD1 2096   1.928   6.092   1.967  0.2788 -0.0208 -0.0276
  140LIG    OD2 2097   2.068   6.000   1.818  0.6239  0.2607  0.2953
  140LIG      C 2098   1.790   5.800   1.804 -0.9113 -0.0133  0.4084
  140LIG    OT1 2099   1.684   5.732   1.796 -0.1036 -0.0433  0.1837
  140LIG    OT2 2100   1.869   5.776   1.898 -0.5501 -0.3443 -0.0835
  141LIG      N 2101   1.056   2.143   1.330  0.1260 -0.2878 -0.3124
  141LIG     H1 2102   1.014   2.067   1.273  0.7417  1.6804 -3.5714
  141LIG     H2 2103   1.153   2.154   1.295 -0.0752  0.0153 -0.7781
  141LIG     H3 2104   1.059   2.115   1.430 -1.9450 -1.1258 -0.4614
  141LIG     CA 2105   0.972   2.260   1.305  0.5576 -0.8079 -0.6985
  141LIG     HA 2106   0.887   2.261   1.371  1.4595 -1.2507  0.4927
  141LIG     CB 2107   1.063   2.380   1.329  0.0287 -0.5939 -0.6012
  141LIG    HB1 2108   1.131   2.396   1.242 -1.0185  0.3611 -1.2451
  141LIG    HB2 2109   1.132   2.368   1.416  3.5321  1.0619 -3.0068
  141LIG     CG 2110   0.979   2.506   1.358 -0.1172 -0.6369 -0.8368
  141LIG    OD1 2111   0.996   2.604   1.284  0.4424 -0.2754 -0.4928
  141LIG    OD2 2112   0.896   2.508   1.452  0.5799 -0.3483  0.4525
  141LIG      C 2113   0.915   2.268   1.157 -1.0033 -0.4211  0.0085
  141LIG    OT1 2114   0.958   2.195   1.068  0.3298 -0.5435  0.6704
  141LIG    OT2 2115   0.815   2.351   1.134 -0.3007  0.2537  0.0958
  142LIG      N 2116   0.101   9.153   6.968 -0.4617  0.8528 -0.8565
  142LIG     H1 2117   0.056   9.246   6.959 -0.5548  1.0532  1.4488
  142LIG     H2 2118   0.104   9.136   7.071 -0.3530  2.2692 -0.6148
  142LIG     H3 2119   0.200   9.165   6.938 -0.1841  1.3559  0.2214
  142LIG     CA 2120   0.019   9.057   6.893  0.2086  0.1844  0.4095
  142LIG     HA 2121   0.056   9.055   6.791 -0.2474 -2.1872  0.2583
  142LIG     CB 2122   0.039   8.915   6.962  0.0393 -0.6903 -0.3816
  142LIG    HB1 2123  -0.014   8.909   7.059  0.8352 -0.1526  0.0914
  142LIG    HB2 2124   0.147   8.889   6.962 -0.0882 -1.2540  0.5753
  142LIG     CG 2125  -0.014   8.807   6.870  0.0309 -0.9656 -0.1375
  142LIG    OD1 2126  -0.074   8.709   6.900  0.0379  0.6718  0.0006
  142LIG    OD2 2127   0.029   8.821   6.751 -0.3603 -0.3767  0.3602
  142LIG      C 2128  -0.131   9.101   6.899 -0.3691  0.2031 -0.2662
  142LIG    OT1 2129  -0.163   9.209   6.955 -0.7074  0.8037 -0.2932
  142LIG    OT2 2130  -0.215   9.027   6.846 -0.7106 -0.2640  0.0674
  143LIG      N 2131   5.618   5.030   9.470  0.4525 -0.2873 -0.6448
  143LIG     H1 2132   5.516   5.040   9.450 -0.3593 -0.6015  2.9434
  143LIG     H2 2133   5.663   5.118   9.438  0.7082 -0.6485 -1.2943
  143LIG     H3 2134   5.654   4.946   9.419  1.0442  0.1250 -0.9117
  143LIG     CA 2135   5.642   5.016   9.619 -0.1059  0.1650  0.3734
  143LIG     HA 2136   5.612   4.914   9.639  1.6235 -0.4492 -0.1147
  143LIG     CB 2137   5.787   5.046   9.638 -0.3866  0.4161  0.2154
  143LIG    HB1 2138   5.793   5.153   9.667  2.5397 -0.0971  1.6469
  143LIG    HB2 2139   5.853   5.008   9.558 -2.0471 -1.0388 -0.5053
  143LIG     CG 2140   5.825   4.967   9.760  0.4935  0.8698 -0.1719
  143LIG    OD1 2141   5.888   5.030   9.857 -0.4571  0.6848  0.6546
  143LIG    OD2 2142   5.805   4.841   9.764 -0.1552 -0.3669  0.4238
  143LIG      C 2143   5.540   5.099   9.705 -0.1087  0.5199  0.5752
  143LIG    OT1 2144   5.453   5.176   9.651  0.4502  0.2915 -0.5556
  143LIG    OT2 2145   5.535   5.081   9.832  0.4726 -0.2896  0.2288
  144LIG      N 2146   9.403   8.735   2.407 -0.0806  0.0770  0.5290
  144LIG     H1 2147   9.497   8.698   2.381 -0.6034 -1.3297  0.6164
  144LIG     H2 2148   9.327   8.669   2.383 -0.7631  1.0369  0.0369
  144LIG     H3 2149   9.379   8.819   2.350 -3.5442 -1.2526 -0.0570
  144LIG     CA 2150   9.398   8.773   2.549  1.0098  0.1414 -0.0154
  144LIG     HA 2151   9.299   8.813   2.563 -0.7476 -2.6837 -3.3916
  144LIG     CB 2152   9.418   8.645   2.629  0.4315 -0.2518 -0.0362
  144LIG    HB1 2153   9.528   8.629   2.627  0.2735 -1.2796 -0.8667
  144LIG    HB2 2154   9.355   8.563   2.590 -1.5842  0.7280  1.1011
  144LIG     CG 2155   9.374   8.670   2.775 -0.2913  0.4976  0.2173
  144LIG    OD1 2156   9.451   8.641   2.864  0.4339  0.0025 -0.3456
  144LIG    OD2 2157   9.253   8.701   2.789  0.0123 -0.2352  0.5203
  144LIG      C 2158   9.499   8.880   2.582 -0.0331 -0.2480 -0.1866
  144LIG    OT1 2159   9.580   8.922   2.493 -0.4255 -0.4111  0.3366
  144LIG    OT2 2160   9.497   8.937   2.697  0.0719 -0.4658  0.0576
  145LIG      N 2161   1.923   1.871   7.452 -0.5505  0.0534  0.3685
  145LIG     H1 2162   1.828   1.845   7.486 -0.2190  2.4434  3.4186
  145LIG     H2 2163   1.977   1.783   7.448 -2.5537 -1.1534 -3.5868
  145LIG     H3 2164   1.972   1.940   7.513  0.0555  1.2110 -1.3789
  145LIG     CA 2165   1.920   1.925   7.315 -1.2038 -0.0961 -0.1646
  145LIG     HA 2166   1.943   1.843   7.248 -0.2398 -0.7896  0.9985
  145LIG     CB 2167   1.787   1.995   7.285  0.5659  0.2054  0.2785
  145LIG    HB1 2168   1.780   2.103   7.311 -0.9710  0.1385  0.2247
  145LIG    HB2 2169   1.711   1.940   7.344  1.0613 -2.0935 -1.1853
  145LIG     CG 2170   1.743   1.984   7.141 -0.3563  0.4204 -0.2079
  145LIG    OD1 2171   1.662   2.059   7.089  0.0857  0.1642 -0.3732
  145LIG    OD2 2172   1.796   1.886   7.077  0.2579 -0.2384  0.6122
  145LIG      C 2173   2.027   2.033   7.289 -0.6712  0.5487  0.3494
  145LIG    OT1 2174   2.108   2.069   7.388  0.5029  0.2936 -0.1592
  145LIG    OT2 2175   2.032   2.095   7.177  0.1461 -0.1175  0.0159
  146LIG      N 2176   1.180   9.455   3.203  0.0825  0.0998 -0.3491
  146LIG     H1 2177   1.090   9.448   3.254 -0.0689 -2.9048 -0.9505
  146LIG     H2 2178   1.159   9.465   3.102 -0.4382  0.7632 -0.1843
  146LIG     H3 2179   1.237   9.369   3.212  0.4208  0.1328 -2.0820
  146LIG     CA 2180   1.277   9.567   3.243  0.1415 -0.5436  0.7672
  146LIG     HA 2181   1.233   9.664   3.224  0.6937 -0.5303 -0.5599
  146LIG     CB 2182   1.286   9.566   3.400  0.2502  0.4157 -0.2494
  146LIG    HB1 2183   1.334   9.473   3.439  0.9227  0.9924  0.3143
  146LIG    HB2 2184   1.183   9.569   3.441 -0.3666 -0.5409 -1.6915
  146LIG     CG 2185   1.344   9.694   3.460  0.0667  0.0094 -0.2658
  146LIG    OD1 2186   1.398   9.689   3.573  0.0647 -0.5429  0.4419
  146LIG    OD2 2187   1.334   9.803   3.400 -0.2386 -0.0998  0.4081
  146LIG      C 2188   1.417   9.545   3.174  0.8228  0.4749 -0.0300
  146LIG    OT1 2189   1.452   9.457   3.099  0.4864  0.1370 -0.2657
  146LIG    OT2 2190   1.501   9.637   3.200 -0.3426 -0.6495 -0.0033
  147LIG      N 2191   1.387   5.602   4.914  0.0435 -0.7411  0.1646
  147LIG     H1 2192   1.311   5.614   4.844 -1.1356 -2.2855  1.1281
  147LIG     H2 2193   1.465   5.669   4.900  0.0936 -0.8150  0.0850
  147LIG     H3 2194   1.423   5.504   4.922 -0.6410 -0.9026  1.4577
  147LIG     CA 2195   1.317   5.634   5.043 -0.1936 -0.5240 -0.4960
  147LIG     HA 2196   1.272   5.543   5.081  1.4853 -0.8184  0.8631
  147LIG     CB 2197   1.427   5.669   5.146 -0.1680  0.3009 -0.2446
  147LIG    HB1 2198   1.464   5.773   5.134 -0.7699  0.4695 -0.6882
  147LIG    HB2 2199   1.510   5.598   5.129 -0.4398  0.2938 -1.6169
  147LIG     CG 2200   1.371   5.662   5.292 -0.2372 -0.3206  0.2523
  147LIG    OD1 2201   1.368   5.772   5.354  0.1547  0.5461 -0.1820
  147LIG    OD2 2202   1.314   5.558   5.327  0.0448 -0.1362 -0.4141
  147LIG      C 2203   1.202   5.740   5.037  0.7718 -0.6046 -0.8244
  147LIG    OT1 2204   1.193   5.811   4.933 -0.4217 -0.4265  0.1504
  147LIG    OT2 2205   1.110   5.749   5.124 -0.0384 -1.2117 -0.0655
  148LIG      N 2206   2.978   9.500   7.952 -0.0236  0.0988 -0.5141
  148LIG     H1 2207   2.939   9.519   7.858  0.0803 -1.9467 -0.9955
  148LIG     H2 2208   3.082   9.498   7.945 -0.1596 -1.4175 -2.5549
  148LIG     H3 2209   2.949   9.406   7.987  1.3769 -0.8615 -1.8525
  148LIG     CA 2210   2.936   9.614   8.049  0.2897 -0.5280  0.3833
  148LIG     HA 2211   2.938   9.709   7.997 -0.5617 -0.4877  0.4173
  148LIG     CB 2212   2.791   9.576   8.099  0.0880 -0.2634  0.2677
  148LIG    HB1 2213   2.784   9.500   8.181 -0.0876 -0.1454  0.3623
  148LIG    HB2 2214   2.723   9.536   8.021 -1.1777  2.4846 -0.0950
  148LIG     CG 2215   2.728   9.696   8.157 -0.2829 -0.1560 -0.2808
  148LIG    OD1 2216   2.654   9.682   8.257 -0.2341  0.4948  0.0534
  148LIG    OD2 2217   2.728   9.811   8.098 -0.2844 -0.2995 -0.6252
  148LIG      C 2218   3.043   9.629   8.163  0.5446 -0.0827 -0.0003
  148LIG    OT1 2219   3.145   9.557   8.164  0.1515  0.8899  0.1480
  148LIG    OT2 2220   3.014   9.710   8.261 -0.4148 -0.3007  0.4027
  149LIG      N 2221   2.463   8.513   6.375  0.2830 -0.0698  0.7791
  149LIG     H1 2222   2.455   8.452   6.459 -1.1435 -0.5906  0.2704
  149LIG     H2 2223   2.430   8.606   6.409 -0.4265  0.3715 -1.0719
  149LIG     H3 2224   2.407   8.471   6.298  2.4586 -0.4602 -0.6371
  149LIG     CA 2225   2.604   8.524   6.332  0.2508 -0.1090 -0.7666
  149LIG     HA 2226   2.630   8.420   6.322 -2.2321 -0.8751  0.2197
  149LIG     CB 2227   2.608   8.593   6.198  0.3060 -0.4836 -0.2660
  149LIG    HB1 2228   2.625   8.701   6.216 -1.3311  0.3474 -3.2355
  149LIG    HB2 2229   2.514   8.601   6.138  0.0431 -1.2281  0.0372
  149LIG     CG 2230   2.716   8.539   6.113  0.1236 -0.0550 -0.4347
  149LIG    OD1 2231   2.796   8.618   6.059  0.0717  0.2365 -0.3304
  149LIG    OD2 2232   2.727   8.412   6.106  0.3745 -0.0669 -0.0181
  149LIG      C 2233   2.703   8.591   6.431 -0.3911  0.2152 -0.2474
  149LIG    OT1 2234   2.664   8.633   6.544  0.4127 -0.1559  0.1173
  149LIG    OT2 2235   2.825   8.582   6.405  0.6665 -0.4490 -0.3205
  150LIG      N 2236   9.419   5.196   4.348 -0.1665 -0.8933 -0.1784
  150LIG     H1 2237   9.473   5.262   4.288 -0.4845  0.2918  0.8124
  150LIG     H2 2238   9.420   5.243   4.441 -0.5434 -1.2067 -0.0168
  150LIG     H3 2239   9.461   5.101   4.351 -0.8360 -1.1468  2.3372
  150LIG     CA 2240   9.277   5.190   4.306 -0.4428 -0.1826  0.3227
  150LIG     HA 2241   9.236   5.286   4.333  0.5158  1.0099 -2.2466
  150LIG     CB 2242   9.268   5.173   4.150  0.2360 -0.2007 -0.1480
  150LIG    HB1 2243   9.298   5.071   4.121  0.0476 -0.1751 -0.4381
  150LIG    HB2 2244   9.342   5.246   4.110  0.2206  1.3186  2.4539
  150LIG     CG 2245   9.139   5.216   4.093  0.6362  0.5446  0.0428
  150LIG    OD1 2246   9.078   5.134   4.019  0.1788 -0.3974 -0.6431
  150LIG    OD2 2247   9.096   5.326   4.129 -0.1287 -0.5372 -0.2442
  150LIG      C 2248   9.204   5.083   4.381  0.2328  0.1612  0.8112
  150LIG    OT1 2249   9.268   4.993   4.448  0.4160  0.3865  0.1936
  150LIG    OT2 2250   9.081   5.088   4.384 -0.1258 -0.0706 -0.2298
  151LIG      N 2251   9.469   6.989   0.888 -0.2072 -0.4424  0.0105
  151LIG     H1 2252   9.515   7.077   0.917 -3.7376  0.4995  3.1656
  151LIG     H2 2253   9.388   6.973   0.951 -0.8158 -0.1546 -0.6886
  151LIG     H3 2254   9.540   6.914   0.903  1.5294  1.4765  1.4612
  151LIG     CA 2255   9.432   6.995   0.747 -0.7338 -0.3014  0.3062
  151LIG     HA 2256   9.522   7.029   0.697 -2.6717  1.8626 -1.8683
  151LIG     CB 2257   9.381   6.853   0.710 -0.7061 -0.1643  0.1792
  151LIG    HB1 2258   9.278   6.822   0.736 -0.9242 -0.2153 -0.7281
  151LIG    HB2 2259   9.448   6.777   0.756  0.6325  1.5428  1.1181
  151LIG     CG 2260   9.386   6.837   0.564 -0.2405 -0.0325 -0.1179
  151LIG    OD1 2261   9.287   6.780   0.506 -0.9048 -0.3952  0.2778
  151LIG    OD2 2262   9.491   6.868   0.499 -0.0518 -0.2514  0.1256
  151LIG      C 2263   9.321   7.098   0.732 -0.3014 -0.1441 -0.0165
  151LIG    OT1 2264   9.258   7.149   0.828 -0.3884 -0.1983 -0.1250
  151LIG    OT2 2265   9.288   7.129   0.614 -0.1685  0.2241  0.3028
  152LIG      N 2266   8.757   0.359   0.487 -0.1013 -0.6418 -0.0486
  152LIG     H1 2267   8.784   0.400   0.395 -2.7017 -0.2255 -0.6583
  152LIG     H2 2268   8.795   0.414   0.566  0.4951 -0.8811 -0.1611
  152LIG     H3 2269   8.793   0.261   0.490  1.8390  0.0805  0.8438
  152LIG     CA 2270   8.605   0.350   0.493  0.3467 -0.6883 -0.2331
  152LIG     HA 2271   8.589   0.251   0.455  0.1661 -0.0243 -1.9086
  152LIG     CB 2272   8.575   0.378   0.643 -0.3242  0.4034 -0.2620
  152LIG    HB1 2273   8.583   0.486   0.669  2.4589  0.1186  0.2442
  152LIG    HB2 2274   8.646   0.328   0.711 -1.8426  1.1665  1.9193
  152LIG     CG 2275   8.437   0.335   0.682 -1.3433  0.4055  0.0120
  152LIG    OD1 2276   8.385   0.385   0.783  0.2062 -0.4448  0.3076
  152LIG    OD2 2277   8.386   0.236   0.620  0.5229  0.6837 -0.4154
  152LIG      C 2278   8.535   0.456   0.399 -0.0597  0.2691  0.5341
  152LIG    OT1 2279   8.606   0.530   0.328  0.5330 -0.0179 -0.3531
  152LIG    OT2 2280   8.410   0.459   0.396 -0.0681  0.2415  0.4488
  153LIG      N 2281   8.090   3.870   4.219 -1.6246  0.1181  0.0841
  153LIG     H1 2282   8.108   3.904   4.316  1.7646  2.5836 -1.2955
  153LIG     H2 2283   7.992   3.837   4.217 -0.4269 -3.8933  2.0728
  153LIG     H3 2284   8.158   3.797   4.192 -0.6496  0.9163  0.3429
  153LIG     CA 2285   8.116   3.993   4.131 -0.1299  0.1752  0.1312
  153LIG     HA 2286   8.222   4.013   4.130 -0.2179  0.6686  0.4138
  153LIG     CB 2287   8.061   3.962   3.988 -0.4370 -0.5311 -0.0294
  153LIG    HB1 2288   7.952   3.983   3.994 -0.3195  0.0579  0.1428
  153LIG    HB2 2289   8.070   3.854   3.966  2.2028 -0.7516  1.8587
  153LIG     CG 2290   8.125   4.045   3.882  0.0230  0.8882  0.3364
  153LIG    OD1 2291   8.055   4.085   3.788  0.5017  0.4912 -0.6647
  153LIG    OD2 2292   8.247   4.072   3.902 -0.1229 -0.2893  0.2747
  153LIG      C 2293   8.044   4.125   4.190 -0.1811 -0.0628  0.0640
  153LIG    OT1 2294   7.951   4.096   4.273 -1.0566 -0.5976  0.3193
  153LIG    OT2 2295   8.082   4.242   4.156  0.5225 -0.3957  0.1058
  154LIG      N 2296   9.799   3.212   4.468  0.3631  0.0583  0.0118
  154LIG     H1 2297   9.883   3.218   4.407 -0.6112  3.4335 -1.1222
  154LIG     H2 2298   9.716   3.230   4.408  1.4822 -0.3574 -1.6866
  154LIG     H3 2299   9.806   3.291   4.535  2.2255 -2.0006  2.3402
  154LIG     CA 2300   9.806   3.075   4.536  0.2091 -0.3014  0.6893
  154LIG     HA 2301   9.899   3.065   4.589 -0.6021 -1.0607  1.9917
  154LIG     CB 2302   9.691   3.072   4.642  0.3239 -0.6935 -0.2827
  154LIG    HB1 2303   9.596   3.033   4.599 -1.2849  2.8273 -0.0197
  154LIG    HB2 2304   9.669   3.173   4.681  2.2579  0.2964 -1.6203
  154LIG     CG 2305   9.732   2.989   4.766  0.0574  0.2553  0.1898
  154LIG    OD1 2306   9.630   2.948   4.829 -0.1294 -0.0301  0.2979
  154LIG    OD2 2307   9.848   2.977   4.808  0.3147  0.7836 -0.5104
  154LIG      C 2308   9.797   2.946   4.445  0.9073 -0.1286  0.3376
  154LIG    OT1 2309   9.758   2.956   4.328  0.4011  0.1469  0.2876
  154LIG    OT2 2310   9.808   2.835   4.493 -0.1917 -0.2534 -0.3377
  155LIG      N 2311   9.465   0.839   4.582  0.1756  0.1745 -0.2644
  155LIG     H1 2312   9.449   0.893   4.670  1.4236 -1.1204  0.7706
  155LIG     H2 2313   9.384   0.776   4.568 -0.7592  1.0806  0.9043
  155LIG     H3 2314   9.553   0.786   4.596 -0.7151 -1.3540 -0.4341
  155LIG     CA 2315   9.482   0.927   4.465 -0.1749  0.0032  0.4730
  155LIG     HA 2316   9.584   0.961   4.474 -0.3358  0.4574  0.5852
  155LIG     CB 2317   9.463   0.847   4.332 -0.4428  0.0815 -0.1701
  155LIG    HB1 2318   9.353   0.827   4.331 -0.0912 -2.2218  1.9898
  155LIG    HB2 2319   9.515   0.748   4.335 -1.8473 -0.6822 -0.3255
  155LIG     CG 2320   9.510   0.924   4.220  0.3644  0.4124 -0.0767
  155LIG    OD1 2321   9.442   0.921   4.114  0.2587 -0.2932  0.1372
  155LIG    OD2 2322   9.625   0.976   4.222  0.0262  0.5113  0.2421
  155LIG      C 2323   9.397   1.049   4.480  0.3112 -0.4240  0.5659
  155LIG    OT1 2324   9.332   1.067   4.588 -0.0960 -0.4731  0.1278
  155LIG    OT2 2325   9.395   1.138   4.391  0.6491 -0.4600 -0.8893
  156LIG      N 2326   1.455   4.200   0.820  0.0127  0.4067  0.5465
  156LIG     H1 2327   1.427   4.105   0.853 -0.2220 -0.5583 -2.2938
  156LIG     H2 2328   1.394   4.280   0.846  1.4558  2.2186 -1.4312
  156LIG     H3 2329   1.472   4.195   0.717 -1.2963 -1.1236  0.3807
  156LIG     CA 2330   1.600   4.222   0.861  1.4396 -0.4121 -0.1864
  156LIG     HA 2331   1.597   4.219   0.969 -0.0631 -0.0930 -0.2014
  156LIG     CB 2332   1.670   4.101   0.791 -0.1457  0.1534  0.1219
  156LIG    HB1 2333   1.658   4.112   0.681 -0.4335 -0.0834  0.1291
  156LIG    HB2 2334   1.635   4.001   0.824 -0.6855 -0.4600 -2.2018
  156LIG     CG 2335   1.815   4.098   0.815  0.1670 -0.5341  0.2826
  156LIG    OD1 2336   1.903   4.098   0.725  0.2995  0.0148  0.0216
  156LIG    OD2 2337   1.858   4.093   0.940  0.3416  0.8412  0.1427
  156LIG      C 2338   1.647   4.363   0.823 -0.4703 -0.2057 -0.2145
  156LIG    OT1 2339   1.568   4.441   0.769 -0.5243 -0.6747  0.1797
  156LIG    OT2 2340   1.771   4.390   0.833  0.4478 -0.1959  0.3519
  157LIG      N 2341   2.070   2.223   6.701 -0.5125  0.2124  0.5547
  157LIG     H1 2342   1.987   2.189   6.648 -0.1080  2.4194 -1.5843
  157LIG     H2 2343   2.041   2.213   6.801 -3.7292 -0.1562 -0.3601
  157LIG     H3 2344   2.081   2.323   6.674  0.3147  0.6763  2.4895
  157LIG     CA 2345   2.197   2.145   6.673 -0.5709  0.9499 -0.4907
  157LIG     HA 2346   2.280   2.194   6.722 -0.8422 -0.1856  1.1700
  157LIG     CB 2347   2.174   2.008   6.733 -0.2972  0.1302  0.2614
  157LIG    HB1 2348   2.098   1.951   6.674 -1.0468 -1.2216  2.4741
  157LIG    HB2 2349   2.128   2.017   6.834 -0.0741  1.4635  0.2513
  157LIG     CG 2350   2.297   1.923   6.745  0.3263  1.2052  0.5809
  157LIG    OD1 2351   2.312   1.807   6.693 -0.0756  0.4091 -1.0050
  157LIG    OD2 2352   2.390   1.960   6.820  0.4007 -0.4893 -0.5749
  157LIG      C 2353   2.235   2.155   6.517  0.1147  0.0386 -0.2321
  157LIG    OT1 2354   2.166   2.218   6.434  0.6132 -0.0603  0.0450
  157LIG    OT2 2355   2.347   2.107   6.485 -0.1158  0.4182  0.0398
  158LIG      N 2356   6.517   1.546   8.191  0.1454 -0.0058  0.0716
  158LIG     H1 2357   6.584   1.480   8.146 -1.7894 -1.5749 -0.5700
  158LIG     H2 2358   6.532   1.645   8.163  0.2129  0.4813  1.8278
  158LIG     H3 2359   6.540   1.529   8.291  3.0962  1.1883 -0.3490
  158LIG     CA 2360   6.374   1.490   8.175 -0.0202 -0.2804 -0.5637
  158LIG     HA 2361   6.303   1.566   8.205 -0.3819 -1.2133  0.9770
  158LIG     CB 2362   6.349   1.423   8.037  0.2044  0.4618 -0.5284
  158LIG    HB1 2363   6.389   1.319   8.041  0.6003  0.6205 -0.3187
  158LIG    HB2 2364   6.402   1.470   7.952  0.5747 -1.5731 -1.4515
  158LIG     CG 2365   6.207   1.429   7.994  0.6780  0.2542 -0.4334
  158LIG    OD1 2366   6.153   1.336   7.926 -0.1255  0.1307  0.2690
  158LIG    OD2 2367   6.147   1.538   8.006 -0.1185 -0.0198  0.6605
  158LIG      C 2368   6.344   1.390   8.291  0.0895 -1.0061  0.9594
  158LIG    OT1 2369   6.427   1.369   8.380 -0.8940 -0.1177 -0.1692
  158LIG    OT2 2370   6.232   1.336   8.289  0.0750  0.3232  0.2196
  159LIG      N 2371   2.291   0.609   1.738 -0.3327 -0.5747  0.5842
  159LIG     H1 2372   2.244   0.698   1.714 -0.4906 -0.3766  1.6340
  159LIG     H2 2373   2.283   0.554   1.650 -2.0281  0.1285  0.2814
  159LIG     H3 2374   2.237   0.544   1.799 -0.3492 -0.8589  0.2703
  159LIG     CA 2375   2.432   0.644   1.765 -0.0394  0.6529  0.1165
  159LIG     HA 2376   2.462   0.579   1.846 -0.9549 -0.4435 -0.4115
  159LIG     CB 2377   2.517   0.622   1.636  0.3178 -0.0263  0.1093
  159LIG    HB1 2378   2.515   0.706   1.563  1.1587  1.8849  2.2413
  159LIG    HB2 2379   2.489   0.531   1.578  0.4332  1.3330 -2.1613
  159LIG     CG 2380   2.660   0.602   1.683  0.1811  0.2988 -0.6579
  159LIG    OD1 2381   2.749   0.647   1.611 -0.1625  0.1449  0.2979
  159LIG    OD2 2382   2.688   0.534   1.783 -0.0012 -0.1240 -0.0565
  159LIG      C 2383   2.450   0.796   1.812  0.2482 -0.0630 -0.8399
  159LIG    OT1 2384   2.340   0.856   1.827  0.0227  0.1442  0.2889
  159LIG    OT2 2385   2.565   0.843   1.835  0.6533 -0.6491 -0.0555
  160LIG      N 2386   1.239   3.291   4.525 -0.5636 -0.0182 -0.4006
  160LIG     H1 2387   1.332   3.252   4.500  0.0810  1.7602 -0.8670
  160LIG     H2 2388   1.171   3.213   4.515 -0.2712 -0.2923 -0.2833
  160LIG     H3 2389   1.220   3.377   4.469 -1.0724 -0.5220 -1.0160
  160LIG     CA 2390   1.236   3.320   4.675 -0.7972  0.8720 -0.1501
  160LIG     HA 2391   1.316   3.392   4.688  1.3468 -1.1548 -1.6476
  160LIG     CB 2392   1.099   3.372   4.719 -0.8857 -0.4282 -0.4503
  160LIG    HB1 2393   1.022   3.293   4.732 -0.9446  0.0514  2.4758
  160LIG    HB2 2394   1.057   3.455   4.658  1.0658  1.4095  0.6482
  160LIG     CG 2395   1.111   3.429   4.852  0.3016  0.4387 -0.3205
  160LIG    OD1 2396   1.017   3.395   4.934 -0.3430  0.2080  0.2297
  160LIG    OD2 2397   1.197   3.511   4.883  0.1637 -0.6318  0.1802
  160LIG      C 2398   1.273   3.190   4.757 -0.1971  0.3198 -0.4263
  160LIG    OT1 2399   1.289   3.083   4.702  0.0294 -0.2251  0.3017
  160LIG    OT2 2400   1.292   3.197   4.881  0.4328 -0.7534  0.3703
  161LIG      N 2401   3.393   1.641   3.007 -0.2075 -0.4517 -0.6427
  161LIG     H1 2402   3.428   1.543   3.009  2.1585  0.3746 -0.6535
  161LIG     H2 2403   3.372   1.673   3.103 -0.0836 -1.2832 -0.3364
  161LIG     H3 2404   3.306   1.638   2.950 -1.7576 -0.2915  1.6749
  161LIG     CA 2405   3.484   1.739   2.948 -1.0905  0.5904  0.1478
  161LIG     HA 2406   3.576   1.726   3.002 -0.7029 -0.3530 -0.7345
  161LIG     CB 2407   3.502   1.709   2.793  0.2264  0.2611 -0.0246
  161LIG    HB1 2408   3.415   1.753   2.739  0.5274  1.8957  0.7929
  161LIG    HB2 2409   3.502   1.601   2.769 -3.1422 -0.1840  1.7181
  161LIG     CG 2410   3.627   1.775   2.736 -0.2792 -0.2166  0.0027
  161LIG    OD1 2411   3.621   1.810   2.619  0.1352  0.1836  0.0990
  161LIG    OD2 2412   3.730   1.787   2.809  0.0584 -0.5379 -0.7317
  161LIG      C 2413   3.424   1.882   2.976  0.2486  0.3982  0.2057
  161LIG    OT1 2414   3.302   1.898   3.007  0.3880 -0.3247 -0.4981
  161LIG    OT2 2415   3.500   1.985   2.954 -0.2811 -0.6716  0.0984
  162LIG      N 2416   5.833   8.990   4.994  0.1160  0.0853  0.2561
  162LIG     H1 2417   5.823   8.888   4.973  1.9925  0.3815 -2.2710
  162LIG     H2 2418   5.747   9.031   5.035  0.1158  0.9070 -0.5336
  162LIG     H3 2419   5.838   9.037   4.901 -1.6081  0.6843  0.4604
  162LIG     CA 2420   5.950   9.022   5.071  1.0238 -0.0220  0.1460
  162LIG     HA 2421   5.965   9.129   5.067 -2.7685  0.5609  0.4714
  162LIG     CB 2422   5.929   8.984   5.213 -0.4503 -0.5748 -0.2663
  162LIG    HB1 2423   5.919   8.874   5.230 -3.2356 -0.1699  0.9937
  162LIG    HB2 2424   5.829   9.022   5.242  0.0622  0.6676 -0.1211
  162LIG     CG 2425   6.036   9.041   5.305 -0.4883  0.3434 -0.2175
  162LIG    OD1 2426   6.101   8.966   5.380  0.3754 -0.2422  0.1189
  162LIG    OD2 2427   6.053   9.164   5.309  0.0105  0.0953 -0.5635
  162LIG      C 2428   6.073   8.954   4.999 -0.5838  0.1005 -0.7482
  162LIG    OT1 2429   6.064   8.878   4.902 -0.0588  0.6265  0.5273
  162LIG    OT2 2430   6.183   8.976   5.056 -0.3616  0.1480 -0.4097
  163LIG      N 2431   6.561   8.983   0.442 -0.3893 -0.7794 -0.4644
  163LIG     H1 2432   6.462   9.001   0.465 -0.2459 -1.0784  0.3972
  163LIG     H2 2433   6.588   8.893   0.396 -3.5639 -2.1876  0.3418
  163LIG     H3 2434   6.614   8.981   0.531 -0.2521 -0.8312 -0.5458
  163LIG     CA 2435   6.608   9.094   0.354 -0.1516 -0.4165 -0.3780
  163LIG     HA 2436   6.715   9.082   0.344 -0.1511 -0.9535  0.2400
  163LIG     CB 2437   6.534   9.083   0.218 -0.5653  0.7604 -0.2628
  163LIG    HB1 2438   6.428   9.116   0.209 -0.4944  1.7500  2.0749
  163LIG    HB2 2439   6.545   8.976   0.191  1.9222  1.2746 -1.4163
  163LIG     CG 2440   6.603   9.157   0.100 -0.0947  0.3655 -0.0767
  163LIG    OD1 2441   6.530   9.234   0.035  0.1216  0.1729 -0.5347
  163LIG    OD2 2442   6.728   9.143   0.078  0.9882 -1.0194  0.1969
  163LIG      C 2443   6.582   9.234   0.419  0.2616  0.0129 -0.1633
  163LIG    OT1 2444   6.537   9.246   0.538 -0.1927  0.1322  0.6630
  163LIG    OT2 2445   6.606   9.335   0.355 -1.1814 -0.6113 -0.1134
  164LIG      N 2446   8.318   4.490   6.599 -0.1911 -0.2409 -0.3075
  164LIG     H1 2447   8.359   4.434   6.522 -0.8550 -0.1008 -0.7666
  164LIG     H2 2448   8.392   4.528   6.663  1.1783 -0.3643 -1.8054
  164LIG     H3 2449   8.254   4.422   6.646  0.5714 -0.8399 -0.1207
  164LIG     CA 2450   8.253   4.606   6.538  0.2137  0.1913 -0.1115
  164LIG     HA 2451   8.199   4.658   6.615 -1.0390 -0.3498 -0.6230
  164LIG     CB 2452   8.353   4.692   6.470 -0.0110 -0.5958 -0.0701
  164LIG    HB1 2453   8.391   4.653   6.373  2.1180  1.9289 -0.3206
  164LIG    HB2 2454   8.434   4.704   6.545 -0.5744  0.5201  0.3796
  164LIG     CG 2455   8.300   4.834   6.465 -0.1766 -0.0781  0.0013
  164LIG    OD1 2456   8.301   4.904   6.361 -0.3743 -0.3595  0.0580
  164LIG    OD2 2457   8.251   4.880   6.572 -0.6318  0.7006  0.5851
  164LIG      C 2458   8.153   4.560   6.431  0.0794 -0.7300 -0.1141
  164LIG    OT1 2459   8.155   4.439   6.401 -0.2559  0.8186  0.5322
  164LIG    OT2 2460   8.075   4.640   6.376 -0.0034 -0.4669 -0.2270
  165LIG      N 2461   8.138   3.837   1.491  0.7096 -0.5230 -0.6509
  165LIG     H1 2462   8.220   3.775   1.479  1.3153  0.1616 -0.1470
  165LIG     H2 2463   8.100   3.881   1.405  1.5068  1.0865 -0.2066
  165LIG     H3 2464   8.166   3.906   1.564  0.2245  0.2431 -1.1775
  165LIG     CA 2465   8.024   3.750   1.542 -0.2521 -0.9108  0.6425
  165LIG     HA 2466   8.057   3.650   1.564  0.5660 -0.1960  2.7612
  165LIG     CB 2467   7.973   3.824   1.663  0.3656 -0.6209 -0.7334
  165LIG    HB1 2468   7.928   3.922   1.639 -0.7110 -0.9345 -0.0388
  165LIG    HB2 2469   8.048   3.835   1.745 -2.2317 -0.7472  1.7343
  165LIG     CG 2470   7.871   3.735   1.735  0.3776  0.2732 -0.0650
  165LIG    OD1 2471   7.760   3.784   1.753 -0.2209  0.1917  0.1296
  165LIG    OD2 2472   7.904   3.619   1.772  0.0340 -0.2254  0.3213
  165LIG      C 2473   7.924   3.738   1.427  0.7062  0.4591 -0.0469
  165LIG    OT1 2474   7.927   3.821   1.331 -0.6399  0.0432 -0.8614
  165LIG    OT2 2475   7.844   3.639   1.420 -0.3769 -0.2151 -0.7747
  166LIG      N 2476   8.513   7.083   4.646  0.0837 -0.8992 -0.3101
  166LIG     H1 2477   8.584   7.048   4.713 -0.7182 -0.1551  0.9361
  166LIG     H2 2478   8.507   7.032   4.555 -1.2803 -0.6572 -0.3655
  166LIG     H3 2479   8.546   7.178   4.618  4.1110 -1.9132  0.6636
  166LIG     CA 2480   8.379   7.079   4.719  0.0550 -0.0108 -0.6998
  166LIG     HA 2481   8.342   6.980   4.694  1.1192  0.5795 -4.9395
  166LIG     CB 2482   8.411   7.115   4.865 -0.1619  0.3967  0.3463
  166LIG    HB1 2483   8.436   7.223   4.870  0.7584  0.2052 -0.0675
  166LIG    HB2 2484   8.490   7.052   4.910  0.5192  1.1353  0.2087
  166LIG     CG 2485   8.285   7.090   4.946  0.0537  0.1806  0.2637
  166LIG    OD1 2486   8.228   7.184   5.003 -0.6040  0.9372  0.1729
  166LIG    OD2 2487   8.245   6.971   4.954  0.2265  0.4174  0.1369
  166LIG      C 2488   8.285   7.176   4.642  0.2049 -0.0285 -0.2027
  166LIG    OT1 2489   8.336   7.263   4.567 -0.3849  0.2580  0.0604
  166LIG    OT2 2490   8.163   7.161   4.665 -0.2240 -0.0627  0.2064
  167LIG      N 2491   3.810   9.595   9.114 -0.0489  0.5563 -0.2161
  167LIG     H1 2492   3.785   9.597   9.013 -2.2139 -0.4146  0.2610
  167LIG     H2 2493   3.732   9.546   9.163  0.9476 -0.4520  0.4035
  167LIG     H3 2494   3.822   9.690   9.156  0.9663  1.3130 -2.1917
  167LIG     CA 2495   3.946   9.528   9.124  0.3731  0.0366  0.4339
  167LIG     HA 2496   4.016   9.603   9.091  0.6842  0.0592  1.1243
  167LIG     CB 2497   3.973   9.494   9.270 -0.9443 -0.4235 -0.1423
  167LIG    HB1 2498   3.937   9.392   9.295  1.0473 -0.5534  2.3556
  167LIG    HB2 2499   3.942   9.581   9.332 -1.1363 -2.0782  2.1214
  167LIG     CG 2500   4.123   9.505   9.306  0.3593  0.0118  0.1230
  167LIG    OD1 2501   4.165   9.437   9.408  1.0811 -0.3605  0.0239
  167LIG    OD2 2502   4.196   9.580   9.232 -0.1061  0.0644 -0.0602
  167LIG      C 2503   3.968   9.404   9.039 -0.1777  0.1373 -0.1829
  167LIG    OT1 2504   3.873   9.351   8.985  0.2951 -0.0087  0.3582
  167LIG    OT2 2505   4.083   9.348   9.031  0.3884  0.4231 -0.1733
  168LIG      N 2506   2.685   1.838   8.705 -0.2720 -0.3820 -0.7220
  168LIG     H1 2507   2.677   1.923   8.763  2.2756 -1.4830  1.3029
  168LIG     H2 2508   2.588   1.800   8.695 -1.0314  1.8198 -2.1698
  168LIG     H3 2509   2.744   1.772   8.759 -1.5654 -1.0286 -0.0798
  168LIG     CA 2510   2.733   1.879   8.569 -0.6982  0.2919  0.7622
  168LIG     HA 2511   2.837   1.889   8.594 -0.7630  1.7775  0.4627
  168LIG     CB 2512   2.699   1.767   8.476 -0.6227 -0.4364 -0.1967
  168LIG    HB1 2513   2.592   1.764   8.449 -0.5725 -3.1823 -0.2491
  168LIG    HB2 2514   2.713   1.667   8.522  2.1342 -0.3756 -0.7757
  168LIG     CG 2515   2.786   1.773   8.350 -0.2605 -0.3531 -0.0790
  168LIG    OD1 2516   2.732   1.755   8.239  0.0922  0.8963  0.2661
  168LIG    OD2 2517   2.908   1.783   8.370  0.3205  0.7103  0.1398
  168LIG      C 2518   2.679   2.020   8.525  0.2658  0.1285  0.3340
  168LIG    OT1 2519   2.602   2.081   8.603 -0.3135  0.2427  0.3051
  168LIG    OT2 2520   2.719   2.055   8.412  0.0352 -0.0957 -0.1157
  169LIG      N 2521   9.206   7.677   2.166 -0.0122 -0.2586 -0.3909
  169LIG     H1 2522   9.263   7.741   2.225 -1.4186 -0.1229  0.8721
  169LIG     H2 2523   9.259   7.587   2.168  1.5876  0.6700 -0.5819
  169LIG     H3 2524   9.197   7.700   2.065 -1.5790 -1.0916 -0.4637
  169LIG     CA 2525   9.071   7.663   2.207 -0.1539 -0.3129 -0.3260
  169LIG     HA 2526   9.049   7.566   2.249  0.7087 -0.8301 -1.0436
  169LIG     CB 2527   9.058   7.760   2.321  0.2591  0.0088 -0.7085
  169LIG    HB1 2528   9.031   7.859   2.279  0.3038  0.3584  0.0787
  169LIG    HB2 2529   9.148   7.773   2.385 -0.1114 -1.3524  0.1089
  169LIG     CG 2530   8.945   7.732   2.417 -0.5563  0.7573 -0.0185
  169LIG    OD1 2531   8.877   7.826   2.474 -0.1938 -0.1341 -0.3076
  169LIG    OD2 2532   8.913   7.616   2.449  0.4552 -0.6058  0.5405
  169LIG      C 2533   8.968   7.697   2.087 -0.3494  0.1910 -0.4159
  169LIG    OT1 2534   9.016   7.736   1.979  0.8361 -0.0438 -0.5228
  169LIG    OT2 2535   8.847   7.675   2.103 -0.4463  0.5586 -0.2292
  170LIG      N 2536   7.215   8.327   9.622  0.3146  0.3622 -0.7947
  170LIG     H1 2537   7.209   8.282   9.528 -2.2657  0.5659 -0.7671
  170LIG     H2 2538   7.287   8.403   9.623  1.0734 -0.3116 -2.4327
  170LIG     H3 2539   7.242   8.245   9.679 -2.7429 -1.3649 -1.7403
  170LIG     CA 2540   7.082   8.386   9.667  0.0391 -0.1921 -0.0444
  170LIG     HA 2541   7.004   8.315   9.645 -1.1313  0.7493  0.9836
  170LIG     CB 2542   7.091   8.406   9.826  0.2122 -0.2680  0.3776
  170LIG    HB1 2543   7.155   8.494   9.846 -1.8877  1.0367  1.4821
  170LIG    HB2 2544   7.130   8.317   9.880 -1.6183 -0.3458  1.5858
  170LIG     CG 2545   6.955   8.439   9.872  0.2065 -0.6968 -0.3443
  170LIG    OD1 2546   6.943   8.512   9.977  0.5311 -1.0527 -0.1227
  170LIG    OD2 2547   6.860   8.385   9.809  0.5024  0.7105  0.0663
  170LIG      C 2548   7.044   8.523   9.598 -0.6397 -0.8409  0.4894
  170LIG    OT1 2549   7.127   8.574   9.522 -0.3029 -0.1704 -0.2388
  170LIG    OT2 2550   6.937   8.584   9.618 -0.3471  0.3635 -0.1629
  171LIG      N 2551   5.790   3.599   0.357  0.2397 -0.4275 -0.2575
  171LIG     H1 2552   5.802   3.668   0.280 -0.3018  1.3660  1.2266
  171LIG     H2 2553   5.746   3.654   0.434  1.1902 -1.0037  0.7108
  171LIG     H3 2554   5.886   3.572   0.384 -0.0651 -0.7095  0.5671
  171LIG     CA 2555   5.717   3.473   0.334 -0.0179 -0.3043  0.1419
  171LIG     HA 2556   5.617   3.510   0.314 -0.1320 -0.6738  0.0260
  171LIG     CB 2557   5.772   3.405   0.201  0.5598 -0.3756  0.0645
  171LIG    HB1 2558   5.853   3.336   0.231  1.2242  0.8671  1.1920
  171LIG    HB2 2559   5.810   3.481   0.130 -1.7786 -0.2075 -1.0705
  171LIG     CG 2560   5.660   3.327   0.133  0.3264 -0.5011  0.1119
  171LIG    OD1 2561   5.696   3.217   0.082 -0.3208  0.5592 -0.0561
  171LIG    OD2 2562   5.541   3.361   0.129  0.3658 -0.1142 -0.0824
  171LIG      C 2563   5.704   3.387   0.457  0.1157 -0.0765 -0.6720
  171LIG    OT1 2564   5.748   3.425   0.568 -0.2402 -0.2660  0.2180
  171LIG    OT2 2565   5.645   3.275   0.450 -0.2817  0.1630 -0.7856
  172LIG      N 2566   2.049   5.638   9.610  0.2643 -0.3943 -0.0885
  172LIG     H1 2567   2.138   5.628   9.662 -0.1598  1.1144  0.9789
  172LIG     H2 2568   1.967   5.666   9.667  1.3792 -1.9580  2.3510
  172LIG     H3 2569   2.025   5.540   9.584  1.1064 -0.1478 -1.8506
  172LIG     CA 2570   2.058   5.724   9.478  0.7296  0.0937 -0.0446
  172LIG     HA 2571   1.973   5.705   9.414 -0.7260 -0.5668  2.0133
  172LIG     CB 2572   2.054   5.870   9.537  0.2000  0.4966  0.2188
  172LIG    HB1 2573   2.150   5.885   9.590  2.4179 -2.7121 -2.6340
  172LIG    HB2 2574   1.975   5.881   9.614  2.0011  3.5087  1.7582
  172LIG     CG 2575   2.028   5.968   9.428 -0.1413  0.2825  0.1330
  172LIG    OD1 2576   2.104   6.066   9.413 -0.4758 -0.3195 -0.5792
  172LIG    OD2 2577   1.927   5.949   9.357  0.4015 -0.3470  0.7376
  172LIG      C 2578   2.194   5.703   9.403  0.6395  0.8669  0.2142
  172LIG    OT1 2579   2.291   5.637   9.450  0.8082  0.2608  0.0210
  172LIG    OT2 2580   2.193   5.758   9.287  0.1170  0.4830  0.7295
  173LIG      N 2581   8.611   2.992   9.934 -0.0613 -0.6464  0.5544
  173LIG     H1 2582   8.540   3.012  10.007  0.7845 -1.4500  1.6042
  173LIG     H2 2583   8.690   2.938   9.974  0.3485 -0.8174 -0.4707
  173LIG     H3 2584   8.636   3.086   9.897 -1.2968  0.9740  3.7057
  173LIG     CA 2585   8.541   2.911   9.827  0.3010  0.3646  0.4867
  173LIG     HA 2586   8.437   2.941   9.832 -0.2169 -1.2300 -0.1105
  173LIG     CB 2587   8.601   2.943   9.693  0.1164 -0.1897  0.4339
  173LIG    HB1 2588   8.692   2.881   9.675 -0.5205 -0.2319 -2.8247
  173LIG    HB2 2589   8.632   3.050   9.688 -2.0970  0.4200 -0.7814
  173LIG     CG 2590   8.491   2.931   9.591 -0.6671 -0.2281  0.3241
  173LIG    OD1 2591   8.514   2.852   9.496  0.1475 -0.1712 -0.3652
  173LIG    OD2 2592   8.383   2.987   9.608 -0.1206 -0.0383  0.5694
  173LIG      C 2593   8.560   2.761   9.856 -0.0744 -0.4555 -0.3360
  173LIG    OT1 2594   8.641   2.729   9.951 -0.4298  0.2316 -0.0507
  173LIG    OT2 2595   8.496   2.672   9.796  0.0139  0.1041 -0.1197
  174LIG      N 2596   4.631   8.113   6.937 -0.4793 -0.7488 -0.2571
  174LIG     H1 2597   4.545   8.129   6.881 -1.3498  1.1855  1.5414
  174LIG     H2 2598   4.644   8.187   7.010  0.6620  0.2262 -1.4188
  174LIG     H3 2599   4.718   8.109   6.881 -1.1064  1.1200 -1.4474
  174LIG     CA 2600   4.616   7.981   7.005 -0.6464 -0.3170  0.8746
  174LIG     HA 2601   4.697   7.971   7.076 -1.9083 -0.2876  2.3405
  174LIG     CB 2602   4.486   7.980   7.084  0.3331 -0.4311  0.4653
  174LIG    HB1 2603   4.399   7.958   7.019 -0.4938  0.8898  1.0970
  174LIG    HB2 2604   4.483   8.079   7.135 -1.6148 -0.6017  0.7091
  174LIG     CG 2605   4.496   7.875   7.196  0.4251  0.0342 -0.1901
  174LIG    OD1 2606   4.387   7.821   7.231  0.0030  0.4651 -0.4032
  174LIG    OD2 2607   4.606   7.847   7.248  0.3015  1.0453  0.4904
  174LIG      C 2608   4.619   7.863   6.901 -0.9644  0.5797 -0.1899
  174LIG    OT1 2609   4.618   7.882   6.777 -0.2680 -0.2762 -0.5600
  174LIG    OT2 2610   4.617   7.742   6.939  0.2717  0.2907 -0.0296
  175LIG      N 2611   5.939   8.733   8.227 -0.2716 -0.0629  0.0146
  175LIG     H1 2612   6.011   8.666   8.262  0.4628 -0.1495 -1.6323
  175LIG     H2 2613   5.865   8.739   8.300 -0.8318  0.3319 -0.5887
  175LIG     H3 2614   5.898   8.699   8.138 -0.1463  0.1595 -0.1287
  175LIG     CA 2615   5.996   8.871   8.209 -0.6073  0.0570  0.8905
  175LIG     HA 2616   6.073   8.878   8.285  2.3512 -0.9580 -1.8822
  175LIG     CB 2617   6.073   8.876   8.076 -0.2781 -0.2032  0.1467
  175LIG    HB1 2618   6.003   8.898   7.993  2.8213  0.0637 -2.5050
  175LIG    HB2 2619   6.116   8.776   8.054  0.2137  0.2658 -1.0733
  175LIG     CG 2620   6.177   8.982   8.073 -0.5332 -0.2178 -0.8763
  175LIG    OD1 2621   6.195   9.046   7.965 -0.1174  0.4357  0.0405
  175LIG    OD2 2622   6.266   8.975   8.163  0.0154  0.1198 -0.0302
  175LIG      C 2623   5.885   8.983   8.228 -0.5794 -0.2326  0.2548
  175LIG    OT1 2624   5.768   8.957   8.261 -0.4660 -0.0742 -0.1104
  175LIG    OT2 2625   5.924   9.099   8.214 -0.2895 -0.0500  0.6807
  176LIG      N 2626   1.618   0.295   8.278  0.4467 -0.1631  0.0227
  176LIG     H1 2627   1.651   0.323   8.183  0.7713 -0.9742 -0.1005
  176LIG     H2 2628   1.527   0.247   8.268  0.3145 -0.0689  0.7185
  176LIG     H3 2629   1.608   0.381   8.336  0.0406 -0.2040  0.0074
  176LIG     CA 2630   1.718   0.202   8.351  0.3987 -0.6626  0.4641
  176LIG     HA 2631   1.813   0.252   8.352  0.7072 -1.2400  2.9702
  176LIG     CB 2632   1.654   0.198   8.495 -0.2385 -0.0937 -0.0106
  176LIG    HB1 2633   1.562   0.136   8.498 -1.3960  1.5423 -0.8308
  176LIG    HB2 2634   1.629   0.300   8.531  1.5486  0.3308  0.0796
  176LIG     CG 2635   1.754   0.143   8.595 -0.2375 -0.2829 -0.0932
  176LIG    OD1 2636   1.725   0.039   8.656 -0.1938 -0.2754  0.3928
  176LIG    OD2 2637   1.858   0.211   8.605  0.2987 -0.0417 -0.2769
  176LIG      C 2638   1.733   0.064   8.288  0.2575 -0.2686 -0.2971
  176LIG    OT1 2639   1.663   0.042   8.186  0.0396 -0.4092 -0.0443
  176LIG    OT2 2640   1.821  -0.014   8.330  0.5305 -0.4732 -0.3513
  177LIG      N 2641   4.940   0.802   9.582 -0.1377  0.2816  0.6594
  177LIG     H1 2642   4.889   0.893   9.588 -2.0557 -0.5323 -2.0637
  177LIG     H2 2643   4.957   0.790   9.480  0.1697  3.4554  0.2867
  177LIG     H3 2644   4.869   0.732   9.611  0.7225 -0.9282 -0.1003
  177LIG     CA 2645   5.066   0.788   9.644  0.0952 -1.0583  0.3285
  177LIG     HA 2646   5.118   0.871   9.597 -0.1038 -0.7323  0.6766
  177LIG     CB 2647   5.038   0.819   9.799  0.7882  0.3093 -0.1584
  177LIG    HB1 2648   4.975   0.733   9.829 -1.3258  1.5556 -0.9434
  177LIG    HB2 2649   4.986   0.915   9.821  0.5380  0.3818 -1.0422
  177LIG     CG 2650   5.172   0.825   9.872 -0.0117 -0.4573 -0.6761
  177LIG    OD1 2651   5.201   0.731   9.952  0.0598  0.1705  0.1202
  177LIG    OD2 2652   5.253   0.918   9.860 -0.2057  0.4556 -0.2175
  177LIG      C 2653   5.147   0.658   9.620  0.4281 -0.3340 -0.3222
  177LIG    OT1 2654   5.089   0.559   9.571 -0.1137  0.2702  0.0877
  177LIG    OT2 2655   5.266   0.656   9.653 -0.3046 -0.1015  0.5848
  178LIG      N 2656   8.387   9.572   7.099 -0.2051 -0.5840 -0.4657
  178LIG     H1 2657   8.452   9.644   7.062 -1.9904  1.0647 -0.4177
  178LIG     H2 2658   8.317   9.532   7.033 -1.1864 -2.0827  1.4163
  178LIG     H3 2659   8.330   9.606   7.179 -1.1645  0.1481 -1.4556
  178LIG     CA 2660   8.477   9.457   7.135 -0.0930  0.1129  0.2779
  178LIG     HA 2661   8.562   9.499   7.187  0.6775 -0.4648 -0.4854
  178LIG     CB 2662   8.396   9.370   7.233 -0.5984 -0.4791 -0.8013
  178LIG    HB1 2663   8.347   9.297   7.166  0.1409  0.5112 -2.4388
  178LIG    HB2 2664   8.318   9.426   7.289 -2.4999 -1.1517 -2.7505
  178LIG     CG 2665   8.498   9.305   7.322  0.5592  0.0068  1.0097
  178LIG    OD1 2666   8.484   9.182   7.344  0.0144 -0.5114 -0.1064
  178LIG    OD2 2667   8.585   9.376   7.374 -0.6636 -0.4738 -0.1824
  178LIG      C 2668   8.527   9.376   7.012  0.1368 -0.1040  0.1938
  178LIG    OT1 2669   8.467   9.384   6.898  0.1415  0.5820 -0.3058
  178LIG    OT2 2670   8.629   9.305   7.030  0.0764 -0.1522 -0.1495
  179LIG      N 2671   8.543   3.633   0.541 -0.2977  0.3914 -0.4453
  179LIG     H1 2672   8.451   3.646   0.494 -1.0757 -2.5025  0.1464
  179LIG     H2 2673   8.569   3.532   0.536  0.9954  0.6644  0.6186
  179LIG     H3 2674   8.528   3.672   0.636 -0.5198 -1.4066  0.2750
  179LIG     CA 2675   8.642   3.700   0.453  0.0683 -1.0854 -0.5324
  179LIG     HA 2676   8.740   3.691   0.499 -0.7101 -0.6606  1.2677
  179LIG     CB 2677   8.625   3.653   0.304  0.0344 -0.4557  0.3774
  179LIG    HB1 2678   8.538   3.708   0.264  1.2106  1.0567 -0.1589
  179LIG    HB2 2679   8.597   3.545   0.297 -1.5329 -0.0463  0.2632
  179LIG     CG 2680   8.739   3.673   0.214 -0.3333  0.1523  0.4545
  179LIG    OD1 2681   8.714   3.720   0.102 -0.6192  0.4761 -0.2885
  179LIG    OD2 2682   8.847   3.626   0.251 -0.2479  0.5236 -0.3140
  179LIG      C 2683   8.615   3.852   0.457  0.6294 -1.0067 -1.1808
  179LIG    OT1 2684   8.517   3.907   0.518 -0.9824  0.0957 -0.2388
  179LIG    OT2 2685   8.697   3.927   0.400 -0.4318  0.7165 -0.4336
  180LIG      N 2686   7.911   7.109   9.012  0.2681 -0.2300 -0.5362
  180LIG     H1 2687   7.830   7.044   9.006  0.5106 -0.7357  1.3648
  180LIG     H2 2688   7.879   7.203   9.044 -0.6071 -0.5878 -0.3600
  180LIG     H3 2689   7.955   7.133   8.921  3.1587 -0.0961  0.8551
  180LIG     CA 2690   7.998   7.049   9.111  0.1156  1.1653  0.8689
  180LIG     HA 2691   8.015   6.950   9.071  0.0763  1.3706  0.3409
  180LIG     CB 2692   8.124   7.129   9.116 -0.4769 -0.4428  0.8913
  180LIG    HB1 2693   8.108   7.228   9.164  1.4887 -0.3460  1.3968
  180LIG    HB2 2694   8.158   7.154   9.014  1.0153 -0.2456  1.4219
  180LIG     CG 2695   8.230   7.041   9.168 -0.3372  0.1230  0.3103
  180LIG    OD1 2696   8.293   7.084   9.263  0.0613 -0.2086 -0.5170
  180LIG    OD2 2697   8.257   6.937   9.103 -0.1342 -0.4924 -0.9173
  180LIG      C 2698   7.927   7.030   9.248  0.6627  1.1341 -0.6330
  180LIG    OT1 2699   7.820   7.088   9.273 -0.0116 -0.5311  0.2911
  180LIG    OT2 2700   7.984   6.949   9.324 -0.4397 -0.7873  0.0651
  181LIG      N 2701   1.102   2.114   0.542  0.2507  0.3028  0.1715
  181LIG     H1 2702   1.027   2.169   0.590  1.8051  0.6812  2.2375
  181LIG     H2 2703   1.136   2.162   0.457  2.7943 -0.4992  0.6959
  181LIG     H3 2704   1.054   2.025   0.518  0.7590  0.0511  0.0960
  181LIG     CA 2705   1.218   2.080   0.628 -0.0652  0.3556  0.2070
  181LIG     HA 2706   1.266   2.172   0.655  0.3705  0.1459  0.1535
  181LIG     CB 2707   1.165   1.998   0.752  0.1723  0.3695 -0.1124
  181LIG    HB1 2708   1.133   1.896   0.723 -2.6848  0.4110  2.6743
  181LIG    HB2 2709   1.081   2.057   0.795 -0.2803 -1.0370  0.9713
  181LIG     CG 2710   1.271   1.983   0.863  0.2383 -0.9722  1.3348
  181LIG    OD1 2711   1.303   1.863   0.883 -0.0650 -0.4824  0.0269
  181LIG    OD2 2712   1.325   2.077   0.918 -0.5999 -0.3139  0.0160
  181LIG      C 2713   1.322   1.994   0.544  0.0135 -0.6143 -0.5452
  181LIG    OT1 2714   1.294   1.959   0.427  0.0799  0.0361 -0.2271
  181LIG    OT2 2715   1.432   1.960   0.593 -0.2360  0.2387 -0.7388
  182LIG      N 2716   0.774   1.621   4.872  0.7040 -0.1295 -0.0714
  182LIG     H1 2717   0.762   1.628   4.975 -0.4998  0.2358 -0.2281
  182LIG     H2 2718   0.851   1.555   4.850 -0.6130 -0.6693 -3.3565
  182LIG     H3 2719   0.789   1.718   4.837 -3.6379  1.1518  1.3256
  182LIG     CA 2720   0.641   1.578   4.805 -0.6803  0.2200  0.1542
  182LIG     HA 2721   0.577   1.660   4.833  0.8871  0.3676  3.5631
  182LIG     CB 2722   0.674   1.566   4.650 -0.7048 -0.7493  0.0057
  182LIG    HB1 2723   0.707   1.462   4.628  0.9414 -1.3196  4.5016
  182LIG    HB2 2724   0.752   1.637   4.615 -1.3430 -0.4927 -0.8863
  182LIG     CG 2725   0.556   1.585   4.556  0.8109  0.1436 -0.3513
  182LIG    OD1 2726   0.518   1.490   4.481 -0.2307  0.3810 -0.0231
  182LIG    OD2 2727   0.520   1.706   4.546  0.1357 -0.9778 -0.0612
  182LIG      C 2728   0.565   1.449   4.864  0.1947 -0.1910 -0.2373
  182LIG    OT1 2729   0.614   1.379   4.954 -0.1402 -0.2392  0.4430
  182LIG    OT2 2730   0.447   1.428   4.825 -0.0953 -0.0575 -0.1566
  183LIG      N 2731   8.161   5.684   4.981 -0.0848  0.0524  0.3654
  183LIG     H1 2732   8.123   5.741   5.060 -1.9549 -1.9243  0.9459
  183LIG     H2 2733   8.118   5.708   4.890  0.0106  0.1865  0.3564
  183LIG     H3 2734   8.144   5.584   5.006  0.1014 -0.7003 -2.4359
  183LIG     CA 2735   8.307   5.697   4.992  0.0170  0.8810  0.0218
  183LIG     HA 2736   8.321   5.804   4.998  0.6389  0.7561  0.8232
  183LIG     CB 2737   8.348   5.610   5.114  0.2993 -0.3399  0.1239
  183LIG    HB1 2738   8.352   5.500   5.097  2.3517  0.2221 -3.3928
  183LIG    HB2 2739   8.284   5.634   5.202  1.5141  0.1563  0.8817
  183LIG     CG 2740   8.482   5.651   5.170  0.5321 -0.0270  0.4189
  183LIG    OD1 2741   8.557   5.564   5.230 -0.3998  1.0371  0.0628
  183LIG    OD2 2742   8.519   5.774   5.160 -0.0147 -0.1671  0.1467
  183LIG      C 2743   8.381   5.641   4.874  0.3671 -0.1389  0.7010
  183LIG    OT1 2744   8.313   5.582   4.786  0.3239 -0.5440  0.0515
  183LIG    OT2 2745   8.506   5.649   4.863  0.0936  0.2187  0.4729
  184LIG      N 2746   6.663   1.647   3.882  0.2705  0.2098 -0.2566
  184LIG     H1 2747   6.715   1.692   3.805  0.8149  0.4629  0.2503
  184LIG     H2 2748   6.560   1.651   3.869  0.4485  1.0163 -1.4333
  184LIG     H3 2749   6.685   1.713   3.960 -0.8938  0.0082  0.2603
  184LIG     CA 2750   6.720   1.511   3.907  0.6303 -0.7162 -0.0904
  184LIG     HA 2751   6.738   1.466   3.810  0.1108  1.6680 -1.3168
  184LIG     CB 2752   6.861   1.526   3.980  0.1909  0.4875  0.3447
  184LIG    HB1 2753   6.835   1.552   4.085  1.9785  0.9756  0.6888
  184LIG    HB2 2754   6.924   1.597   3.922 -0.0297 -1.5725 -2.5116
  184LIG     CG 2755   6.939   1.400   3.976 -0.0008 -0.4833  0.1277
  184LIG    OD1 2756   7.026   1.379   4.063  0.1099  0.5673  0.1118
  184LIG    OD2 2757   6.935   1.325   3.880 -0.4109 -0.0854  0.2203
  184LIG      C 2758   6.616   1.424   3.987  0.2338  0.3777 -0.1435
  184LIG    OT1 2759   6.524   1.476   4.050 -0.3379 -0.2169  0.3792
  184LIG    OT2 2760   6.635   1.299   3.984 -0.0263 -0.0184  0.1573
  185LIG      N 2761   8.027   5.330   2.611  0.0219 -0.3182 -0.1654
  185LIG     H1 2762   7.962   5.255   2.638 -0.5013  0.2782  0.2431
  185LIG     H2 2763   7.993   5.366   2.520  0.3621  0.2626 -0.0723
  185LIG     H3 2764   8.124   5.292   2.600  0.0865 -0.4532  0.7811
  185LIG     CA 2765   8.022   5.427   2.712  0.3664 -0.0849 -0.7330
  185LIG     HA 2766   8.092   5.503   2.680 -1.5533  1.6898 -0.7959
  185LIG     CB 2767   7.882   5.481   2.731 -0.5626  0.4751 -0.1180
  185LIG    HB1 2768   7.822   5.416   2.797 -0.7470  1.5908  0.8240
  185LIG    HB2 2769   7.837   5.473   2.630 -0.1056  0.6568 -0.3375
  185LIG     CG 2770   7.892   5.625   2.767 -0.4591  0.4400 -0.6443
  185LIG    OD1 2771   7.801   5.678   2.839 -0.3651  0.3612 -0.3186
  185LIG    OD2 2772   7.973   5.703   2.709  0.0963 -0.3334  0.0452
  185LIG      C 2773   8.081   5.375   2.844  1.4790 -0.0245  0.3247
  185LIG    OT1 2774   8.093   5.256   2.874 -0.5159  0.0931 -0.0997
  185LIG    OT2 2775   8.122   5.460   2.925  0.3783 -0.6227  0.8113
  186LIG      N 2776   0.041   7.739   7.121  0.0709 -0.0721 -0.0506
  186LIG     H1 2777   0.126   7.789   7.154  0.1239 -0.3140  0.1771
  186LIG     H2 2778   0.024   7.667   7.194  0.6714 -0.3782 -0.2049
  186LIG     H3 2779   0.055   7.705   7.023  0.5566  0.5936 -0.2108
  186LIG     CA 2780  -0.065   7.835   7.111  0.3452  0.3155 -0.7452
  186LIG     HA 2781  -0.141   7.803   7.041  1.2129 -2.5592 -0.4190
  186LIG     CB 2782  -0.122   7.830   7.253  0.0928  0.2208  0.7347
  186LIG    HB1 2783  -0.049   7.839   7.336  1.1005 -0.7192 -0.0401
  186LIG    HB2 2784  -0.169   7.731   7.271 -0.2185  0.0737 -0.8755
  186LIG     CG 2785  -0.241   7.925   7.263 -0.0571  0.1387  0.8994
  186LIG    OD1 2786  -0.258   8.001   7.362 -0.1209  0.2945  0.0793
  186LIG    OD2 2787  -0.326   7.923   7.174 -0.4724 -0.6340 -0.2096
  186LIG      C 2788  -0.019   7.975   7.057  0.1907 -0.0547  0.5091
  186LIG    OT1 2789   0.107   7.989   7.021  0.4918 -0.0890  0.2508
  186LIG    OT2 2790  -0.102   8.063   7.044 -0.3417 -0.3800  0.5367
  187LIG      N 2791   4.785   9.981   6.181 -0.3879  0.4884  0.1468
  187LIG     H1 2792   4.859   9.991   6.253 -0.3773  0.4443  0.1410
  187LIG     H2 2793   4.701  10.040   6.202 -0.6753 -0.3557  1.4154
  187LIG     H3 2794   4.754   9.882   6.174 -0.1222  0.4355 -0.2646
  187LIG     CA 2795   4.857  10.014   6.056  0.0830  0.6291  1.2158
  187LIG     HA 2796   4.926   9.932   6.040 -1.9237 -1.6152  3.5215
  187LIG     CB 2797   4.749   9.997   5.941  0.2220  0.2750  0.5650
  187LIG    HB1 2798   4.701  10.098   5.936  1.3424  1.0810  4.2909
  187LIG    HB2 2799   4.666   9.925   5.956 -1.7342  2.0815 -1.1894
  187LIG     CG 2800   4.803   9.966   5.802 -0.1069 -0.2594 -0.3273
  187LIG    OD1 2801   4.922   9.949   5.775 -0.3073  0.1268  0.0010
  187LIG    OD2 2802   4.713   9.945   5.716 -0.2780 -0.5231  0.1451
  187LIG      C 2803   4.933  10.153   6.048  0.2248 -0.0656  0.7009
  187LIG    OT1 2804   4.923  10.233   6.149  0.0295  0.1795 -0.6495
  187LIG    OT2 2805   5.003  10.183   5.951 -0.5545  0.0806  0.1773
  188LIG      N 2806   8.556   5.761   9.095 -0.0305  0.0263  0.1731
  188LIG     H1 2807   8.641   5.806   9.133  1.2220 -1.6083 -0.6260
  188LIG     H2 2808   8.592   5.714   9.009 -0.4554  0.1551 -0.0757
  188LIG     H3 2809   8.481   5.825   9.061  1.1683  1.2551 -0.1753
  188LIG     CA 2810   8.500   5.683   9.201 -0.0383  1.3548 -0.3100
  188LIG     HA 2811   8.564   5.600   9.228  0.4618  1.8965  0.1904
  188LIG     CB 2812   8.491   5.773   9.330 -0.2647 -0.3668 -0.1523
  188LIG    HB1 2813   8.399   5.835   9.326 -0.3806 -0.4905  0.4765
  188LIG    HB2 2814   8.582   5.837   9.341 -0.2240 -0.4794  0.1753
  188LIG     CG 2815   8.495   5.700   9.463  0.3407 -0.0199  0.3578
  188LIG    OD1 2816   8.429   5.741   9.557 -0.3548 -0.5134 -0.4435
  188LIG    OD2 2817   8.576   5.611   9.478 -0.1442  0.2123  0.5496
  188LIG      C 2818   8.364   5.615   9.170 -0.9944  0.2554 -0.2789
  188LIG    OT1 2819   8.311   5.643   9.062  0.3095  0.5388 -0.0145
  188LIG    OT2 2820   8.323   5.526   9.252  0.6278  0.7167  0.3988
  189LIG      N 2821   1.786   2.707   2.971 -0.0978  0.0090 -0.1488
  189LIG     H1 2822   1.791   2.811   2.960  0.3795 -0.0863 -0.8612
  189LIG     H2 2823   1.796   2.692   3.073  0.6364  0.7231 -0.1142
  189LIG     H3 2824   1.863   2.667   2.914 -0.0009 -0.3909  0.2593
  189LIG     CA 2825   1.658   2.658   2.920  0.5135  0.1554  0.1748
  189LIG     HA 2826   1.568   2.693   2.968  1.4161  1.1182  1.2116
  189LIG     CB 2827   1.661   2.686   2.768  0.4411  0.7870  1.1602
  189LIG    HB1 2828   1.755   2.648   2.721  0.9834  1.9299  1.3238
  189LIG    HB2 2829   1.670   2.793   2.741  0.5453  0.8374  1.3983
  189LIG     CG 2830   1.524   2.656   2.702 -0.4025 -0.2293 -0.0370
  189LIG    OD1 2831   1.518   2.615   2.585  0.1184 -0.0183  0.4174
  189LIG    OD2 2832   1.426   2.700   2.758  0.1283 -0.8791 -0.1580
  189LIG      C 2833   1.657   2.500   2.926  0.8977  0.5487  0.3225
  189LIG    OT1 2834   1.759   2.440   2.964 -0.2372  0.5872 -0.8389
  189LIG    OT2 2835   1.556   2.431   2.905  0.2169 -0.0044 -0.1275
  190LIG      N 2836   8.777   1.209   0.178  0.5597  0.6538 -0.4248
  190LIG     H1 2837   8.711   1.180   0.103  0.0398  0.6691  0.0218
  190LIG     H2 2838   8.725   1.282   0.231  1.5204  2.7257 -2.2255
  190LIG     H3 2839   8.856   1.261   0.135 -1.2826  1.9043 -2.4174
  190LIG     CA 2840   8.826   1.094   0.256  0.5602  0.6226  0.3376
  190LIG     HA 2841   8.746   1.052   0.314  1.8342 -1.2037  0.8256
  190LIG     CB 2842   8.882   0.996   0.146 -0.0333 -0.3949  0.3497
  190LIG    HB1 2843   8.966   1.047   0.095 -0.6009  1.7006  1.4318
  190LIG    HB2 2844   8.793   0.975   0.082  0.1965  0.3719 -0.2272
  190LIG     CG 2845   8.919   0.861   0.203 -0.0784  1.5851  0.1829
  190LIG    OD1 2846   9.028   0.807   0.163  0.3574  0.1453 -0.4033
  190LIG    OD2 2847   8.838   0.798   0.274 -0.1445 -0.1926  0.5576
  190LIG      C 2848   8.937   1.141   0.356  0.1194 -0.0574 -0.8060
  190LIG    OT1 2849   8.972   1.261   0.362  0.2717  0.9717  0.4705
  190LIG    OT2 2850   8.991   1.051   0.437  0.4652 -0.1482 -0.5231
  191LIG      N 2851   9.955   5.307   2.302  0.4204  0.2859  0.4101
  191LIG     H1 2852   9.891   5.267   2.231  1.1898  0.3448 -0.3192
  191LIG     H2 2853  10.032   5.352   2.249  0.3656 -1.1365 -0.8891
  191LIG     H3 2854   9.996   5.235   2.365  1.0180 -0.1053 -0.4236
  191LIG     CA 2855   9.885   5.406   2.394  1.3116 -0.1750  0.4602
  191LIG     HA 2856   9.963   5.473   2.427 -0.4644  2.0574  0.1885
  191LIG     CB 2857   9.783   5.477   2.300  0.3269  0.3864  0.0890
  191LIG    HB1 2858   9.710   5.417   2.241 -0.5976 -1.7600  3.2696
  191LIG    HB2 2859   9.843   5.513   2.214  0.5057  0.0229  0.0622
  191LIG     CG 2860   9.725   5.602   2.367  0.0861 -0.4273 -0.4261
  191LIG    OD1 2861   9.601   5.609   2.382 -0.2340 -0.0933  0.6886
  191LIG    OD2 2862   9.798   5.703   2.395  0.0533  0.3567 -0.0259
  191LIG      C 2863   9.824   5.353   2.518  0.3776  0.7542  0.8069
  191LIG    OT1 2864   9.832   5.229   2.529 -0.0740  0.0406  0.2352
  191LIG    OT2 2865   9.769   5.423   2.603 -0.1145 -0.4155  0.2854
  192LIG      N 2866   1.174   2.471   5.713 -0.0003  0.5520 -0.0654
  192LIG     H1 2867   1.274   2.475   5.744  0.0161 -0.9420  0.1116
  192LIG     H2 2868   1.174   2.461   5.610 -2.1025  1.2547 -0.1540
  192LIG     H3 2869   1.132   2.563   5.735  1.3764  0.9967  0.8054
  192LIG     CA 2870   1.105   2.359   5.788  0.4011 -1.4400  0.2534
  192LIG     HA 2871   1.149   2.269   5.748  1.5022 -0.9863  0.4488
  192LIG     CB 2872   1.136   2.383   5.939  0.1169  0.7408  0.2074
  192LIG    HB1 2873   1.104   2.481   5.981  0.4633  1.7898 -1.9023
  192LIG    HB2 2874   1.247   2.381   5.949 -0.1749 -1.0802  3.8087
  192LIG     CG 2875   1.069   2.271   6.023  0.2979  0.3936 -0.2098
  192LIG    OD1 2876   1.008   2.305   6.128 -0.4328  0.3813 -0.4768
  192LIG    OD2 2877   1.109   2.151   5.995 -0.1201  0.0220 -0.2130
  192LIG      C 2878   0.952   2.375   5.756 -0.5528  0.0901 -0.0911
  192LIG    OT1 2879   0.909   2.465   5.687  0.2116  0.6523  0.4455
  192LIG    OT2 2880   0.869   2.291   5.807 -0.4851  0.1868  0.0770
  193LIG      N 2881   7.948   2.988   9.978 -0.4607  0.6052 -0.3064
  193LIG     H1 2882   7.861   3.008   9.925  0.2607  0.4733 -1.5393
  193LIG     H2 2883   7.933   3.034  10.070 -0.4824 -0.0035  0.0003
  193LIG     H3 2884   8.027   3.029   9.926 -0.1152 -1.0835 -1.1495
  193LIG     CA 2885   7.955   2.838   9.990  0.3890 -0.8285  0.4609
  193LIG     HA 2886   7.857   2.807   9.956  1.0552  0.0338 -2.3941
  193LIG     CB 2887   8.049   2.782   9.889  0.1633  0.3088 -0.2939
  193LIG    HB1 2888   8.154   2.807   9.917  0.3217 -0.7778  0.0768
  193LIG    HB2 2889   8.023   2.842   9.798 -1.3703 -0.6817 -0.5197
  193LIG     CG 2890   8.028   2.632   9.858 -0.4509  0.2197 -1.0372
  193LIG    OD1 2891   8.123   2.550   9.841 -0.0186  0.4851  0.0480
  193LIG    OD2 2892   7.906   2.588   9.853  0.4907 -0.0882 -0.0262
  193LIG      C 2893   7.965   2.785  10.135 -0.9040 -0.2702 -0.1100
  193LIG    OT1 2894   7.964   2.869  10.233  0.0079 -0.4677  0.2707
  193LIG    OT2 2895   7.976   2.660  10.148  0.8212 -0.0428  0.1377
  194LIG      N 2896   5.676   8.704   1.518  0.1872 -0.4491 -0.0051
  194LIG     H1 2897   5.640   8.648   1.597  2.5716 -1.7406  0.2316
  194LIG     H2 2898   5.679   8.629   1.445 -3.0680  0.1921 -0.8565
  194LIG     H3 2899   5.768   8.745   1.545 -0.3078  0.5633  0.1456
  194LIG     CA 2900   5.597   8.820   1.483 -0.2560  0.7824  0.4413
  194LIG     HA 2901   5.500   8.772   1.489 -0.2283  0.5115 -0.9745
  194LIG     CB 2902   5.628   8.938   1.578 -0.1899 -0.4504  0.2355
  194LIG    HB1 2903   5.714   9.003   1.548 -1.7736  1.0821 -1.1487
  194LIG    HB2 2904   5.650   8.914   1.684  0.7288  0.7440  0.3412
  194LIG     CG 2905   5.503   9.027   1.580  0.1237 -0.0111  0.5606
  194LIG    OD1 2906   5.522   9.148   1.580 -0.0910 -0.0590 -0.2928
  194LIG    OD2 2907   5.390   8.977   1.580  0.3300 -0.3435  0.5567
  194LIG      C 2908   5.617   8.872   1.333  0.2747  0.1194  0.5958
  194LIG    OT1 2909   5.707   8.823   1.261  0.3564 -0.4194 -0.5955
  194LIG    OT2 2910   5.550   8.968   1.292  0.4880  0.0967 -0.6708
  195LIG      N 2911   9.700   9.355   4.522  0.0648  0.1346 -0.1006
  195LIG     H1 2912   9.706   9.446   4.472 -1.8947  0.1608 -0.3564
  195LIG     H2 2913   9.663   9.280   4.461 -0.2767 -0.8740  1.3155
  195LIG     H3 2914   9.627   9.375   4.594  1.6619  1.2755  1.2346
  195LIG     CA 2915   9.829   9.310   4.576  1.0952  0.5107 -0.8855
  195LIG     HA 2916   9.892   9.271   4.498  1.1489 -1.2038 -0.0281
  195LIG     CB 2917   9.892   9.426   4.661  0.3854 -0.3551 -0.1856
  195LIG    HB1 2918   9.840   9.439   4.759 -0.0361 -1.2135 -0.2905
  195LIG    HB2 2919   9.884   9.523   4.607  0.3287  0.3519  1.0716
  195LIG     CG 2920  10.040   9.394   4.672 -0.1440 -0.0919  0.7087
  195LIG    OD1 2921  10.090   9.390   4.789 -1.1334 -0.9510 -0.6776
  195LIG    OD2 2922  10.110   9.397   4.568 -0.0163  0.0661  0.1628
  195LIG      C 2923   9.809   9.177   4.657  0.4956  0.0682 -0.5526
  195LIG    OT1 2924   9.694   9.130   4.689 -0.0762  0.0510  0.0447
  195LIG    OT2 2925   9.917   9.121   4.697  0.6422 -0.4245  0.1373
  196LIG      N 2926   2.110   2.876   2.747 -0.4630  0.6451 -0.0307
  196LIG     H1 2927   2.042   2.797   2.759 -0.9848  1.0408 -0.3614
  196LIG     H2 2928   2.066   2.966   2.776  0.3340  1.2936 -0.8326
  196LIG     H3 2929   2.119   2.891   2.645  1.5453  3.1517  0.4828
  196LIG     CA 2930   2.237   2.850   2.808 -0.8882  0.4343  0.4784
  196LIG     HA 2931   2.294   2.938   2.787  1.0171 -0.5750  1.2668
  196LIG     CB 2932   2.212   2.829   2.958  0.5108 -0.0485  0.2507
  196LIG    HB1 2933   2.175   2.728   2.983  0.1159  0.4112  1.6153
  196LIG    HB2 2934   2.137   2.903   2.997 -3.1808 -4.1781  1.3886
  196LIG     CG 2935   2.339   2.839   3.040  0.5373  0.9645 -0.8555
  196LIG    OD1 2936   2.382   2.745   3.116 -0.5149  0.3265 -0.2380
  196LIG    OD2 2937   2.393   2.955   3.037  0.1557  0.6452 -0.3692
  196LIG      C 2938   2.295   2.719   2.734 -0.2525 -0.2749  0.3222
  196LIG    OT1 2939   2.222   2.651   2.657  0.7923 -0.2257 -0.0506
  196LIG    OT2 2940   2.414   2.687   2.763  0.0911  0.0857 -0.3975
  197LIG      N 2941   9.604   4.112   7.498 -0.0575  0.0435  0.6382
  197LIG     H1 2942   9.684   4.144   7.555 -0.1397  0.1577  0.6900
  197LIG     H2 2943   9.553   4.190   7.452  0.8370  0.7764  0.8890
  197LIG     H3 2944   9.534   4.075   7.566  2.0636  0.6404  3.2315
  197LIG     CA 2945   9.650   3.996   7.408  0.7550 -0.0650 -0.1184
  197LIG     HA 2946   9.574   3.972   7.336  0.1050 -1.3409  0.9654
  197LIG     CB 2947   9.767   4.067   7.328 -0.3618  0.0431 -0.6220
  197LIG    HB1 2948   9.850   4.084   7.401 -0.9319  2.1817 -0.4196
  197LIG    HB2 2949   9.730   4.165   7.291  0.1259  0.4667 -0.0016
  197LIG     CG 2950   9.813   3.986   7.217 -0.5063 -0.0583 -0.1584
  197LIG    OD1 2951   9.934   3.975   7.191  0.0479  0.2852 -0.3942
  197LIG    OD2 2952   9.725   3.933   7.144 -0.2248 -0.0555 -0.2657
  197LIG      C 2953   9.692   3.868   7.482  0.3752  0.2714  0.1782
  197LIG    OT1 2954   9.664   3.857   7.605 -0.1964  0.0283  0.0685
  197LIG    OT2 2955   9.748   3.772   7.416  0.2770 -0.0397  0.3207
  198LIG      N 2956   0.721   4.086   3.096 -0.0103 -0.5263 -0.5457
  198LIG     H1 2957   0.762   4.007   3.150 -0.0939  0.5622  1.1489
  198LIG     H2 2958   0.803   4.140   3.061 -0.4873  0.0754 -0.7558
  198LIG     H3 2959   0.651   4.131   3.159  0.6739  0.1747 -0.2659
  198LIG     CA 2960   0.652   4.020   2.973  0.0309  0.5618 -0.4847
  198LIG     HA 2961   0.554   3.998   3.013  0.1518  1.1018  0.1122
  198LIG     CB 2962   0.640   4.144   2.869 -0.0060 -0.3785 -0.8816
  198LIG    HB1 2963   0.743   4.175   2.839  0.5831 -1.0756  0.3550
  198LIG    HB2 2964   0.600   4.229   2.928  0.4444 -1.0213  0.3764
  198LIG     CG 2965   0.541   4.104   2.771 -0.1147 -1.1545  0.5225
  198LIG    OD1 2966   0.561   4.143   2.650  0.2075  0.1441 -0.2361
  198LIG    OD2 2967   0.437   4.043   2.797  0.0159  0.4031 -0.4378
  198LIG      C 2968   0.728   3.900   2.908 -0.2109 -0.0137  0.0778
  198LIG    OT1 2969   0.851   3.878   2.936  0.3361 -0.0554  0.0331
  198LIG    OT2 2970   0.669   3.838   2.819 -0.5170  0.5613 -0.2119
  199LIG      N 2971   4.827   5.292   0.854  0.2927  0.4209 -0.3102
  199LIG     H1 2972   4.896   5.218   0.828  0.9501  0.3593  1.5500
  199LIG     H2 2973   4.877   5.383   0.860  0.3037  0.3381  0.9852
  199LIG     H3 2974   4.791   5.269   0.949  2.3539  0.0226  0.3895
  199LIG     CA 2975   4.720   5.312   0.746  0.1669 -0.1087 -0.0435
  199LIG     HA 2976   4.674   5.215   0.733 -0.7315  0.3002  0.0215
  199LIG     CB 2977   4.624   5.422   0.794 -0.1367  0.1488 -0.0851
  199LIG    HB1 2978   4.675   5.520   0.796 -1.3127  0.8153 -1.4284
  199LIG    HB2 2979   4.593   5.416   0.900 -1.4142  2.2134 -0.3107
  199LIG     CG 2980   4.497   5.416   0.712  0.0119  1.1969 -0.2934
  199LIG    OD1 2981   4.472   5.517   0.645  0.2261  0.0227 -0.8346
  199LIG    OD2 2982   4.419   5.317   0.723 -0.1581  0.6418  0.1080
  199LIG      C 2983   4.786   5.344   0.605 -0.0938  0.3045 -0.2840
  199LIG    OT1 2984   4.911   5.366   0.594 -0.4595 -0.0312 -1.2197
  199LIG    OT2 2985   4.720   5.345   0.499  0.3247  0.2398  0.2003
  200LIG      N 2986   7.416   0.003   7.929 -0.5394  0.6502 -0.5022
  200LIG     H1 2987   7.384   0.049   7.841 -1.1496  0.7579 -0.2256
  200LIG     H2 2988   7.391  -0.098   7.925  0.6367  0.3225  0.1602
  200LIG     H3 2989   7.354   0.036   8.006 -0.2004 -0.1171  0.1057
  200LIG     CA 2990   7.557   0.043   7.969 -1.2558  1.2921  0.1257
  200LIG     HA 2991   7.620   0.028   7.883  0.7519 -2.8981  2.1854
  200LIG     CB 2992   7.558   0.181   8.012  0.0319 -0.7908  0.5662
  200LIG    HB1 2993   7.503   0.198   8.107 -1.5806  0.2796 -0.5303
  200LIG    HB2 2994   7.507   0.244   7.937 -0.3094 -1.1306  0.5107
  200LIG     CG 2995   7.697   0.245   8.021  0.3789 -0.6459 -0.0657
  200LIG    OD1 2996   7.723   0.342   8.097 -1.1476 -0.1237  0.0960
  200LIG    OD2 2997   7.777   0.208   7.935  0.5861 -0.2032 -0.4598
  200LIG      C 2998   7.613  -0.058   8.087  0.0714 -0.5625  0.1960
  200LIG    OT1 2999   7.535  -0.136   8.141 -0.1808  0.5462  0.2976
  200LIG    OT2 3000   7.731  -0.036   8.128  0.2616  0.1036 -0.2012
  201LIG      N 3001   9.632   1.034   7.281  0.6845 -0.0179 -0.1305
  201LIG     H1 3002   9.615   1.043   7.178 -1.9103 -3.0180 -0.0682
  201LIG     H2 3003   9.594   0.940   7.306 -0.0228  0.0689 -0.8581
  201LIG     H3 3004   9.582   1.112   7.327 -2.7612 -1.4763 -1.1870
  201LIG     CA 3005   9.780   1.024   7.300 -0.6457  0.0707 -0.6963
  201LIG     HA 3006   9.819   0.982   7.209 -0.1266 -0.1047 -0.3963
  201LIG     CB 3007   9.838   1.168   7.321 -0.2412  0.2796 -0.5150
  201LIG    HB1 3008   9.802   1.202   7.420 -0.4719 -1.4383 -0.0023
  201LIG    HB2 3009   9.797   1.233   7.241  0.5497  0.7398 -0.5520
  201LIG     CG 3010   9.985   1.168   7.311 -0.2532  0.1117 -0.3615
  201LIG    OD1 3011  10.054   1.247   7.377  0.0274  0.1582 -0.2485
  201LIG    OD2 3012  10.031   1.112   7.210 -0.0630 -0.4075 -0.3848
  201LIG      C 3013   9.815   0.934   7.423  0.1012 -0.0050  0.3750
  201LIG    OT1 3014   9.717   0.892   7.496  0.1521  0.0537 -0.6668
  201LIG    OT2 3015   9.935   0.900   7.446  0.4748  0.5627 -0.4964
  202LIG      N 3016   7.315   9.652   1.818  0.0871  0.0381 -0.2051
  202LIG     H1 3017   7.331   9.748   1.854 -1.3453  0.0045  0.5458
  202LIG     H2 3018   7.234   9.652   1.753 -0.6897  0.0338  0.7631
  202LIG     H3 3019   7.297   9.594   1.902  2.3622 -0.5020 -0.0424
  202LIG     CA 3020   7.437   9.596   1.759  0.3587  0.7214 -0.2313
  202LIG     HA 3021   7.468   9.671   1.688 -0.0465 -1.2792 -2.5790
  202LIG     CB 3022   7.553   9.580   1.864  0.4760 -0.1433  0.2376
  202LIG    HB1 3023   7.642   9.559   1.801  0.8286  0.3715  0.5652
  202LIG    HB2 3024   7.539   9.493   1.932 -0.2878  0.3597  0.7305
  202LIG     CG 3025   7.578   9.706   1.943  0.3796  0.5578 -0.1836
  202LIG    OD1 3026   7.685   9.716   2.006  0.1904  0.0127  0.4918
  202LIG    OD2 3027   7.500   9.806   1.942  0.4766 -0.0712 -0.4944
  202LIG      C 3028   7.419   9.462   1.691  0.2113  0.5021  0.4009
  202LIG    OT1 3029   7.314   9.388   1.699 -0.5884 -0.5425 -0.1175
  202LIG    OT2 3030   7.524   9.414   1.630  0.9172  0.1452 -0.3223
  203LIG      N 3031   1.652   0.857   3.126 -0.5456  0.5934  0.6374
  203LIG     H1 3032   1.611   0.915   3.202  2.3389  1.9584  1.2146
  203LIG     H2 3033   1.638   0.756   3.143  1.0355  0.1204 -0.7552
  203LIG     H3 3034   1.755   0.868   3.127 -0.5036  0.2241  0.4092
  203LIG     CA 3035   1.592   0.891   2.995  0.7976  0.2575 -0.0473
  203LIG     HA 3036   1.599   0.999   3.000 -3.9015  0.5659  2.9303
  203LIG     CB 3037   1.688   0.828   2.885 -0.2182 -0.3911  0.2968
  203LIG    HB1 3038   1.688   0.717   2.876 -0.3416 -0.3416 -0.3131
  203LIG    HB2 3039   1.796   0.841   2.909 -0.5280 -1.7617  2.6392
  203LIG     CG 3040   1.677   0.903   2.751 -0.6984  0.1906  0.3299
  203LIG    OD1 3041   1.679   0.843   2.639  0.0262 -0.0158 -0.2974
  203LIG    OD2 3042   1.682   1.023   2.763 -0.0113 -0.2308 -0.3412
  203LIG      C 3043   1.444   0.844   2.969  0.5183 -0.0747  0.0788
  203LIG    OT1 3044   1.384   0.788   3.065 -0.8182  0.9961  0.0862
  203LIG    OT2 3045   1.389   0.880   2.860 -0.4335  0.4279 -0.3705
  204LIG      N 3046   0.064   3.736   1.647 -0.0453  0.1792  0.3072
  204LIG     H1 3047   0.013   3.821   1.676 -1.3217 -0.6271  0.4602
  204LIG     H2 3048   0.068   3.676   1.732  0.5622  0.7262  0.6656
  204LIG     H3 3049   0.161   3.773   1.635  0.3801 -1.3587 -1.3245
  204LIG     CA 3050  -0.001   3.677   1.527 -0.1941  0.5277  0.2600
  204LIG     HA 3051   0.063   3.611   1.471 -1.7935  1.6173 -2.9735
  204LIG     CB 3052  -0.116   3.588   1.583 -0.3940  0.2730 -0.3627
  204LIG    HB1 3053  -0.193   3.656   1.625  0.2647  0.0937  1.1625
  204LIG    HB2 3054  -0.086   3.513   1.659  0.0233  1.7500  0.9624
  204LIG     CG 3055  -0.176   3.503   1.466 -0.7411  0.2736  0.0084
  204LIG    OD1 3056  -0.302   3.496   1.478  0.5773  0.6659  0.4879
  204LIG    OD2 3057  -0.096   3.446   1.389  0.3788  0.3715 -0.2213
  204LIG      C 3058  -0.048   3.785   1.425 -0.3468 -0.2303  0.6988
  204LIG    OT1 3059  -0.052   3.913   1.453  0.0715 -1.1783 -0.2903
  204LIG    OT2 3060  -0.084   3.751   1.307  0.3230 -0.0290 -0.6214
  205LIG      N 3061   4.314   1.023   3.522 -0.2562 -0.1460 -0.8869
  205LIG     H1 3062   4.214   1.045   3.506 -0.0985 -0.5299 -2.4593
  205LIG     H2 3063   4.316   0.958   3.603 -1.0566  0.4360 -0.3993
  205LIG     H3 3064   4.370   1.107   3.546 -1.1231  0.7411 -1.8970
  205LIG     CA 3065   4.389   0.963   3.407  0.4010  0.3720  0.2787
  205LIG     HA 3066   4.427   1.049   3.354 -0.6476  1.1556  0.7737
  205LIG     CB 3067   4.509   0.880   3.466 -0.3667  0.5413  0.1810
  205LIG    HB1 3068   4.469   0.777   3.478 -2.5992  1.2106 -1.2101
  205LIG    HB2 3069   4.560   0.922   3.555  1.7874 -1.4994 -0.0175
  205LIG     CG 3070   4.616   0.886   3.364  0.6101 -0.5974  0.8369
  205LIG    OD1 3071   4.704   0.799   3.391 -0.0799  0.3384  0.1804
  205LIG    OD2 3072   4.629   0.987   3.284  0.3072  0.9673 -0.3535
  205LIG      C 3073   4.303   0.887   3.305 -0.8653  0.3252 -0.5527
  205LIG    OT1 3074   4.179   0.891   3.323 -0.0637  0.3707 -0.1553
  205LIG    OT2 3075   4.355   0.830   3.204 -0.3909  0.1302  0.0551
  206LIG      N 3076   1.167   3.520   2.513  0.3551  0.9237 -0.1735
  206LIG     H1 3077   1.102   3.440   2.526  0.6955  0.5790 -0.6076
  206LIG     H2 3078   1.267   3.492   2.509 -0.1323 -0.9142 -0.0147
  206LIG     H3 3079   1.147   3.578   2.597  1.6936  2.4248 -0.8731
  206LIG     CA 3080   1.129   3.596   2.389 -0.8843  0.1371  0.8136
  206LIG     HA 3081   1.139   3.513   2.320  1.8887 -0.8124  2.3136
  206LIG     CB 3082   0.981   3.642   2.409  0.1031 -0.9458  0.8192
  206LIG    HB1 3083   0.986   3.751   2.424 -0.2863 -0.8319  0.1596
  206LIG    HB2 3084   0.933   3.577   2.485 -0.3335  1.3804  2.5688
  206LIG     CG 3085   0.911   3.624   2.277  0.1752  0.6279 -0.5736
  206LIG    OD1 3086   0.833   3.718   2.240  0.3157 -0.8944 -0.0206
  206LIG    OD2 3087   0.919   3.520   2.209  0.1256  0.2240  0.6038
  206LIG      C 3088   1.216   3.711   2.339 -0.2563 -1.0510  0.0699
  206LIG    OT1 3089   1.314   3.756   2.403 -0.6426  0.1591 -0.3237
  206LIG    OT2 3090   1.185   3.755   2.222  0.0968  0.0919  0.1157
  207LIG      N 3091   7.667   1.473   0.017  1.0018 -0.2279  0.0935
  207LIG     H1 3092   7.721   1.555   0.053  0.0818  0.1926  0.5493
  207LIG     H2 3093   7.703   1.459  -0.080  1.1565  2.5547 -0.2939
  207LIG     H3 3094   7.566   1.494   0.023  1.4200  1.8614  0.2528
  207LIG     CA 3095   7.709   1.352   0.093  0.1675 -0.6733  0.5322
  207LIG     HA 3096   7.697   1.379   0.197  0.1961 -0.0942  0.3842
  207LIG     CB 3097   7.608   1.236   0.045  0.3964  1.0025  0.3401
  207LIG    HB1 3098   7.653   1.198  -0.049 -1.0213  1.2546 -0.4413
  207LIG    HB2 3099   7.509   1.284   0.032  0.1902  0.3660 -0.4250
  207LIG     CG 3100   7.597   1.124   0.142 -0.1795  0.1291  0.5565
  207LIG    OD1 3101   7.576   1.008   0.105 -0.1839  0.5969  0.2958
  207LIG    OD2 3102   7.611   1.153   0.268  0.2189 -0.7053 -0.3724
  207LIG      C 3103   7.860   1.333   0.075  0.6656 -0.1474 -0.2646
  207LIG    OT1 3104   7.924   1.406  -0.007  0.3740 -0.6018 -0.3127
  207LIG    OT2 3105   7.916   1.233   0.133  0.2956 -0.9836  0.5186
  208LIG      N 3106   3.606   8.352   9.418 -1.0330 -0.1124  0.8253
  208LIG     H1 3107   3.540   8.430   9.438 -1.1746 -0.1947  0.6771
  208LIG     H2 3108   3.585   8.303   9.329 -0.9901 -0.1819  0.8523
  208LIG     H3 3109   3.582   8.278   9.487 -0.7532 -1.6244 -0.6556
  208LIG     CA 3110   3.752   8.381   9.415  0.5819 -0.3760  0.9149
  208LIG     HA 3111   3.805   8.300   9.366 -0.0536  1.4495 -2.9389
  208LIG     CB 3112   3.762   8.520   9.341  0.0647  0.5355 -0.5318
  208LIG    HB1 3113   3.719   8.613   9.385 -0.2565  0.4439 -0.6505
  208LIG    HB2 3114   3.716   8.510   9.241 -0.2456  0.8400 -0.4243
  208LIG     CG 3115   3.912   8.547   9.319 -0.3719  0.4059  0.4333
  208LIG    OD1 3116   3.968   8.651   9.361 -0.6660 -0.0264  0.3479
  208LIG    OD2 3117   3.977   8.459   9.257 -0.2245 -0.3442 -0.2288
  208LIG      C 3118   3.814   8.392   9.557 -0.0957 -0.2305  0.1563
  208LIG    OT1 3119   3.744   8.373   9.658 -0.1257  0.1122 -0.4430
  208LIG    OT2 3120   3.935   8.397   9.565  0.6275  0.6438 -0.3738
  209LIG      N 3121   5.949   5.452   0.632  0.1819  0.1066  0.4194
  209LIG     H1 3122   5.860   5.434   0.684 -1.4711  2.3183 -1.5447
  209LIG     H2 3123   5.956   5.555   0.619 -0.7833  0.0453 -0.7180
  209LIG     H3 3124   5.941   5.409   0.538 -0.0806  0.9214  0.0603
  209LIG     CA 3125   6.052   5.400   0.720 -0.2468  0.5539  0.0954
  209LIG     HA 3126   6.138   5.466   0.713  0.6077 -0.3989  1.2721
  209LIG     CB 3127   5.996   5.398   0.863 -0.4348  0.0093 -0.5344
  209LIG    HB1 3128   5.945   5.299   0.870 -0.8847  0.3203  0.6440
  209LIG    HB2 3129   5.926   5.477   0.896  1.1634  0.5128  1.7671
  209LIG     CG 3130   6.110   5.395   0.970  0.4017 -0.4465 -0.3347
  209LIG    OD1 3131   6.116   5.309   1.056  0.2164 -0.2045 -0.1663
  209LIG    OD2 3132   6.177   5.500   0.969 -0.3650 -0.4378 -0.8745
  209LIG      C 3133   6.118   5.262   0.683 -0.4914 -0.0258  0.4202
  209LIG    OT1 3134   6.058   5.192   0.592 -0.7422  0.5340 -0.3601
  209LIG    OT2 3135   6.211   5.214   0.749  0.6533  0.3449 -0.0623
  210LIG      N 3136   8.789   2.414   3.769  0.0119  0.4340  0.0618
  210LIG     H1 3137   8.860   2.449   3.702 -0.0251 -0.5456 -0.5083
  210LIG     H2 3138   8.812   2.424   3.870 -0.4711  1.0723  0.1103
  210LIG     H3 3139   8.780   2.313   3.745  1.2266  0.4998 -0.6931
  210LIG     CA 3140   8.657   2.481   3.735 -0.1389 -0.0344 -0.6580
  210LIG     HA 3141   8.679   2.586   3.744 -0.2054 -0.1283  0.6914
  210LIG     CB 3142   8.622   2.426   3.599  0.7418 -0.2709 -0.3358
  210LIG    HB1 3143   8.591   2.320   3.605 -1.9913  0.5252  0.2641
  210LIG    HB2 3144   8.698   2.442   3.519  0.0982  1.5366 -0.6158
  210LIG     CG 3145   8.506   2.495   3.542 -0.3504 -0.5445  0.1513
  210LIG    OD1 3146   8.409   2.424   3.500  0.0327 -0.2083  0.3614
  210LIG    OD2 3147   8.524   2.616   3.511 -0.1680 -0.5258 -0.6889
  210LIG      C 3148   8.554   2.451   3.855  1.0385  0.8267  0.6053
  210LIG    OT1 3149   8.590   2.381   3.952  0.0092  0.6871 -0.2797
  210LIG    OT2 3150   8.447   2.512   3.856  0.2073 -0.0143  0.6842
  211LIG      N 3151   6.712   1.271   9.698  0.0851  0.0880  0.0370
  211LIG     H1 3152   6.633   1.331   9.666 -0.1220 -0.4386 -0.4512
  211LIG     H2 3153   6.686   1.181   9.653 -1.9093  1.1340 -0.9416
  211LIG     H3 3154   6.709   1.259   9.801  0.5317  1.1406  0.1828
  211LIG     CA 3155   6.842   1.341   9.658  1.1715 -0.0817  0.6744
  211LIG     HA 3156   6.920   1.269   9.678 -0.2024 -1.7386  0.1813
  211LIG     CB 3157   6.822   1.369   9.506 -0.4517 -0.3992 -0.6184
  211LIG    HB1 3158   6.766   1.464   9.495 -0.6660  0.0204  3.3232
  211LIG    HB2 3159   6.773   1.285   9.452 -2.1882  0.0125  0.2837
  211LIG     CG 3160   6.954   1.387   9.438  0.2323 -0.0128 -0.2959
  211LIG    OD1 3161   6.954   1.488   9.360  0.0557  0.3204  0.2640
  211LIG    OD2 3162   7.048   1.305   9.442  0.0614  0.0574 -0.1116
  211LIG      C 3163   6.865   1.474   9.732 -0.4159 -0.0660  0.1202
  211LIG    OT1 3164   6.776   1.527   9.801  0.1770  0.6169  0.5083
  211LIG    OT2 3165   6.976   1.536   9.726  0.7609 -0.6899  0.4336
  212LIG      N 3166   7.387   0.703   8.363 -0.0380  0.2411  0.3860
  212LIG     H1 3167   7.389   0.807   8.366  1.0403  0.2187  0.4230
  212LIG     H2 3168   7.458   0.660   8.301 -0.7890 -1.9755  1.0073
  212LIG     H3 3169   7.292   0.673   8.333  0.8748  0.0231 -2.3867
  212LIG     CA 3170   7.416   0.633   8.496  0.6256  0.6853  0.5958
  212LIG     HA 3171   7.499   0.682   8.545  1.2108  0.5133 -0.2095
  212LIG     CB 3172   7.288   0.642   8.595  0.0590 -0.0553  0.4427
  212LIG    HB1 3173   7.201   0.577   8.572  0.4051 -0.5896  0.6362
  212LIG    HB2 3174   7.245   0.744   8.593  0.2987  0.0246 -1.3091
  212LIG     CG 3175   7.331   0.617   8.744 -0.4413  0.0510  0.0682
  212LIG    OD1 3176   7.284   0.524   8.816  0.2104 -0.2844  0.1483
  212LIG    OD2 3177   7.419   0.697   8.792  0.8472 -0.5426  0.2611
  212LIG      C 3178   7.457   0.484   8.463  0.5612 -0.1979  0.2421
  212LIG    OT1 3179   7.459   0.444   8.343 -0.0598  0.0117  0.1171
  212LIG    OT2 3180   7.494   0.413   8.556 -0.1219 -0.3761  0.2280
  213LIG      N 3181   0.378   0.567   2.093  0.5420  1.0194 -0.0526
  213LIG     H1 3182   0.455   0.599   2.156 -0.8182  2.5662  0.8472
  213LIG     H2 3183   0.290   0.609   2.127  0.8460  1.4248  0.2421
  213LIG     H3 3184   0.361   0.467   2.113 -0.0702  1.3007  0.8227
  213LIG     CA 3185   0.404   0.598   1.942  0.1332  0.0956  0.1663
  213LIG     HA 3186   0.505   0.573   1.912  0.7936 -0.0013  2.3867
  213LIG     CB 3187   0.299   0.516   1.866  0.2830 -0.1355  0.2791
  213LIG    HB1 3188   0.194   0.546   1.888  0.3876 -0.6117  1.4664
  213LIG    HB2 3189   0.307   0.411   1.900 -1.4028 -0.4347 -0.2420
  213LIG     CG 3190   0.337   0.509   1.725  0.5733  0.4067  0.4327
  213LIG    OD1 3191   0.255   0.558   1.643 -0.5037 -0.6614 -0.2385
  213LIG    OD2 3192   0.441   0.453   1.688 -0.4047 -0.2468  0.3370
  213LIG      C 3193   0.388   0.751   1.911  0.3773  0.4326 -0.5201
  213LIG    OT1 3194   0.340   0.821   2.002  0.3519  0.0190 -0.4856
  213LIG    OT2 3195   0.435   0.800   1.807 -0.0802 -0.3139 -0.1637
  214LIG      N 3196   7.527   0.586   1.760 -0.2027 -0.0115 -0.1171
  214LIG     H1 3197   7.597   0.634   1.820 -0.1374 -1.2986  0.8492
  214LIG     H2 3198   7.584   0.527   1.696 -0.3412 -1.0079  0.6707
  214LIG     H3 3199   7.469   0.647   1.699 -2.5601 -1.4401  0.6333
  214LIG     CA 3200   7.434   0.505   1.838 -0.0496 -0.9601 -0.2324
  214LIG     HA 3201   7.487   0.417   1.870 -0.8436 -0.5757  2.2172
  214LIG     CB 3202   7.405   0.585   1.970 -0.3400  0.0267  0.1179
  214LIG    HB1 3203   7.335   0.668   1.948 -1.8483 -1.0571  0.8096
  214LIG    HB2 3204   7.508   0.621   1.993 -0.1401  2.1242 -3.5903
  214LIG     CG 3205   7.349   0.501   2.074 -0.7711 -0.2933 -0.0510
  214LIG    OD1 3206   7.244   0.535   2.136  0.2030 -0.2321  0.1373
  214LIG    OD2 3207   7.418   0.400   2.112  0.2698  0.5460 -0.1284
  214LIG      C 3208   7.303   0.458   1.764  0.4492 -0.5732 -0.5523
  214LIG    OT1 3209   7.285   0.493   1.644  1.6875 -0.4822  0.0645
  214LIG    OT2 3210   7.229   0.377   1.825 -0.0617 -0.1829 -0.2250
  215LIG      N 3211   2.513   1.110   8.592  0.4591  0.2998 -0.9873
  215LIG     H1 3212   2.424   1.067   8.627  1.5862 -0.4362  1.0454
  215LIG     H2 3213   2.538   1.167   8.675  0.6877 -1.5791  0.2932
  215LIG     H3 3214   2.491   1.173   8.512  1.7936  0.9997 -0.8056
  215LIG     CA 3215   2.613   0.994   8.571 -0.2140 -1.1088  0.2276
  215LIG     HA 3216   2.684   0.994   8.652  2.6083 -1.4083 -2.1610
  215LIG     CB 3217   2.526   0.863   8.575  0.4525 -0.5171  0.0632
  215LIG    HB1 3218   2.486   0.853   8.472  0.4135 -0.7883  0.1063
  215LIG    HB2 3219   2.435   0.875   8.638 -0.3183 -1.5648 -0.8165
  215LIG     CG 3220   2.605   0.749   8.619 -0.6368 -0.3499  0.2216
  215LIG    OD1 3221   2.561   0.629   8.601 -0.2449  0.0649  0.2016
  215LIG    OD2 3222   2.711   0.771   8.680  0.0116 -0.0632 -0.5819
  215LIG      C 3223   2.693   1.010   8.434  0.2361  0.2863  0.1410
  215LIG    OT1 3224   2.690   1.117   8.378 -0.3280  0.7629  0.2511
  215LIG    OT2 3225   2.772   0.921   8.399  0.4403  0.6236  0.1192
  216LIG      N 3226   3.656   9.853   1.538 -0.2712 -0.2958  0.1915
  216LIG     H1 3227   3.566   9.893   1.571 -0.2118 -0.6179  0.7472
  216LIG     H2 3228   3.653   9.754   1.568  0.8748 -0.7131 -1.0045
  216LIG     H3 3229   3.730   9.907   1.588  0.7033  0.1854 -1.7244
  216LIG     CA 3230   3.669   9.861   1.392  0.0043 -0.4890  0.7136
  216LIG     HA 3231   3.677   9.966   1.369 -0.3736 -0.6374 -0.1003
  216LIG     CB 3232   3.795   9.782   1.351 -0.3477 -0.2122 -0.3671
  216LIG    HB1 3233   3.772   9.674   1.341 -0.1818 -0.2141 -0.7192
  216LIG    HB2 3234   3.879   9.807   1.418  0.2119  1.3988 -1.6458
  216LIG     CG 3235   3.859   9.832   1.223  0.2482  0.2308  0.1078
  216LIG    OD1 3236   3.899   9.753   1.133 -0.2561 -0.0780  0.2000
  216LIG    OD2 3237   3.871   9.955   1.205  0.3324  0.1274  0.1932
  216LIG      C 3238   3.549   9.809   1.313  0.0260 -0.1959  0.2379
  216LIG    OT1 3239   3.456   9.751   1.377  0.4854  0.3168 -0.3272
  216LIG    OT2 3240   3.540   9.822   1.185 -0.2421  0.5676 -0.2435
  217LIG      N 3241   9.438   6.759   4.546  0.1918 -0.7589  0.1122
  217LIG     H1 3242   9.337   6.746   4.527 -0.0079 -1.2460  1.4853
  217LIG     H2 3243   9.443   6.814   4.634  1.4246 -0.4406 -0.1449
  217LIG     H3 3244   9.484   6.824   4.479  0.0755  1.5276  2.1766
  217LIG     CA 3245   9.516   6.636   4.567 -0.5559 -0.2511  0.0018
  217LIG     HA 3246   9.519   6.578   4.476 -1.7481  0.6565 -0.6245
  217LIG     CB 3247   9.656   6.685   4.626  0.3509  0.8086  0.1807
  217LIG    HB1 3248   9.633   6.714   4.731  0.3926  1.8864 -0.1001
  217LIG    HB2 3249   9.689   6.771   4.563 -0.5367  0.3862 -0.8689
  217LIG     CG 3250   9.763   6.574   4.612  1.1602  0.0477  0.0186
  217LIG    OD1 3251   9.833   6.548   4.709  1.0482 -0.0180 -0.3627
  217LIG    OD2 3252   9.782   6.527   4.498 -0.2607  0.0887  0.7702
  217LIG      C 3253   9.449   6.545   4.684  0.8847 -0.9290  0.1972
  217LIG    OT1 3254   9.359   6.592   4.756 -0.1935 -0.3449  0.2624
  217LIG    OT2 3255   9.499   6.437   4.706 -0.5792 -0.6467  0.2360
  218LIG      N 3256   1.037   7.689   8.434 -0.0549  0.4114 -0.4304
  218LIG     H1 3257   1.107   7.634   8.380  0.8974 -0.4870  1.6813
  218LIG     H2 3258   0.952   7.635   8.459 -0.3719  1.2399  0.3479
  218LIG     H3 3259   1.005   7.774   8.383 -0.9513 -0.9969 -2.2725
  218LIG     CA 3260   1.113   7.719   8.567 -0.3598 -1.0776  0.3402
  218LIG     HA 3261   1.042   7.750   8.642 -1.6813 -0.4666 -1.1165
  218LIG     CB 3262   1.185   7.593   8.611 -0.0435  0.1719 -1.1432
  218LIG    HB1 3263   1.290   7.583   8.576  0.9492 -1.4034  2.0501
  218LIG    HB2 3264   1.137   7.497   8.582  2.1757 -0.8631 -1.5438
  218LIG     CG 3265   1.204   7.595   8.766  0.3397 -0.1301  0.3543
  218LIG    OD1 3266   1.311   7.554   8.820  0.0053 -0.4222  0.0157
  218LIG    OD2 3267   1.105   7.627   8.835  0.5880  0.8170  0.6789
  218LIG      C 3268   1.206   7.844   8.557  0.4317  0.3525 -0.1624
  218LIG    OT1 3269   1.244   7.900   8.449 -0.4907  0.2372  0.3427
  218LIG    OT2 3270   1.246   7.886   8.669 -0.3789  0.0018 -0.1793
  219LIG      N 3271   2.571   9.942   4.095  0.1856 -0.6129  0.1591
  219LIG     H1 3272   2.637  10.016   4.127 -1.3570 -0.0552  2.1273
  219LIG     H2 3273   2.526   9.985   4.011  1.9016  1.5175  0.2928
  219LIG     H3 3274   2.497   9.921   4.164  0.4907 -1.7605  0.1361
  219LIG     CA 3275   2.641   9.819   4.050 -0.7832  0.1986  0.2466
  219LIG     HA 3276   2.575   9.781   3.974  0.0449  0.0259 -0.3948
  219LIG     CB 3277   2.778   9.882   4.012 -0.0315  0.1052  0.3603
  219LIG    HB1 3278   2.845   9.915   4.094 -1.4007 -0.5541  1.7871
  219LIG    HB2 3279   2.754   9.962   3.939 -0.8870 -1.2322 -0.8632
  219LIG     CG 3280   2.857   9.792   3.919 -0.6799 -0.2602  0.1116
  219LIG    OD1 3281   2.975   9.774   3.954 -0.0559  0.1888  0.1738
  219LIG    OD2 3282   2.807   9.748   3.816  0.2730  0.1999  0.2448
  219LIG      C 3283   2.658   9.707   4.159 -0.6776  0.0083  0.1794
  219LIG    OT1 3284   2.593   9.723   4.265 -0.0327 -0.1075  0.4349
  219LIG    OT2 3285   2.706   9.594   4.127 -0.1545  0.1055  0.1287
  220LIG      N 3286   0.987   8.272   7.401  1.0345 -0.4855 -0.1414
  220LIG     H1 3287   0.991   8.176   7.441  0.2490  0.4141  2.1506
  220LIG     H2 3288   1.061   8.280   7.328 -1.1796 -0.3340 -2.4275
  220LIG     H3 3289   1.003   8.345   7.473 -1.2087 -1.0929  1.0035
  220LIG     CA 3290   0.856   8.309   7.335 -0.4322  0.2268  0.2872
  220LIG     HA 3291   0.803   8.216   7.326 -1.3642  0.6587  1.1106
  220LIG     CB 3292   0.780   8.409   7.421  0.0306  0.0531 -0.6299
  220LIG    HB1 3293   0.829   8.509   7.424  0.1423 -0.0643  2.1137
  220LIG    HB2 3294   0.765   8.365   7.521 -0.2864 -0.4807 -0.9073
  220LIG     CG 3295   0.634   8.422   7.369 -0.8664 -0.7046 -0.0285
  220LIG    OD1 3296   0.579   8.542   7.385  0.3323  0.4463  0.1375
  220LIG    OD2 3297   0.581   8.318   7.326  0.0404 -0.0476 -0.4999
  220LIG      C 3298   0.879   8.376   7.197  0.8804 -0.0344  0.3118
  220LIG    OT1 3299   0.995   8.385   7.148 -0.2685 -0.5387 -0.0094
  220LIG    OT2 3300   0.779   8.432   7.141 -0.5415  0.0720  0.0598
  221LIG      N 3301   4.384   0.890   7.100 -0.1937 -0.4648 -0.6805
  221LIG     H1 3302   4.334   0.966   7.050 -3.5093 -0.4295  2.5302
  221LIG     H2 3303   4.325   0.808   7.124 -0.1585 -0.1654  0.4229
  221LIG     H3 3304   4.413   0.939   7.187 -1.1940  2.0570 -1.7318
  221LIG     CA 3305   4.494   0.858   7.013  0.1965 -0.6077 -0.0369
  221LIG     HA 3306   4.571   0.807   7.069  0.8307  0.6047  0.1955
  221LIG     CB 3307   4.437   0.776   6.892  0.4894 -0.0064  0.1088
  221LIG    HB1 3308   4.395   0.840   6.811  2.0737  0.3337 -0.4619
  221LIG    HB2 3309   4.363   0.696   6.913 -0.6971  0.2704 -2.8782
  221LIG     CG 3310   4.560   0.700   6.831  0.2812 -0.5511 -0.2322
  221LIG    OD1 3311   4.571   0.698   6.708  0.3130  0.1298  0.2472
  221LIG    OD2 3312   4.628   0.632   6.908 -0.1677  0.1878 -0.0124
  221LIG      C 3313   4.565   0.988   6.951  0.1148  0.4328  0.3478
  221LIG    OT1 3314   4.527   1.108   6.967  0.9020  0.2737  0.2277
  221LIG    OT2 3315   4.669   0.967   6.881 -0.6175 -0.9840  0.1073
  222LIG      N 3316   7.977   4.016   5.707 -0.4570 -0.5545 -0.4363
  222LIG     H1 3317   7.955   4.100   5.765 -0.9527  1.0160 -2.8065
  222LIG     H2 3318   7.899   3.949   5.718  0.0020 -0.7134  2.3914
  222LIG     H3 3319   8.059   3.974   5.757 -1.6319 -1.6885  0.5909
  222LIG     CA 3320   8.001   4.046   5.567  0.6148 -0.4514  0.1895
  222LIG     HA 3321   8.079   3.976   5.538  1.0873  0.0579  0.2207
  222LIG     CB 3322   7.867   4.033   5.489 -0.0812  0.0262  0.3396
  222LIG    HB1 3323   7.800   4.119   5.507  1.3957  1.3499 -0.3113
  222LIG    HB2 3324   7.824   3.938   5.527 -2.1147  1.1844  1.0153
  222LIG     CG 3325   7.888   4.005   5.343  0.1662  0.2916  0.0333
  222LIG    OD1 3326   7.811   4.051   5.256  0.4675 -0.6262 -0.2045
  222LIG    OD2 3327   7.964   3.906   5.318 -0.4299 -0.3324  0.2338
  222LIG      C 3328   8.067   4.182   5.530 -0.2438 -0.8668 -0.2771
  222LIG    OT1 3329   8.078   4.274   5.617 -0.3979 -0.0183  0.0986
  222LIG    OT2 3330   8.102   4.204   5.410  0.2965  0.4841 -0.0518
  223LIG      N 3331   3.708   9.012   5.279 -0.7396  0.2219  0.0656
  223LIG     H1 3332   3.723   8.920   5.232  1.4460  0.5015  0.1382
  223LIG     H2 3333   3.628   9.019   5.344 -1.2063 -0.2874 -0.4431
  223LIG     H3 3334   3.678   9.079   5.205 -0.2111 -0.2014 -0.5331
  223LIG     CA 3335   3.831   9.078   5.335  0.2216 -0.8254 -0.2326
  223LIG     HA 3336   3.900   9.078   5.252  2.1785  2.9253  1.2443
  223LIG     CB 3337   3.794   9.226   5.371  0.3018  0.7472  0.2366
  223LIG    HB1 3338   3.737   9.246   5.464 -1.1559  2.5719 -1.0230
  223LIG    HB2 3339   3.718   9.254   5.296  0.1509 -0.4599 -0.0657
  223LIG     CG 3340   3.916   9.317   5.370  0.0021  0.7793  0.4753
  223LIG    OD1 3341   3.922   9.419   5.443 -0.0978 -0.1940  0.3568
  223LIG    OD2 3342   4.016   9.294   5.293  0.6188 -0.0890  0.1042
  223LIG      C 3343   3.896   9.005   5.467  0.0793 -0.3636 -0.0245
  223LIG    OT1 3344   3.847   8.897   5.514 -0.2024 -0.6365  0.0157
  223LIG    OT2 3345   3.992   9.064   5.525  0.2966  0.1409 -1.7091
  224LIG      N 3346   4.791   1.209   8.519  0.2305 -0.2980  0.2430
  224LIG     H1 3347   4.861   1.143   8.559 -0.0133 -0.8935 -0.2972
  224LIG     H2 3348   4.752   1.264   8.598 -1.0746 -1.3306  0.3272
  224LIG     H3 3349   4.720   1.146   8.477 -1.0760  1.1594  0.2470
  224LIG     CA 3350   4.850   1.284   8.409  0.0402 -0.5937 -0.0900
  224LIG     HA 3351   4.795   1.374   8.387  0.7581 -0.1301 -0.0023
  224LIG     CB 3352   5.000   1.319   8.450  0.7688 -0.7452 -0.1556
  224LIG    HB1 3353   5.072   1.236   8.433 -0.5940 -1.5860 -1.9463
  224LIG    HB2 3354   4.993   1.345   8.557  3.3855  0.4623 -0.2305
  224LIG     CG 3355   5.052   1.441   8.373  0.4858  0.2211 -0.6918
  224LIG    OD1 3356   5.157   1.437   8.302  0.4632 -0.3010 -0.0988
  224LIG    OD2 3357   4.978   1.545   8.381  0.1063  0.5045  0.1869
  224LIG      C 3358   4.856   1.196   8.283  0.2444 -0.1981 -0.4290
  224LIG    OT1 3359   4.843   1.077   8.287 -0.0142 -0.0586 -0.3927
  224LIG    OT2 3360   4.892   1.251   8.177  0.0309  0.0836  0.1636
  225LIG      N 3361   1.088   4.282   9.841  0.3035  0.5699 -0.1823
  225LIG     H1 3362   1.037   4.350   9.901 -0.4279 -1.5201  1.6044
  225LIG     H2 3363   1.190   4.304   9.830  0.0984  0.7309 -1.9249
  225LIG     H3 3364   1.041   4.286   9.748  0.3653 -1.2107 -0.3078
  225LIG     CA 3365   1.066   4.142   9.898 -1.3238 -0.2442 -0.1238
  225LIG     HA 3366   1.096   4.070   9.823  0.6162  0.9203 -0.4805
  225LIG     CB 3367   1.160   4.135  10.023  0.0485  0.1251  0.3040
  225LIG    HB1 3368   1.121   4.198  10.106  1.7855  3.9941 -1.6966
  225LIG    HB2 3369   1.263   4.158   9.991 -0.3197 -0.3151 -1.2422
  225LIG     CG 3370   1.166   3.997  10.082  0.2524  0.4045 -0.5144
  225LIG    OD1 3371   1.107   3.979  10.194 -0.0315 -0.2773  0.7223
  225LIG    OD2 3372   1.232   3.910  10.024  0.4719  0.3013 -0.0843
  225LIG      C 3373   0.915   4.114   9.927  0.7068  0.1910  0.2979
  225LIG    OT1 3374   0.835   4.209   9.907 -0.5544  0.3144 -0.4305
  225LIG    OT2 3375   0.877   4.001   9.955 -0.0153 -0.6039 -0.3832
  226LIG      N 3376   9.131   5.450   1.432 -0.2449 -0.3616 -0.3878
  226LIG     H1 3377   9.129   5.359   1.383  0.9346  0.3268 -1.7514
  226LIG     H2 3378   9.074   5.523   1.384 -3.5730 -2.7320 -0.1994
  226LIG     H3 3379   9.227   5.489   1.443 -0.9606  0.9406  1.6457
  226LIG     CA 3380   9.083   5.437   1.567  0.6924  0.0517 -0.3541
  226LIG     HA 3381   9.134   5.349   1.605 -1.0424 -0.4042  0.9791
  226LIG     CB 3382   9.132   5.569   1.640 -0.8617  0.0500  0.0213
  226LIG    HB1 3383   9.049   5.642   1.633 -0.0920  0.8644 -0.7245
  226LIG    HB2 3384   9.234   5.598   1.604 -0.4875 -3.4567 -1.9626
  226LIG     CG 3385   9.157   5.549   1.792 -0.0007  0.6663  0.3205
  226LIG    OD1 3386   9.121   5.634   1.876 -0.4049  0.1750 -0.2470
  226LIG    OD2 3387   9.208   5.440   1.831  0.1577 -0.8309  0.0483
  226LIG      C 3388   8.928   5.406   1.581  0.5279  0.0239  0.1613
  226LIG    OT1 3389   8.853   5.419   1.486  0.1076  0.0869  0.0929
  226LIG    OT2 3390   8.896   5.375   1.699 -0.5385 -0.6738  0.2328
  227LIG      N 3391   1.495   1.808   6.984  0.3702 -0.1063 -0.0288
  227LIG     H1 3392   1.564   1.876   7.023 -1.3420  0.6484  1.7727
  227LIG     H2 3393   1.536   1.713   6.996 -1.5368 -0.9358  0.0333
  227LIG     H3 3394   1.483   1.818   6.881  0.7135 -1.5963 -0.2158
  227LIG     CA 3395   1.362   1.801   7.047  0.1539 -0.2561  0.6385
  227LIG     HA 3396   1.308   1.892   7.023  0.3552 -0.5481 -0.9294
  227LIG     CB 3397   1.283   1.677   6.999  0.4403 -0.4582 -0.3758
  227LIG    HB1 3398   1.315   1.585   7.053 -2.4539 -1.8601 -0.9212
  227LIG    HB2 3399   1.298   1.660   6.890  0.5725 -1.7031 -0.1736
  227LIG     CG 3400   1.137   1.705   7.016  0.3676 -0.9259  0.0153
  227LIG    OD1 3401   1.074   1.604   7.058 -0.3891  0.0387 -0.2916
  227LIG    OD2 3402   1.081   1.811   6.974 -0.0076  0.4338 -0.3310
  227LIG      C 3403   1.373   1.794   7.200 -1.0755  0.4563 -0.0296
  227LIG    OT1 3404   1.485   1.792   7.264 -0.2585  0.0855  0.0254
  227LIG    OT2 3405   1.271   1.786   7.269 -0.5215  0.0343  0.1531
  228LIG      N 3406   0.752   2.705   9.864  0.5056 -0.1516  0.8228
  228LIG     H1 3407   0.792   2.612   9.886 -2.3456 -1.2814  1.4045
  228LIG     H2 3408   0.649   2.710   9.872  0.0248 -1.2316 -3.4285
  228LIG     H3 3409   0.772   2.726   9.764 -1.1873 -1.5492  0.1647
  228LIG     CA 3410   0.831   2.803   9.942 -0.0677 -0.4444  0.8272
  228LIG     HA 3411   0.764   2.885   9.962  0.9712  0.8069 -0.6290
  228LIG     CB 3412   0.877   2.729  10.061 -0.4110  0.6133  0.2926
  228LIG    HB1 3413   0.943   2.641  10.043  1.6660  1.9979  0.9862
  228LIG    HB2 3414   0.785   2.703  10.118 -0.4669 -1.2176 -0.5985
  228LIG     CG 3415   0.942   2.827  10.162  0.4468 -0.2943 -0.5025
  228LIG    OD1 3416   1.055   2.811  10.210  0.0298  0.2805 -1.0413
  228LIG    OD2 3417   0.872   2.928  10.199 -0.4094  0.0621  0.3670
  228LIG      C 3418   0.946   2.865   9.853 -0.2036  0.3351  0.7652
  228LIG    OT1 3419   0.963   2.830   9.732 -0.0279 -0.1730 -0.3020
  228LIG    OT2 3420   1.021   2.951   9.902  0.0494  0.3861  0.5191
  229LIG      N 3421   9.981   6.309   0.233 -0.1801 -0.0200  0.0805
  229LIG     H1 3422  10.054   6.279   0.165 -1.2565  1.5118 -1.7840
  229LIG     H2 3423  10.015   6.288   0.329  1.2867 -1.0435 -0.6509
  229LIG     H3 3424   9.901   6.244   0.219  1.1499 -1.0175 -3.2380
  229LIG     CA 3425   9.933   6.447   0.214 -0.8153  0.1016 -0.6396
  229LIG     HA 3426   9.839   6.447   0.161 -1.9660 -1.2395  1.3412
  229LIG     CB 3427   9.930   6.517   0.358  0.1268 -0.0577 -0.8689
  229LIG    HB1 3428  10.027   6.546   0.403 -1.4447  0.7445  2.2057
  229LIG    HB2 3429   9.879   6.449   0.431 -0.8722  0.4330 -1.0920
  229LIG     CG 3430   9.834   6.632   0.348  0.0050  0.6291  0.3158
  229LIG    OD1 3431   9.875   6.746   0.388  0.7985 -0.4089 -0.4417
  229LIG    OD2 3432   9.717   6.612   0.302  0.5063 -0.3863 -0.0761
  229LIG      C 3433  10.031   6.530   0.122  0.3883 -0.7402 -0.5186
  229LIG    OT1 3434  10.140   6.481   0.080  0.0751  0.3142  0.7464
  229LIG    OT2 3435  10.005   6.653   0.093  0.5252  0.3235  0.6190
  230LIG      N 3436   5.373   1.543   6.227  0.8727  0.0877  0.4823
  230LIG     H1 3437   5.394   1.605   6.308 -0.1076  0.1668  0.6791
  230LIG     H2 3438   5.403   1.445   6.247  0.3922  0.1873  1.7870
  230LIG     H3 3439   5.439   1.576   6.154 -0.4350 -1.6285 -1.5278
  230LIG     CA 3440   5.231   1.555   6.191  0.5397 -0.8461 -0.4056
  230LIG     HA 3441   5.206   1.466   6.135  2.0673 -1.2943 -0.4220
  230LIG     CB 3442   5.156   1.576   6.322 -0.2602 -0.1531 -0.3515
  230LIG    HB1 3443   5.183   1.677   6.361  0.9196 -0.2621 -0.8429
  230LIG    HB2 3444   5.177   1.501   6.401  0.8586  1.3560  0.8464
  230LIG     CG 3445   5.005   1.573   6.294  0.0117 -0.6000 -0.3807
  230LIG    OD1 3446   4.933   1.675   6.313  0.3057  0.6200  0.7847
  230LIG    OD2 3447   4.945   1.461   6.266  0.1954 -0.1066  0.2968
  230LIG      C 3448   5.206   1.668   6.081  0.8245 -0.2141  0.2225
  230LIG    OT1 3449   5.293   1.748   6.043 -0.7310 -0.5212  0.2335
  230LIG    OT2 3450   5.090   1.671   6.027  0.0237 -0.7103  0.2775
  231LIG      N 3451   2.153   8.177   1.258  0.1423  0.2500  0.1661
  231LIG     H1 3452   2.214   8.137   1.183 -0.2976 -0.3861  0.1526
  231LIG     H2 3453   2.133   8.099   1.324  1.7342 -1.3009 -1.1356
  231LIG     H3 3454   2.060   8.203   1.220  0.9827  2.3107 -0.5874
  231LIG     CA 3455   2.206   8.298   1.311 -0.1701 -1.0392 -0.1775
  231LIG     HA 3456   2.308   8.272   1.335 -0.5026 -1.3184  0.9756
  231LIG     CB 3457   2.208   8.406   1.199  1.1406 -0.4156 -0.4846
  231LIG    HB1 3458   2.107   8.451   1.192  1.0885 -0.3547  0.5336
  231LIG    HB2 3459   2.231   8.359   1.101 -0.1282  1.7174 -1.8559
  231LIG     CG 3460   2.321   8.511   1.208  0.6008 -0.5472 -0.2319
  231LIG    OD1 3461   2.300   8.629   1.163  0.3996  0.0790 -0.2825
  231LIG    OD2 3462   2.434   8.465   1.230  0.0051  0.0844  0.0929
  231LIG      C 3463   2.141   8.351   1.436  0.4843  0.2009 -0.4446
  231LIG    OT1 3464   2.042   8.289   1.483 -0.3289  0.5240 -0.6628
  231LIG    OT2 3465   2.186   8.455   1.493  0.4128  0.2143  0.1451
  232LIG      N 3466   0.422   3.566   8.004  0.0096 -0.1209  0.2363
  232LIG     H1 3467   0.453   3.537   8.099 -1.1762 -0.1660  0.6267
  232LIG     H2 3468   0.334   3.520   7.972 -0.2090 -0.0522  0.7366
  232LIG     H3 3469   0.497   3.536   7.939 -1.5627 -1.1549 -1.1700
  232LIG     CA 3470   0.421   3.717   8.002  0.0793  0.4794 -0.0946
  232LIG     HA 3471   0.503   3.743   8.067  0.1789 -0.3593  0.1132
  232LIG     CB 3472   0.448   3.753   7.848  0.7369  0.5909  0.4439
  232LIG    HB1 3473   0.359   3.753   7.782  1.7169 -0.0685 -0.8803
  232LIG    HB2 3474   0.529   3.693   7.802  1.5875  0.9644  1.4319
  232LIG     CG 3475   0.502   3.889   7.838  0.6397 -0.4778 -0.2802
  232LIG    OD1 3476   0.453   3.968   7.752  0.0233 -0.6047 -0.0781
  232LIG    OD2 3477   0.602   3.931   7.907  0.3920  0.6419  0.6282
  232LIG      C 3478   0.289   3.777   8.061 -0.1642 -0.2425  0.2478
  232LIG    OT1 3479   0.191   3.704   8.098 -0.1584 -0.7870  0.3986
  232LIG    OT2 3480   0.278   3.902   8.079 -0.5275 -0.4799  0.5731
  233LIG      N 3481   8.215   0.056   3.829  0.2039  0.4149 -0.4082
  233LIG     H1 3482   8.162  -0.025   3.791  1.4119 -0.3766 -0.4581
  233LIG     H2 3483   8.284   0.021   3.899 -1.3569  2.6408  2.3383
  233LIG     H3 3484   8.156   0.124   3.880  1.1206  0.1619  1.0348
  233LIG     CA 3485   8.291   0.131   3.721 -0.3379  0.3323 -0.1556
  233LIG     HA 3486   8.371   0.179   3.774  0.4640  1.0112 -1.9221
  233LIG     CB 3487   8.329   0.028   3.621  0.9317  0.1242 -0.1407
  233LIG    HB1 3488   8.238  -0.003   3.564 -0.4695 -1.2895  2.7865
  233LIG    HB2 3489   8.362  -0.067   3.669 -1.8499  0.6143  2.8869
  233LIG     CG 3490   8.439   0.091   3.533  0.6841  0.5435 -0.5215
  233LIG    OD1 3491   8.427   0.064   3.411  0.0197 -0.0711 -0.3639
  233LIG    OD2 3492   8.539   0.135   3.585 -0.1813 -0.2452 -0.1133
  233LIG      C 3493   8.214   0.246   3.652 -0.1255  0.1697  0.4016
  233LIG    OT1 3494   8.100   0.278   3.690 -0.2658  0.3560 -0.3290
  233LIG    OT2 3495   8.267   0.304   3.553 -0.0274  0.1844  0.1738
  234LIG      N 3496   4.760   7.680   0.068  0.0678 -0.1019  0.9264
  234LIG     H1 3497   4.657   7.686   0.059  0.1126  0.6814  0.9592
  234LIG     H2 3498   4.802   7.721  -0.018 -2.1794 -2.1498 -1.2263
  234LIG     H3 3499   4.789   7.580   0.072 -1.2101 -0.6429 -1.8269
  234LIG     CA 3500   4.803   7.754   0.188  0.0139  0.0091  0.2782
  234LIG     HA 3501   4.823   7.682   0.265  1.1065 -0.9826 -0.9169
  234LIG     CB 3502   4.936   7.828   0.155 -0.0508  0.8390  1.0837
  234LIG    HB1 3503   4.918   7.906   0.078 -1.9480 -0.3068  0.3107
  234LIG    HB2 3504   5.009   7.763   0.103 -0.5784 -1.1102  2.6912
  234LIG     CG 3505   5.007   7.886   0.273  0.2009  0.2477  0.2210
  234LIG    OD1 3506   5.003   8.007   0.287 -0.6045 -0.6269  0.4469
  234LIG    OD2 3507   5.073   7.817   0.355 -0.2090 -0.4635 -0.0414
  234LIG      C 3508   4.684   7.843   0.245 -0.1727  0.5245  0.0779
  234LIG    OT1 3509   4.567   7.854   0.186  0.1422 -0.2353  0.3813
  234LIG    OT2 3510   4.705   7.907   0.350  0.7561  0.3410 -0.3777
  235LIG      N 3511   5.471   9.783   7.288 -0.3169  0.2585  0.1141
  235LIG     H1 3512   5.418   9.767   7.200 -0.4486 -0.5367  0.3356
  235LIG     H2 3513   5.571   9.759   7.273 -0.1321  2.2498 -2.3098
  235LIG     H3 3514   5.429   9.737   7.371 -0.5030 -1.3079 -0.8299
  235LIG     CA 3515   5.489   9.929   7.309  0.4942 -0.1105  0.3714
  235LIG     HA 3516   5.387   9.962   7.317  0.5101  0.6403 -2.1772
  235LIG     CB 3517   5.547   9.949   7.451  0.6147 -0.3875  0.2650
  235LIG    HB1 3518   5.658   9.956   7.445  0.4978 -0.5312 -3.5219
  235LIG    HB2 3519   5.533   9.868   7.525 -1.2855  0.0066  0.3375
  235LIG     CG 3520   5.501  10.067   7.525  0.1315  0.3918  0.1561
  235LIG    OD1 3521   5.574  10.109   7.622  0.3663  0.6857  0.2396
  235LIG    OD2 3522   5.385  10.115   7.502 -0.4226 -0.4875 -0.2738
  235LIG      C 3523   5.573   9.995   7.197 -0.1421  0.1117  0.3665
  235LIG    OT1 3524   5.627   9.915   7.117  0.4596  0.6744  0.3513
  235LIG    OT2 3525   5.590  10.121   7.194  0.1295  0.0697  0.2723
  236LIG      N 3526   0.581   0.282   3.430  0.1578 -0.5088  0.5919
  236LIG     H1 3527   0.588   0.223   3.516 -1.0077 -1.3316  0.1440
  236LIG     H2 3528   0.629   0.231   3.353  3.2535  1.5277  1.1263
  236LIG     H3 3529   0.633   0.369   3.450  0.5548  0.0869 -2.7138
  236LIG     CA 3530   0.437   0.314   3.392 -0.2305  1.5439  0.2208
  236LIG     HA 3531   0.392   0.224   3.352  0.8469  1.7029 -1.4038
  236LIG     CB 3532   0.361   0.354   3.521  0.3714 -0.6969  0.5012
  236LIG    HB1 3533   0.383   0.461   3.543  1.0002 -0.5496 -0.7770
  236LIG    HB2 3534   0.387   0.289   3.607 -0.8379 -2.8183 -0.6986
  236LIG     CG 3535   0.210   0.328   3.500 -0.5728 -0.5741  0.2364
  236LIG    OD1 3536   0.133   0.428   3.523 -0.3364  0.3611 -0.7167
  236LIG    OD2 3537   0.171   0.223   3.446 -1.0432  0.1734  0.0412
  236LIG      C 3538   0.435   0.421   3.278  0.1388  0.8997 -0.7231
  236LIG    OT1 3539   0.544   0.480   3.248 -0.4857  0.8792  0.1433
  236LIG    OT2 3540   0.329   0.431   3.212 -0.3668  0.6184 -0.2171
  237LIG      N 3541   4.298   1.616   2.814  0.3043 -0.2904  0.3376
  237LIG     H1 3542   4.225   1.635   2.742  0.4243 -1.0852 -0.0064
  237LIG     H2 3543   4.370   1.544   2.795  0.5040  0.4232 -1.6988
  237LIG     H3 3544   4.242   1.577   2.893 -0.1272  0.4883  0.4236
  237LIG     CA 3545   4.359   1.757   2.855 -0.1144 -0.7676  0.6153
  237LIG     HA 3546   4.415   1.742   2.946  0.9822  1.3104  0.3099
  237LIG     CB 3547   4.444   1.810   2.743 -0.5864  0.3743  0.3794
  237LIG    HB1 3548   4.389   1.836   2.650 -0.2676  2.4394  0.7495
  237LIG    HB2 3549   4.528   1.741   2.721 -0.3446  1.3285 -1.7900
  237LIG     CG 3550   4.524   1.933   2.790 -0.0528 -0.9078 -0.2540
  237LIG    OD1 3551   4.577   2.011   2.705  0.2608 -0.3184 -0.2580
  237LIG    OD2 3552   4.563   1.934   2.914 -0.5130  0.4414 -0.2016
  237LIG      C 3553   4.232   1.855   2.883 -0.0869 -0.1936 -0.5444
  237LIG    OT1 3554   4.118   1.806   2.858 -0.0897  0.3425  0.1447
  237LIG    OT2 3555   4.253   1.970   2.926 -0.2132  0.1750  0.3861
  238LIG      N 3556   2.264   1.526   1.598 -0.7948  0.2633  0.1076
  238LIG     H1 3557   2.330   1.561   1.526 -2.7911 -0.0555 -1.9411
  238LIG     H2 3558   2.222   1.444   1.551  1.5170 -1.1111  0.3326
  238LIG     H3 3559   2.191   1.598   1.612  0.9509  2.5097 -2.0048
  238LIG     CA 3560   2.348   1.485   1.719  0.2936 -0.4826 -0.3272
  238LIG     HA 3561   2.350   1.573   1.781  1.6980 -0.9156  0.2694
  238LIG     CB 3562   2.270   1.364   1.789 -0.0582  0.1532 -0.9559
  238LIG    HB1 3563   2.296   1.268   1.741  2.0546  0.2237 -0.0179
  238LIG    HB2 3564   2.159   1.378   1.789 -0.0000  0.7604  1.6576
  238LIG     CG 3565   2.294   1.364   1.938 -0.7016 -1.5360 -0.4671
  238LIG    OD1 3566   2.294   1.252   1.987 -0.3647  0.4968  0.0524
  238LIG    OD2 3567   2.290   1.473   2.003  0.3838  0.2679 -0.3361
  238LIG      C 3568   2.497   1.445   1.691  0.3839  0.3325  0.2211
  238LIG    OT1 3569   2.541   1.453   1.571 -0.4625 -0.1870  0.0273
  238LIG    OT2 3570   2.566   1.415   1.796 -0.7916 -0.0980  0.2505
  239LIG      N 3571   5.446   9.201   4.947 -0.0646 -0.3951 -0.2214
  239LIG     H1 3572   5.497   9.221   4.859 -2.8086 -1.7130 -2.1909
  239LIG     H2 3573   5.434   9.291   4.999  0.5030 -0.5735  0.2175
  239LIG     H3 3574   5.508   9.140   5.004 -0.8710  0.0274  1.1434
  239LIG     CA 3575   5.313   9.152   4.943  0.3709 -0.0834 -0.1196
  239LIG     HA 3576   5.312   9.055   4.896 -2.5747 -0.7735  1.2236
  239LIG     CB 3577   5.259   9.145   5.083  0.0324 -0.9060 -0.0774
  239LIG    HB1 3578   5.211   9.244   5.102  0.6552 -0.4709 -0.7328
  239LIG    HB2 3579   5.335   9.120   5.159 -0.2416 -0.6933  0.2670
  239LIG     CG 3580   5.149   9.037   5.094  0.4941  0.4422 -0.3138
  239LIG    OD1 3581   5.081   9.047   5.199  0.4576  0.0107 -0.6388
  239LIG    OD2 3582   5.147   8.939   5.012 -0.2975 -0.1441  0.1583
  239LIG      C 3583   5.228   9.259   4.850 -0.4279  0.4985  0.2038
  239LIG    OT1 3584   5.270   9.364   4.802 -0.3778 -0.7263  0.2646
  239LIG    OT2 3585   5.110   9.218   4.822  0.6830 -0.2159 -0.2426
  240LIG      N 3586   1.371   3.326   6.864  0.1304  0.3372 -0.1869
  240LIG     H1 3587   1.444   3.284   6.925 -0.8449  0.3743  1.0306
  240LIG     H2 3588   1.331   3.248   6.808  0.5295 -2.6535  3.5273
  240LIG     H3 3589   1.410   3.394   6.795 -1.2084  0.7577 -0.5449
  240LIG     CA 3590   1.258   3.396   6.921 -0.5197 -0.0714  0.3990
  240LIG     HA 3591   1.235   3.334   7.007 -0.7061  0.6026  0.8418
  240LIG     CB 3592   1.297   3.534   6.958 -0.4563  0.5584  0.4797
  240LIG    HB1 3593   1.316   3.602   6.872 -1.0314 -1.5484 -1.3577
  240LIG    HB2 3594   1.387   3.534   7.023 -1.1786  2.1285  1.5207
  240LIG     CG 3595   1.199   3.597   7.047  0.1891 -0.0844 -0.7176
  240LIG    OD1 3596   1.181   3.718   7.036 -0.6149  0.1970  0.2620
  240LIG    OD2 3597   1.147   3.524   7.134  0.5546 -1.1774  0.1327
  240LIG      C 3598   1.140   3.395   6.823 -0.1054 -0.7166  0.2123
  240LIG    OT1 3599   1.159   3.343   6.709 -0.1802  0.3323 -0.2210
  240LIG    OT2 3600   1.033   3.456   6.855 -0.1995 -0.1650  0.2403
  241LIG      N 3601   0.763   9.795   5.060  0.1106  0.5925 -0.1529
  241LIG     H1 3602   0.768   9.793   5.164  2.2101  0.0632 -0.2530
  241LIG     H2 3603   0.761   9.699   5.018 -3.1600 -0.0718  1.3326
  241LIG     H3 3604   0.850   9.845   5.034  1.1407 -1.7519 -1.3492
  241LIG     CA 3605   0.641   9.872   5.014 -1.1673  0.0721 -0.0284
  241LIG     HA 3606   0.667   9.977   5.018 -2.5022  0.4156 -0.0063
  241LIG     CB 3607   0.626   9.834   4.860 -0.9185  0.2752  0.1128
  241LIG    HB1 3608   0.591   9.729   4.850  1.7941 -0.7810  1.2735
  241LIG    HB2 3609   0.729   9.841   4.819 -1.6409  1.2122 -1.6221
  241LIG     CG 3610   0.551   9.934   4.782  0.0650  0.5039  0.3841
  241LIG    OD1 3611   0.478   9.887   4.689 -0.6946  0.0466 -0.4703
  241LIG    OD2 3612   0.578  10.052   4.800 -0.8269 -0.2598  0.0157
  241LIG      C 3613   0.515   9.832   5.095  0.3148 -0.9143  0.1092
  241LIG    OT1 3614   0.517   9.745   5.180 -0.1721  0.0725 -0.8491
  241LIG    OT2 3615   0.409   9.895   5.063  0.3556 -0.1078 -0.5305
  242LIG      N 3616   8.312   9.184   6.262  0.2038  0.2781 -0.2224
  242LIG     H1 3617   8.403   9.147   6.298  1.8449  1.5902 -2.8070
  242LIG     H2 3618   8.334   9.222   6.168 -2.1194  1.5411 -0.2897
  242LIG     H3 3619   8.284   9.266   6.319  0.2876  0.9595 -1.1396
  242LIG     CA 3620   8.208   9.079   6.265  0.2684  0.0462  0.0726
  242LIG     HA 3621   8.128   9.116   6.204 -1.2927  1.4850  2.8801
  242LIG     CB 3622   8.253   8.957   6.196  0.6858 -0.0962 -0.3776
  242LIG    HB1 3623   8.335   8.905   6.251  1.0479 -0.9925 -1.7396
  242LIG    HB2 3624   8.294   8.983   6.096 -2.4204  0.9669 -1.4434
  242LIG     CG 3625   8.139   8.858   6.171  0.1149 -0.6699 -0.3718
  242LIG    OD1 3626   8.153   8.740   6.198 -0.6078 -0.0141 -0.1670
  242LIG    OD2 3627   8.026   8.896   6.119  0.3230  0.0291 -0.5791
  242LIG      C 3628   8.152   9.053   6.406 -0.2555 -0.1162  0.0693
  242LIG    OT1 3629   8.211   9.097   6.506 -0.0198 -0.0769 -0.0503
  242LIG    OT2 3630   8.042   9.001   6.420  0.4999 -0.6334  0.2952
  243LIG      N 3631   5.551   8.526   7.379 -0.9900  0.2249  0.4865
  243LIG     H1 3632   5.463   8.538   7.324 -0.0020 -0.8745 -1.3871
  243LIG     H2 3633   5.563   8.601   7.450 -1.6611 -1.1688  2.1076
  243LIG     H3 3634   5.629   8.520   7.310 -1.8442 -1.8266 -0.3484
  243LIG     CA 3635   5.555   8.383   7.439  0.0035 -0.0446 -0.3632
  243LIG     HA 3636   5.484   8.383   7.520  1.9449  0.4522  1.3819
  243LIG     CB 3637   5.506   8.278   7.331  0.1654 -0.2041  0.3450
  243LIG    HB1 3638   5.571   8.269   7.241 -0.8822 -2.3389 -0.2325
  243LIG    HB2 3639   5.407   8.307   7.293 -1.0726 -1.5118  2.4375
  243LIG     CG 3640   5.486   8.143   7.381  0.1233  0.2273 -0.6913
  243LIG    OD1 3641   5.542   8.039   7.320 -0.2647 -0.0842  0.5891
  243LIG    OD2 3642   5.407   8.123   7.480 -0.6337 -0.0790  0.0839
  243LIG      C 3643   5.692   8.345   7.491  0.0797  0.1291  0.6569
  243LIG    OT1 3644   5.795   8.411   7.466 -0.4267  0.1282 -0.1610
  243LIG    OT2 3645   5.708   8.237   7.557 -0.0261 -0.2881  0.6523
  244LIG      N 3646   0.119   0.448   5.488 -0.1234  0.5141  0.1771
  244LIG     H1 3647   0.178   0.401   5.417  0.3143 -1.2517  1.6548
  244LIG     H2 3648   0.016   0.440   5.475 -0.0380  0.7810 -0.6794
  244LIG     H3 3649   0.143   0.549   5.480  0.7647  0.4385  1.6397
  244LIG     CA 3650   0.159   0.383   5.616  0.7045  0.6296  0.2283
  244LIG     HA 3651   0.079   0.410   5.684 -0.2685  0.1896 -0.7303
  244LIG     CB 3652   0.163   0.223   5.587 -0.2993  0.2530  0.0109
  244LIG    HB1 3653   0.257   0.194   5.537 -0.0714  0.8482  0.0924
  244LIG    HB2 3654   0.091   0.183   5.512  0.1826 -1.8868  0.6616
  244LIG     CG 3655   0.137   0.143   5.711 -0.0725 -0.0923  0.0547
  244LIG    OD1 3656   0.207   0.037   5.730  0.1239 -0.0006  0.6969
  244LIG    OD2 3657   0.045   0.171   5.786  0.7214  0.2641  0.0738
  244LIG      C 3658   0.295   0.437   5.672  0.1437 -0.0882  0.0829
  244LIG    OT1 3659   0.350   0.544   5.628  0.5447  0.6258  0.4763
  244LIG    OT2 3660   0.343   0.369   5.766  0.1038 -0.3128 -0.0937
  245LIG      N 3661   1.188   5.774   7.226 -1.1092  0.4358  0.4976
  245LIG     H1 3662   1.217   5.787   7.127  0.7422  1.2131  1.1212
  245LIG     H2 3663   1.126   5.691   7.227 -1.8070  0.9028 -1.3611
  245LIG     H3 3664   1.146   5.860   7.265 -0.0782  0.7163  1.0243
  245LIG     CA 3665   1.316   5.744   7.294  0.0667  0.2235 -0.0547
  245LIG     HA 3666   1.375   5.834   7.289  0.6855 -0.0662  1.8206
  245LIG     CB 3667   1.284   5.713   7.438 -0.2171  0.2626  0.1741
  245LIG    HB1 3668   1.229   5.616   7.438 -3.1004  1.8408  0.9474
  245LIG    HB2 3669   1.212   5.786   7.481  1.6219  1.0140  2.0108
  245LIG     CG 3670   1.414   5.711   7.526 -0.3614  0.2276 -0.3534
  245LIG    OD1 3671   1.435   5.613   7.598  0.0112 -0.4697  0.0404
  245LIG    OD2 3672   1.479   5.818   7.532  0.2603  0.2733  0.0891
  245LIG      C 3673   1.398   5.633   7.222  0.5093  0.0340 -0.0820
  245LIG    OT1 3674   1.343   5.565   7.128  0.6513 -0.2112 -0.5755
  245LIG    OT2 3675   1.522   5.625   7.249 -0.1759  0.0368  0.4621
  246LIG      N 3676   9.997   2.282   0.283 -0.2992  1.0574 -0.9564
  246LIG     H1 3677  10.016   2.319   0.187  0.0517  1.7342 -0.6256
  246LIG     H2 3678   9.895   2.258   0.285  0.0829 -0.5230  0.4593
  246LIG     H3 3679  10.013   2.368   0.338  0.9691 -0.0040  0.3475
  246LIG     CA 3680  10.090   2.169   0.317 -0.0987  0.3443  0.1481
  246LIG     HA 3681  10.192   2.206   0.321  0.0443 -0.0919  0.6676
  246LIG     CB 3682  10.061   2.098   0.451  0.1560  0.3655  0.3215
  246LIG    HB1 3683   9.973   2.034   0.430 -0.1725 -0.0725  2.8293
  246LIG    HB2 3684  10.033   2.169   0.532 -1.0861  1.0148 -0.6603
  246LIG     CG 3685  10.171   2.009   0.501 -0.2526  0.1467  0.0941
  246LIG    OD1 3686  10.154   1.890   0.540 -0.0720  0.3605  0.1446
  246LIG    OD2 3687  10.286   2.071   0.499 -0.2101  0.6028  0.3817
  246LIG      C 3688  10.095   2.060   0.193 -0.2985 -0.6572  0.3891
  246LIG    OT1 3689  10.003   2.071   0.111  0.3684 -0.3477  0.0989
  246LIG    OT2 3690  10.196   1.988   0.182  0.3332 -0.4462 -0.2346
  247LIG      N 3691   8.208   9.482   0.668  0.5666 -0.3125  0.3232
  247LIG     H1 3692   8.106   9.497   0.686  0.0022 -0.2197 -2.7175
  247LIG     H2 3693   8.222   9.452   0.570 -0.4408 -0.9265  0.3617
  247LIG     H3 3694   8.250   9.399   0.714 -0.7314 -1.6430 -0.8591
  247LIG     CA 3695   8.282   9.598   0.716  0.6216 -0.2203 -0.1056
  247LIG     HA 3696   8.385   9.573   0.694  1.1126 -1.5628  3.3542
  247LIG     CB 3697   8.232   9.729   0.652 -0.0213  0.2633  0.1710
  247LIG    HB1 3698   8.126   9.756   0.672  0.3096  0.8779  1.1064
  247LIG    HB2 3699   8.240   9.715   0.542 -1.8350 -0.4937  0.1118
  247LIG     CG 3700   8.312   9.846   0.698  0.5577  0.2053 -0.3040
  247LIG    OD1 3701   8.267   9.930   0.783 -0.8488  1.0052  0.7860
  247LIG    OD2 3702   8.437   9.841   0.665  0.2670  0.1973  0.7300
  247LIG      C 3703   8.277   9.597   0.872  0.2708  0.5486  0.2248
  247LIG    OT1 3704   8.181   9.530   0.929 -0.6711  0.2178  0.5297
  247LIG    OT2 3705   8.366   9.655   0.939  0.1142  0.1936 -0.0464
  248LIG      N 3706   8.280   8.346   2.955  0.1118 -0.2903  0.2147
  248LIG     H1 3707   8.309   8.409   2.877 -0.0642  3.0280  2.6875
  248LIG     H2 3708   8.185   8.309   2.938 -0.7871  2.0679 -0.1352
  248LIG     H3 3709   8.259   8.405   3.038 -0.0054 -1.2425  0.8600
  248LIG     CA 3710   8.375   8.247   3.005  0.7491  0.2324 -0.2753
  248LIG     HA 3711   8.403   8.175   2.930  1.9298 -0.6251  0.9589
  248LIG     CB 3712   8.496   8.324   3.055 -0.7561  0.2698 -0.2361
  248LIG    HB1 3713   8.471   8.380   3.148 -0.8647 -0.1176 -0.0307
  248LIG    HB2 3714   8.527   8.402   2.982  0.4042  1.9045  1.9445
  248LIG     CG 3715   8.617   8.236   3.070 -0.2294 -0.0515 -0.7405
  248LIG    OD1 3716   8.683   8.245   3.177 -0.4035  0.5008 -0.1174
  248LIG    OD2 3717   8.665   8.172   2.975 -0.2100 -0.0787 -0.4163
  248LIG      C 3718   8.315   8.148   3.106 -0.3544  0.2237 -0.8145
  248LIG    OT1 3719   8.200   8.155   3.146 -0.7469 -0.5475 -0.1480
  248LIG    OT2 3720   8.394   8.055   3.144  0.3971  0.3538 -0.1237
  249LIG      N 3721   6.803   1.686   0.569 -0.5489 -0.1530  0.9867
  249LIG     H1 3722   6.877   1.614   0.574 -0.9077 -0.5226  1.0714
  249LIG     H2 3723   6.781   1.688   0.671 -0.0613  0.0294  1.0891
  249LIG     H3 3724   6.721   1.653   0.515 -0.5463  1.8056 -0.2366
  249LIG     CA 3725   6.855   1.812   0.512  0.2215  0.4187 -0.1438
  249LIG     HA 3726   6.772   1.869   0.475 -1.1184 -2.4531 -1.7945
  249LIG     CB 3727   6.934   1.871   0.635  0.7156 -0.6802 -0.9003
  249LIG    HB1 3728   7.017   1.800   0.656  1.6839  0.6691 -0.0116
  249LIG    HB2 3729   6.867   1.879   0.724 -0.1504 -0.8751 -1.5303
  249LIG     CG 3730   6.998   2.008   0.599  0.2511 -0.1987  0.1875
  249LIG    OD1 3731   7.118   2.017   0.564 -0.2869  0.1024  0.2754
  249LIG    OD2 3732   6.918   2.105   0.595 -0.0790 -0.1170  0.5743
  249LIG      C 3733   6.947   1.793   0.395  0.7346  0.4117 -0.0584
  249LIG    OT1 3734   7.027   1.689   0.390  0.2511  0.0837  0.3407
  249LIG    OT2 3735   6.938   1.875   0.300 -0.2199  0.2231 -0.0035
  250LIG      N 3736   0.888   6.986   9.351 -0.4938  0.2345  0.3760
  250LIG     H1 3737   0.824   6.936   9.416 -0.7316 -0.2928 -0.2664
  250LIG     H2 3738   0.875   6.950   9.254  1.4294 -1.2880  0.6514
  250LIG     H3 3739   0.986   6.956   9.369 -0.6586 -1.3086 -1.1350
  250LIG     CA 3740   0.876   7.134   9.365  0.1787  0.2274  0.5086
  250LIG     HA 3741   0.771   7.158   9.359 -0.1024 -1.1169 -0.2543
  250LIG     CB 3742   0.931   7.168   9.511  1.5141 -0.6917  0.8537
  250LIG    HB1 3743   1.042   7.169   9.505  1.4605  1.0297 -0.6527
  250LIG    HB2 3744   0.893   7.096   9.586  1.1619 -1.1919  0.2050
  250LIG     CG 3745   0.879   7.304   9.554 -0.3000 -0.0046  0.3013
  250LIG    OD1 3746   0.957   7.375   9.621 -0.7051 -0.5241 -0.8660
  250LIG    OD2 3747   0.759   7.334   9.529 -0.4294  0.3038 -0.2653
  250LIG      C 3748   0.957   7.225   9.264  0.5764  0.0286 -0.7795
  250LIG    OT1 3749   1.036   7.172   9.185  0.1988 -0.5428  0.0502
  250LIG    OT2 3750   0.947   7.352   9.272  0.1555  0.2374  0.2746
  251LIG      N 3751   9.735   1.001   3.168  0.2319 -0.3063  0.2226
  251LIG     H1 3752   9.832   0.997   3.132 -0.3042  0.4219 -1.3020
  251LIG     H2 3753   9.750   1.017   3.270  2.0539  1.4972 -0.3070
  251LIG     H3 3754   9.677   0.916   3.154 -1.7058  0.7422  1.6699
  251LIG     CA 3755   9.676   1.121   3.120 -0.2135 -0.8442 -0.3489
  251LIG     HA 3756   9.740   1.197   3.162 -2.1074 -0.2981  1.6485
  251LIG     CB 3757   9.655   1.112   2.968  0.3593  0.9402 -0.6892
  251LIG    HB1 3758   9.577   1.036   2.945 -1.4115  2.5671 -0.1630
  251LIG    HB2 3759   9.749   1.073   2.923 -0.0800 -1.1562  0.1420
  251LIG     CG 3760   9.620   1.252   2.920 -1.2503 -0.3556  0.9422
  251LIG    OD1 3761   9.540   1.261   2.827  0.7040 -0.6848  0.0940
  251LIG    OD2 3762   9.684   1.352   2.963  0.1589 -0.0003 -0.4889
  251LIG      C 3763   9.535   1.143   3.192 -0.5173 -0.3769  0.3115
  251LIG    OT1 3764   9.506   1.064   3.286 -0.0927  0.0325 -0.1718
  251LIG    OT2 3765   9.466   1.245   3.164  0.3948 -0.5637 -0.0627
  252LIG      N 3766   3.152   7.796   0.729  0.0112  0.4796 -0.3839
  252LIG     H1 3767   3.090   7.878   0.720 -1.0553 -0.1735  0.8108
  252LIG     H2 3768   3.159   7.748   0.637 -0.0225  0.1821 -0.2326
  252LIG     H3 3769   3.107   7.743   0.806 -0.5415  1.5791  0.0420
  252LIG     CA 3770   3.286   7.837   0.775  0.1191  0.1199 -0.6289
  252LIG     HA 3771   3.308   7.942   0.762 -0.5254  0.0435 -2.5926
  252LIG     CB 3772   3.284   7.826   0.933 -0.0641 -0.1353  0.2880
  252LIG    HB1 3773   3.263   7.720   0.958 -1.7312  0.2086  0.4528
  252LIG    HB2 3774   3.195   7.879   0.976  0.6337  2.7347 -1.6692
  252LIG     CG 3775   3.408   7.878   0.993 -0.1995  0.0189  0.0223
  252LIG    OD1 3776   3.454   7.817   1.094 -0.2060  0.2350  0.0595
  252LIG    OD2 3777   3.458   7.981   0.953  0.3236  0.8286  0.0844
  252LIG      C 3778   3.386   7.741   0.707  0.7429 -0.1698  0.5291
  252LIG    OT1 3779   3.346   7.654   0.625  0.3113 -0.7016  0.5835
  252LIG    OT2 3780   3.510   7.754   0.734 -0.3027 -0.3783  0.1079
  253LIG      N 3781   2.603   9.442   1.529 -0.1293  0.0574 -0.0392
  253LIG     H1 3782   2.581   9.541   1.509 -1.9801  0.7104  4.5638
  253LIG     H2 3783   2.677   9.413   1.463 -1.5504 -0.7643 -1.2921
  253LIG     H3 3784   2.513   9.391   1.513  0.6225 -1.0074 -0.9707
  253LIG     CA 3785   2.640   9.433   1.675  0.7791  0.0022  0.1664
  253LIG     HA 3786   2.729   9.492   1.693  2.2072 -2.4013  1.2935
  253LIG     CB 3787   2.521   9.491   1.746  0.1896  0.0689  0.1867
  253LIG    HB1 3788   2.434   9.422   1.756 -0.2528  0.4601 -0.8851
  253LIG    HB2 3789   2.494   9.590   1.702  1.7083  0.3461 -0.1251
  253LIG     CG 3790   2.559   9.533   1.885  0.5745  0.1444  0.0870
  253LIG    OD1 3791   2.477   9.515   1.976 -0.6579 -0.9223 -0.1893
  253LIG    OD2 3792   2.657   9.610   1.901 -0.6988  0.2070 -0.2657
  253LIG      C 3793   2.684   9.287   1.713  0.4341  1.0317 -0.6816
  253LIG    OT1 3794   2.690   9.194   1.634  0.1585  0.7886  0.1866
  253LIG    OT2 3795   2.703   9.270   1.841  0.7509 -0.1232  0.2141
  254LIG      N 3796   2.893   8.703   7.636 -0.2448  0.4055 -0.9155
  254LIG     H1 3797   2.851   8.673   7.546 -1.4806 -0.1450 -0.1660
  254LIG     H2 3798   2.952   8.623   7.667 -1.6894 -1.0384 -1.8275
  254LIG     H3 3799   2.822   8.727   7.709  0.3253  2.0620 -0.8816
  254LIG     CA 3800   2.983   8.823   7.624  0.0282  0.3775  0.3901
  254LIG     HA 3801   2.957   8.872   7.531  0.6104 -1.2330 -0.6300
  254LIG     CB 3802   2.967   8.914   7.746  0.3689 -0.6092 -0.8271
  254LIG    HB1 3803   3.019   8.873   7.835 -0.1778  1.1519  0.3190
  254LIG    HB2 3804   2.864   8.928   7.785  0.5027  0.9567 -1.0181
  254LIG     CG 3805   3.018   9.057   7.725  0.2091  0.0843 -0.4520
  254LIG    OD1 3806   3.102   9.110   7.803 -0.7228 -0.2788 -0.0633
  254LIG    OD2 3807   2.962   9.127   7.635  0.7950  0.5062  0.2123
  254LIG      C 3808   3.134   8.782   7.609  0.9583 -0.1137 -0.4172
  254LIG    OT1 3809   3.161   8.666   7.645 -0.0612  1.0719 -0.9152
  254LIG    OT2 3810   3.221   8.868   7.574  0.2361 -0.7495  0.2020
  255LIG      N 3811   9.810   9.109   3.896 -0.0563 -0.2136  1.0472
  255LIG     H1 3812   9.822   9.146   3.993 -1.8838 -0.2014  1.2810
  255LIG     H2 3813   9.713   9.075   3.878  0.3173  0.3008 -2.2209
  255LIG     H3 3814   9.870   9.024   3.892 -1.3873 -1.0971 -1.3640
  255LIG     CA 3815   9.843   9.217   3.798 -0.0335 -0.2832 -0.0563
  255LIG     HA 3816   9.749   9.230   3.746 -0.3094  1.7992  0.8879
  255LIG     CB 3817   9.880   9.348   3.873  0.0094  0.0156 -0.7221
  255LIG    HB1 3818   9.981   9.345   3.919 -0.1025 -2.4502 -0.5592
  255LIG    HB2 3819   9.812   9.362   3.960  0.9792 -0.2509  0.0960
  255LIG     CG 3820   9.873   9.462   3.780  0.2683  0.1847  0.1678
  255LIG    OD1 3821   9.925   9.571   3.814 -1.2003  0.4329  0.2455
  255LIG    OD2 3822   9.789   9.457   3.681  0.2216  0.0296 -0.0921
  255LIG      C 3823   9.943   9.177   3.690 -0.2994 -0.0809  0.3583
  255LIG    OT1 3824  10.018   9.072   3.706  0.1350  0.4394 -0.7526
  255LIG    OT2 3825   9.946   9.233   3.585 -0.2908 -0.1576 -0.7173
  256LIG      N 3826   0.812   6.415   1.240 -0.0785 -0.4220  0.5138
  256LIG     H1 3827   0.754   6.333   1.214 -0.1453  0.1044 -1.0374
  256LIG     H2 3828   0.828   6.410   1.343  0.5120  1.3510  0.5161
  256LIG     H3 3829   0.764   6.505   1.221  3.9911  1.6349 -0.5689
  256LIG     CA 3830   0.935   6.409   1.154 -0.2718  0.2233  0.3807
  256LIG     HA 3831   0.997   6.481   1.205  0.4819  0.2073 -0.5056
  256LIG     CB 3832   1.001   6.269   1.163  0.1448 -0.4051  0.7654
  256LIG    HB1 3833   0.952   6.192   1.100 -2.2639  2.4962 -1.0475
  256LIG    HB2 3834   1.006   6.244   1.272 -1.1240 -2.4515  0.3858
  256LIG     CG 3835   1.144   6.276   1.117  0.3306 -0.1544  0.1286
  256LIG    OD1 3836   1.187   6.183   1.043 -0.2986 -0.1817  0.2301
  256LIG    OD2 3837   1.221   6.366   1.157 -0.3116 -0.3868  0.0226
  256LIG      C 3838   0.899   6.464   1.010 -0.2138 -0.5157 -0.1688
  256LIG    OT1 3839   0.799   6.538   0.997 -0.0446 -0.3873 -0.3128
  256LIG    OT2 3840   0.974   6.438   0.917 -0.5847 -0.3235 -0.4834
  257LIG      N 3841   0.395   0.200   9.888  0.3116  0.1284  0.0906
  257LIG     H1 3842   0.341   0.114   9.864  0.3648 -0.0873  0.7514
  257LIG     H2 3843   0.448   0.225   9.802 -2.0569  1.4214 -1.0464
  257LIG     H3 3844   0.464   0.175   9.961 -0.1102 -2.1034 -0.2152
  257LIG     CA 3845   0.293   0.311   9.925  0.0995  0.7287 -0.1383
  257LIG     HA 3846   0.263   0.300  10.028 -0.0988 -0.6079 -0.3346
  257LIG     CB 3847   0.371   0.444   9.900 -0.1560 -0.7965  0.0663
  257LIG    HB1 3848   0.398   0.463   9.794  1.6756  1.4008  0.8989
  257LIG    HB2 3849   0.468   0.434   9.953 -1.3923 -3.9285  1.8831
  257LIG     CG 3850   0.302   0.559   9.967 -0.2765 -0.1172 -0.6869
  257LIG    OD1 3851   0.267   0.660   9.900  0.1862 -0.3432  0.0346
  257LIG    OD2 3852   0.275   0.555  10.092  0.3435  0.2429  0.2046
  257LIG      C 3853   0.176   0.314   9.825  0.7172 -0.2130  0.1001
  257LIG    OT1 3854   0.187   0.261   9.712 -0.0492 -0.3087  0.8924
  257LIG    OT2 3855   0.067   0.360   9.862  0.2283 -0.1665  0.4175
  258LIG      N 3856   2.077   8.162   8.515  0.1807  0.1558  0.4334
  258LIG     H1 3857   2.143   8.166   8.435 -2.3903  3.2752 -1.6861
  258LIG     H2 3858   2.053   8.257   8.550  2.7571  0.9976  0.0178
  258LIG     H3 3859   2.135   8.119   8.589  0.5371 -1.6180 -0.8464
  258LIG     CA 3860   1.961   8.069   8.493 -0.1661 -0.8299 -0.8324
  258LIG     HA 3861   1.932   8.033   8.591 -0.0695 -0.9264 -0.8386
  258LIG     CB 3862   1.843   8.146   8.429  0.4304 -0.5532 -0.2146
  258LIG    HB1 3863   1.852   8.182   8.324  0.4000  3.6701  1.1380
  258LIG    HB2 3864   1.845   8.235   8.495  1.9871 -0.6735 -0.0813
  258LIG     CG 3865   1.707   8.078   8.453  0.2948  0.2791  0.3842
  258LIG    OD1 3866   1.625   8.054   8.359  0.3453  0.8511  0.7115
  258LIG    OD2 3867   1.684   8.045   8.573 -0.1157  0.2693 -0.0751
  258LIG      C 3868   2.005   7.959   8.400  0.1319  0.1670  0.4158
  258LIG    OT1 3869   2.101   7.980   8.324 -0.3948 -0.6730 -0.2619
  258LIG    OT2 3870   1.951   7.845   8.401  0.5054 -0.1080  0.1331
  259LIG      N 3871   1.127   4.736   2.578 -0.2171 -0.6213 -0.2869
  259LIG     H1 3872   1.144   4.651   2.521  1.0283 -0.2221 -0.5253
  259LIG     H2 3873   1.187   4.726   2.662  0.3373  1.1494 -0.4579
  259LIG     H3 3874   1.024   4.744   2.589 -0.1541 -0.2517  0.0419
  259LIG     CA 3875   1.169   4.856   2.498 -0.1211  0.4484  0.3174
  259LIG     HA 3876   1.131   4.949   2.539  0.0142  0.3889  0.5732
  259LIG     CB 3877   1.325   4.866   2.497  0.2185  0.4520  0.1486
  259LIG    HB1 3878   1.372   4.768   2.477  3.0856  1.8461 -0.2941
  259LIG    HB2 3879   1.369   4.894   2.595  0.8571 -1.3118  0.3704
  259LIG     CG 3880   1.371   4.976   2.399 -0.1453  0.1842  0.1135
  259LIG    OD1 3881   1.432   4.940   2.293 -0.1800  0.1142 -0.3422
  259LIG    OD2 3882   1.347   5.097   2.428 -0.2677 -0.2087  0.2942
  259LIG      C 3883   1.114   4.845   2.348 -0.6048  0.1703  0.4228
  259LIG    OT1 3884   1.058   4.737   2.306 -0.5262  0.0924  0.1594
  259LIG    OT2 3885   1.129   4.944   2.268 -0.5214  0.0917  0.0354
  260LIG      N 3886   8.753   4.024   1.757 -0.4682  0.1733  0.3175
  260LIG     H1 3887   8.663   4.016   1.706 -1.1475 -1.2053  1.6684
  260LIG     H2 3888   8.809   3.938   1.741  0.7596  0.7106  1.6596
  260LIG     H3 3889   8.742   4.051   1.857  1.7697  1.3079  0.2816
  260LIG     CA 3890   8.831   4.134   1.704 -0.7457 -0.3329 -0.0441
  260LIG     HA 3891   8.792   4.232   1.726  1.0868  1.1253 -2.9720
  260LIG     CB 3892   8.971   4.120   1.781  0.4033 -1.0197  0.3900
  260LIG    HB1 3893   9.039   4.041   1.742  1.6303 -0.5792  1.5874
  260LIG    HB2 3894   8.978   4.110   1.892  1.1571  0.1967  0.4591
  260LIG     CG 3895   9.046   4.252   1.747 -0.6070 -0.1615  0.4105
  260LIG    OD1 3896   9.167   4.241   1.708  0.2757 -0.5348  0.5810
  260LIG    OD2 3897   8.991   4.362   1.778 -0.0344  0.1610 -0.1815
  260LIG      C 3898   8.845   4.120   1.549 -0.0848 -0.2220  0.2590
  260LIG    OT1 3899   8.807   4.019   1.490  0.0133  1.1707  0.0398
  260LIG    OT2 3900   8.887   4.220   1.490  0.0089  0.0171 -0.1925
  261LIG      N 3901   9.765   9.429   5.909 -0.1828  0.1870 -0.3862
  261LIG     H1 3902   9.821   9.409   5.824  1.2636 -0.6866  0.7478
  261LIG     H2 3903   9.702   9.509   5.886 -1.0262 -0.3300  0.1192
  261LIG     H3 3904   9.816   9.446   5.998 -0.3455 -0.9729 -0.0590
  261LIG     CA 3905   9.679   9.304   5.933 -0.6421 -1.1220 -0.2777
  261LIG     HA 3906   9.745   9.223   5.961  0.5931 -0.5141 -1.3716
  261LIG     CB 3907   9.576   9.335   6.040 -0.4514 -0.2568  0.6090
  261LIG    HB1 3908   9.492   9.395   5.997 -0.9806 -1.0825  0.4699
  261LIG    HB2 3909   9.635   9.387   6.118 -1.2659  0.7658  0.5670
  261LIG     CG 3910   9.516   9.222   6.110 -0.2397 -0.2317 -0.5189
  261LIG    OD1 3911   9.394   9.221   6.130 -0.1635  0.5663  0.3279
  261LIG    OD2 3912   9.588   9.132   6.162 -0.2156 -0.0427  0.7238
  261LIG      C 3913   9.608   9.260   5.802 -0.0442  0.6750 -0.3771
  261LIG    OT1 3914   9.603   9.318   5.695  0.6839  0.5421 -0.0628
  261LIG    OT2 3915   9.555   9.144   5.800  0.2560  0.1495 -0.2740
  262LIG      N 3916   7.642   1.604   6.085  0.6589 -0.2202  0.6503
  262LIG     H1 3917   7.623   1.670   6.164  1.3720  0.0654  0.5784
  262LIG     H2 3918   7.565   1.534   6.085  1.1541 -0.7567  0.5060
  262LIG     H3 3919   7.730   1.551   6.098  0.0362 -1.4589 -0.0948
  262LIG     CA 3920   7.659   1.675   5.950 -0.3054  0.5261 -0.1407
  262LIG     HA 3921   7.563   1.723   5.938 -0.2262  0.7737  0.2277
  262LIG     CB 3922   7.784   1.771   5.965  0.1254  0.0220  0.1364
  262LIG    HB1 3923   7.882   1.720   5.965 -0.4541 -1.1063 -0.1342
  262LIG    HB2 3924   7.779   1.827   6.061 -0.9618  0.5209 -0.2036
  262LIG     CG 3925   7.762   1.880   5.866 -0.6244 -0.3441 -0.5015
  262LIG    OD1 3926   7.863   1.889   5.788  0.4186  0.0826  0.9216
  262LIG    OD2 3927   7.660   1.950   5.865 -0.1934  0.4934 -0.3071
  262LIG      C 3928   7.685   1.588   5.821 -0.1002 -0.7439 -0.1022
  262LIG    OT1 3929   7.707   1.463   5.842  0.7490 -0.2467 -0.0586
  262LIG    OT2 3930   7.692   1.633   5.705 -0.5272 -0.1090  0.6304
  263LIG      N 3931   5.617   5.578   9.156 -0.0839  0.2365 -0.2643
  263LIG     H1 3932   5.658   5.661   9.109  2.3603 -0.6586  0.1842
  263LIG     H2 3933   5.673   5.494   9.131  0.6246  0.4058  0.6987
  263LIG     H3 3934   5.523   5.558   9.118 -0.1202 -1.2540  0.5629
  263LIG     CA 3935   5.609   5.597   9.305 -0.7697  0.2456 -0.0225
  263LIG     HA 3936   5.571   5.504   9.344 -0.6556  0.6997  1.2200
  263LIG     CB 3937   5.751   5.630   9.355 -0.8272 -0.0223  0.8972
  263LIG    HB1 3938   5.775   5.733   9.322  0.0997 -0.4898  0.1024
  263LIG    HB2 3939   5.835   5.573   9.310  1.6485  2.1984  2.5681
  263LIG     CG 3940   5.761   5.624   9.504 -1.0324  0.0514  0.7431
  263LIG    OD1 3941   5.828   5.708   9.573  0.2486  0.1248 -0.1843
  263LIG    OD2 3942   5.703   5.524   9.558  0.0416  0.3026  0.4915
  263LIG      C 3943   5.502   5.705   9.332  0.2233 -0.0849 -0.1181
  263LIG    OT1 3944   5.440   5.767   9.239 -0.8737  0.2508  0.3802
  263LIG    OT2 3945   5.471   5.727   9.450 -0.2032  0.2604 -0.8462
  264LIG      N 3946   0.105   7.344   8.978  0.0242  0.3907  0.2820
  264LIG     H1 3947   0.040   7.363   8.899  0.4289 -0.5339 -0.2864
  264LIG     H2 3948   0.065   7.389   9.062 -2.9464  0.1967 -0.9823
  264LIG     H3 3949   0.194   7.394   8.958 -1.2567  1.0740 -4.1951
  264LIG     CA 3950   0.119   7.200   8.979 -0.2646  0.1311  0.3774
  264LIG     HA 3951   0.195   7.171   8.907  1.5364 -1.2725  2.7651
  264LIG     CB 3952   0.168   7.167   9.130 -0.5595 -0.4425 -0.3751
  264LIG    HB1 3953   0.085   7.178   9.203  1.4905  1.5673  1.7372
  264LIG    HB2 3954   0.255   7.236   9.140 -0.3655 -0.9090  1.1530
  264LIG     CG 3955   0.231   7.031   9.143  0.2626  0.0298  0.4391
  264LIG    OD1 3956   0.190   6.958   9.236 -0.1899 -1.2097  0.4441
  264LIG    OD2 3957   0.330   7.004   9.078  0.0255 -0.2236 -0.2011
  264LIG      C 3958  -0.011   7.118   8.949 -0.3375 -0.1101 -0.5157
  264LIG    OT1 3959  -0.122   7.174   8.922  0.2380  0.4005 -0.2242
  264LIG    OT2 3960  -0.006   6.991   8.958  0.0074  0.3581  0.6245
  265LIG      N 3961   7.281   7.763   0.460 -0.1089  0.3570 -0.1304
  265LIG     H1 3962   7.183   7.728   0.457  0.5134 -1.3315 -2.9552
  265LIG     H2 3963   7.287   7.862   0.430 -0.2233  0.1491 -0.8520
  265LIG     H3 3964   7.331   7.701   0.393  2.7922  1.7478  0.6822
  265LIG     CA 3965   7.348   7.749   0.587 -0.1426  0.4459 -0.2133
  265LIG     HA 3966   7.446   7.792   0.575  0.2222 -0.1331  0.6278
  265LIG     CB 3967   7.259   7.828   0.695 -0.0624  0.0754 -0.0390
  265LIG    HB1 3968   7.164   7.774   0.716 -0.8645  1.0904 -1.0191
  265LIG    HB2 3969   7.237   7.925   0.645 -2.7855 -1.6708 -2.3377
  265LIG     CG 3970   7.332   7.858   0.828 -0.3355  0.1507 -0.6281
  265LIG    OD1 3971   7.285   7.836   0.940  0.6309  0.6705 -0.1908
  265LIG    OD2 3972   7.447   7.914   0.811  0.8326  0.1390  0.0097
  265LIG      C 3973   7.362   7.604   0.635  0.3091  0.5223 -0.1830
  265LIG    OT1 3974   7.304   7.504   0.574  0.5356 -0.4193 -0.8748
  265LIG    OT2 3975   7.430   7.577   0.744  0.6383 -0.0899  0.4778
  266LIG      N 3976   9.651   2.535   9.262  0.1754 -0.0450  0.5342
  266LIG     H1 3977   9.552   2.552   9.288  0.2316 -0.3836  0.9587
  266LIG     H2 3978   9.714   2.504   9.339 -0.5761 -1.4068  0.6104
  266LIG     H3 3979   9.691   2.631   9.248 -0.0716 -0.1354 -0.9259
  266LIG     CA 3980   9.666   2.449   9.146  0.0128 -0.0634  0.7139
  266LIG     HA 3981   9.602   2.362   9.152 -1.2195  0.7964  0.3034
  266LIG     CB 3982   9.641   2.533   9.020 -0.2434  0.5406  0.9797
  266LIG    HB1 3983   9.723   2.591   8.973 -2.4121  1.6514 -1.5628
  266LIG    HB2 3984   9.561   2.608   9.041  2.4112  3.6933  0.1151
  266LIG     CG 3985   9.584   2.455   8.904 -0.2092 -0.0479  0.3663
  266LIG    OD1 3986   9.638   2.472   8.792 -0.2522 -0.0168 -0.1273
  266LIG    OD2 3987   9.480   2.383   8.920  0.5320  0.3358  0.7637
  266LIG      C 3988   9.801   2.379   9.149 -0.2198  0.1685 -0.2583
  266LIG    OT1 3989   9.899   2.418   9.218 -0.6142 -0.8081  1.1680
  266LIG    OT2 3990   9.805   2.281   9.073 -0.0070 -0.6221 -0.1701
  267LIG      N 3991   7.398   9.352   2.407  0.2684  0.4456 -0.1033
  267LIG     H1 3992   7.444   9.306   2.488 -1.7774  1.4287  1.6604
  267LIG     H2 3993   7.313   9.395   2.450  0.8022  1.5812 -0.1729
  267LIG     H3 3994   7.374   9.269   2.348  4.0930  0.0027 -1.1235
  267LIG     CA 3995   7.484   9.444   2.332  0.0017 -0.7694 -0.7756
  267LIG     HA 3996   7.557   9.390   2.273 -0.2372  1.0490 -2.7855
  267LIG     CB 3997   7.399   9.539   2.248 -0.6236  0.1136  0.0568
  267LIG    HB1 3998   7.457   9.622   2.202  2.1797 -1.7041  0.1958
  267LIG    HB2 3999   7.309   9.578   2.300 -1.0119 -0.7347  0.0337
  267LIG     CG 4000   7.343   9.467   2.125  0.3981 -0.3967  0.3530
  267LIG    OD1 4001   7.269   9.542   2.055 -0.2257  0.1642 -0.3874
  267LIG    OD2 4002   7.382   9.353   2.095  0.1509  0.0393  0.0987
  267LIG      C 4003   7.570   9.542   2.420 -0.2973 -0.0578  0.3792
  267LIG    OT1 4004   7.551   9.546   2.543  0.1166  0.3005 -0.0512
  267LIG    OT2 4005   7.668   9.605   2.370 -0.0716  0.6964  0.1049
  268LIG      N 4006   0.832   4.523   2.773 -0.2803  0.1128  0.2428
  268LIG     H1 4007   0.919   4.513   2.717 -1.6055  2.0833 -2.2960
  268LIG     H2 4008   0.765   4.450   2.742 -2.9628  2.0726  1.2247
  268LIG     H3 4009   0.804   4.621   2.752  1.7444  0.6208 -0.1787
  268LIG     CA 4010   0.865   4.494   2.912 -0.4264 -0.3827  0.1454
  268LIG     HA 4011   0.910   4.396   2.906  1.2648  0.3219  0.7436
  268LIG     CB 4012   0.965   4.605   2.950  0.6107  0.1977  0.3569
  268LIG    HB1 4013   0.915   4.700   2.977 -0.0560 -0.4372  1.3854
  268LIG    HB2 4014   1.041   4.635   2.874  0.6486 -0.6023  0.0726
  268LIG     CG 4015   1.056   4.559   3.066  1.3137 -0.5164 -0.0523
  268LIG    OD1 4016   1.101   4.645   3.142 -0.1162  0.9286 -0.0251
  268LIG    OD2 4017   1.083   4.441   3.087  0.3443 -0.4994  0.1653
  268LIG      C 4018   0.747   4.486   3.015  0.4472 -0.0283  1.0735
  268LIG    OT1 4019   0.629   4.518   2.978  1.0813  0.4845 -0.8169
  268LIG    OT2 4020   0.770   4.441   3.127 -0.8253 -0.3040 -0.0232
  269LIG      N 4021   5.242   0.204   5.185  0.2177 -0.1543 -0.4422
  269LIG     H1 4022   5.225   0.172   5.282 -1.7204  1.3578 -0.2417
  269LIG     H2 4023   5.342   0.211   5.161  0.4472 -2.9856 -0.5122
  269LIG     H3 4024   5.197   0.298   5.182  0.4011 -0.0656 -0.4087
  269LIG     CA 4025   5.184   0.110   5.084 -0.4730 -0.1383  0.4255
  269LIG     HA 4026   5.123   0.039   5.139 -0.8123 -0.2751 -0.1266
  269LIG     CB 4027   5.082   0.185   4.993  0.2573  0.1903  0.2193
  269LIG    HB1 4028   5.134   0.254   4.923  2.4078 -0.4069  1.1500
  269LIG    HB2 4029   5.021   0.253   5.056  1.4993  1.9334 -0.4387
  269LIG     CG 4030   4.978   0.091   4.932 -0.0406  0.4716 -0.9044
  269LIG    OD1 4031   4.922   0.125   4.827  0.4169 -0.5259 -0.1506
  269LIG    OD2 4032   4.942  -0.008   5.001  0.0099 -0.3545  0.0794
  269LIG      C 4033   5.283   0.032   4.993  0.0575 -0.0927  0.5218
  269LIG    OT1 4034   5.402   0.078   4.984 -0.3856  0.6041 -0.4837
  269LIG    OT2 4035   5.249  -0.070   4.926 -0.3585 -0.2574 -0.4322
  270LIG      N 4036   2.133   9.986   0.344  0.0077  0.2241 -0.0874
  270LIG     H1 4037   2.035  10.003   0.375 -1.4506 -2.9497 -2.6296
  270LIG     H2 4038   2.124   9.935   0.254  1.2642  2.7358 -1.7016
  270LIG     H3 4039   2.182   9.927   0.414  1.6871  1.9888  0.2726
  270LIG     CA 4040   2.224  10.094   0.312 -0.5557  0.4281 -0.0524
  270LIG     HA 4041   2.321  10.051   0.292 -0.7027 -0.0862  0.3519
  270LIG     CB 4042   2.171  10.171   0.187 -0.3139 -0.6004  0.0972
  270LIG    HB1 4043   2.094  10.246   0.215  1.3647  1.7497 -1.3495
  270LIG    HB2 4044   2.117  10.102   0.120  1.1312 -1.7107  0.0524
  270LIG     CG 4045   2.285  10.235   0.110 -0.1672  0.1660 -0.4727
  270LIG    OD1 4046   2.266  10.331   0.029  0.4043  0.2768  0.4287
  270LIG    OD2 4047   2.400  10.186   0.130  0.1047 -0.0547 -0.3200
  270LIG      C 4048   2.255  10.188   0.424  0.2991 -0.6603  0.0171
  270LIG    OT1 4049   2.199  10.172   0.536  0.0953 -0.8283  0.7958
  270LIG    OT2 4050   2.339  10.281   0.405  0.1278  0.3930 -0.6980
  271LIG      N 4051   3.358   3.207   0.480 -0.6301  0.4042 -0.7762
  271LIG     H1 4052   3.370   3.184   0.581  1.0364 -0.0167 -1.0500
  271LIG     H2 4053   3.294   3.136   0.440 -0.2652 -0.6975  0.5375
  271LIG     H3 4054   3.452   3.196   0.436  1.0208  0.7452  2.4704
  271LIG     CA 4055   3.299   3.341   0.473  0.0949 -0.2043 -0.5161
  271LIG     HA 4056   3.372   3.420   0.475 -0.0171 -0.1269  1.8513
  271LIG     CB 4057   3.231   3.342   0.340 -0.2918  0.6964  0.7040
  271LIG    HB1 4058   3.140   3.280   0.330 -0.3145  1.1677 -2.7824
  271LIG    HB2 4059   3.302   3.302   0.264 -1.5727 -1.1713  0.4685
  271LIG     CG 4060   3.210   3.481   0.286 -0.8055 -0.3502 -0.4667
  271LIG    OD1 4061   3.101   3.514   0.237 -0.0191  0.3656  0.0181
  271LIG    OD2 4062   3.317   3.548   0.288  0.3230 -0.2861 -0.2484
  271LIG      C 4063   3.188   3.366   0.579 -0.4509 -0.0798  0.1031
  271LIG    OT1 4064   3.125   3.282   0.644  0.1786  0.1082  0.3078
  271LIG    OT2 4065   3.155   3.489   0.588  0.0191  0.0773  0.3645
  272LIG      N 4066   9.118   7.098   2.096  0.3286  0.1049 -0.0907
  272LIG     H1 4067   9.132   7.132   1.998  0.1786 -3.1114 -1.2889
  272LIG     H2 4068   9.019   7.119   2.119  0.4223  0.7368 -0.2501
  272LIG     H3 4069   9.181   7.134   2.170 -1.0439  1.9510  0.2323
  272LIG     CA 4070   9.142   6.953   2.081  0.0338  1.3508 -0.2227
  272LIG     HA 4071   9.247   6.935   2.100 -0.1866 -0.1795 -0.3928
  272LIG     CB 4072   9.075   6.887   2.202  0.1388  0.0845 -0.3544
  272LIG    HB1 4073   8.965   6.902   2.201 -0.0155 -0.7548  1.6682
  272LIG    HB2 4074   9.109   6.946   2.290  1.3844  1.3577 -1.6422
  272LIG     CG 4075   9.100   6.739   2.230 -0.4611 -0.0131  0.0881
  272LIG    OD1 4076   9.016   6.670   2.290  0.1484  0.1355 -0.0014
  272LIG    OD2 4077   9.219   6.696   2.209  0.0413  0.1016  0.0385
  272LIG      C 4078   9.085   6.894   1.946 -0.5369  0.2609  0.6127
  272LIG    OT1 4079   9.036   6.976   1.865 -0.6781 -0.1224  0.5000
  272LIG    OT2 4080   9.084   6.770   1.923  0.0557 -0.5465 -0.0641
  273LIG      N 4081   8.576   8.804   3.240 -0.3728 -0.0208  0.1464
  273LIG     H1 4082   8.567   8.904   3.267  1.8946  0.7296 -1.7335
  273LIG     H2 4083   8.660   8.761   3.282  0.3307 -0.4826 -1.6907
  273LIG     H3 4084   8.580   8.810   3.136 -2.5233  0.9223  0.0857
  273LIG     CA 4085   8.450   8.734   3.273  0.0269 -0.5641 -0.4098
  273LIG     HA 4086   8.458   8.646   3.211  0.6381 -0.9257  0.1785
  273LIG     CB 4087   8.464   8.712   3.424 -0.4314 -0.0563  0.6208
  273LIG    HB1 4088   8.439   8.808   3.473 -1.7911  0.8226 -1.6736
  273LIG    HB2 4089   8.561   8.680   3.466  0.4725 -0.7452 -1.9366
  273LIG     CG 4090   8.365   8.608   3.462  0.2660  0.2896 -0.2383
  273LIG    OD1 4091   8.286   8.619   3.555  0.0226  0.3995 -0.3374
  273LIG    OD2 4092   8.367   8.506   3.386 -0.1844 -0.3356 -0.1466
  273LIG      C 4093   8.327   8.828   3.252  0.7596 -0.2623 -0.0174
  273LIG    OT1 4094   8.351   8.951   3.227 -0.5291  0.5560  0.6509
  273LIG    OT2 4095   8.205   8.793   3.262  0.1030  0.2385 -0.1464
  274LIG      N 4096   5.326   6.286   0.005 -0.2119 -0.2022  0.2864
  274LIG     H1 4097   5.284   6.227  -0.069  1.3124 -2.7092  1.3439
  274LIG     H2 4098   5.297   6.385   0.014  1.4897  0.2784  0.7652
  274LIG     H3 4099   5.430   6.288  -0.005 -0.4208  0.8300 -2.0302
  274LIG     CA 4100   5.310   6.216   0.139 -0.3253  0.1267  0.0116
  274LIG     HA 4101   5.371   6.269   0.211  2.5977 -1.9150 -0.8790
  274LIG     CB 4102   5.154   6.228   0.175 -0.2181 -0.2913 -0.4244
  274LIG    HB1 4103   5.094   6.163   0.107  3.5588 -2.0485 -2.2186
  274LIG    HB2 4104   5.124   6.335   0.174  0.8254  0.0435  1.4218
  274LIG     CG 4105   5.133   6.188   0.319  0.3126 -0.2318 -0.8856
  274LIG    OD1 4106   5.054   6.089   0.334 -0.1728 -0.0550 -0.1534
  274LIG    OD2 4107   5.178   6.262   0.412 -0.4526  0.2961 -0.8940
  274LIG      C 4108   5.360   6.070   0.136  0.2699 -0.2862 -0.5249
  274LIG    OT1 4109   5.378   6.020   0.023  0.7602  0.0751 -0.3567
  274LIG    OT2 4110   5.386   6.005   0.237 -0.1426  0.2464  0.0737
  275LIG      N 4111   7.800   5.388   1.715  0.1097 -0.7469  0.5898
  275LIG     H1 4112   7.708   5.380   1.763 -0.7141 -2.2947 -1.1799
  275LIG     H2 4113   7.781   5.434   1.623 -0.0098  0.6525  1.2973
  275LIG     H3 4114   7.830   5.294   1.683  3.0693  0.7130 -1.2020
  275LIG     CA 4115   7.896   5.452   1.804 -0.2181  0.3390 -0.4477
  275LIG     HA 4116   7.846   5.532   1.857 -1.4373  0.0387 -1.1151
  275LIG     CB 4117   7.915   5.335   1.908  0.5160 -0.6564  0.0693
  275LIG    HB1 4118   7.970   5.245   1.873  0.4013 -0.6087 -0.2351
  275LIG    HB2 4119   7.816   5.300   1.943  1.8175 -2.4495  2.1410
  275LIG     CG 4120   7.973   5.390   2.040 -0.0226 -0.0660  0.0899
  275LIG    OD1 4121   8.084   5.335   2.076 -0.0538 -0.4685  0.0969
  275LIG    OD2 4122   7.905   5.466   2.112 -0.1034 -0.5925  0.0444
  275LIG      C 4123   8.026   5.502   1.742 -0.3790  0.6563 -0.0869
  275LIG    OT1 4124   8.037   5.493   1.617  0.0303 -0.1782 -0.2689
  275LIG    OT2 4125   8.117   5.548   1.815 -0.1109  0.0435 -0.3303
  276LIG      N 4126   6.145   2.749   9.434  0.1544 -0.1172 -0.1748
  276LIG     H1 4127   6.129   2.697   9.346 -1.2293 -1.1065  0.6404
  276LIG     H2 4128   6.197   2.691   9.503  2.5320 -0.0597 -1.8819
  276LIG     H3 4129   6.061   2.800   9.470 -0.2805 -0.0244 -1.2918
  276LIG     CA 4130   6.244   2.851   9.391 -0.0648 -0.1993  0.5416
  276LIG     HA 4131   6.200   2.924   9.325 -1.2406 -0.9033  0.5283
  276LIG     CB 4132   6.302   2.916   9.522  0.2920  0.6555  0.6605
  276LIG    HB1 4133   6.355   2.839   9.581  0.3049 -0.6127 -0.9703
  276LIG    HB2 4134   6.216   2.950   9.583 -1.3474 -0.0038 -1.2435
  276LIG     CG 4135   6.380   3.046   9.503  0.4812 -0.2511 -0.4036
  276LIG    OD1 4136   6.489   3.055   9.564 -0.4065  0.1129 -0.3761
  276LIG    OD2 4137   6.321   3.139   9.440  0.6561 -0.4128 -0.5799
  276LIG      C 4138   6.359   2.786   9.309  0.1057  0.9216 -0.0756
  276LIG    OT1 4139   6.359   2.658   9.300  0.4684  0.1751 -0.0827
  276LIG    OT2 4140   6.442   2.853   9.244 -0.3506  0.1726  0.1406
  277LIG      N 4141   3.511   1.764   6.874  0.8164  0.0678 -0.0254
  277LIG     H1 4142   3.547   1.670   6.899  1.3260  0.0858 -0.6510
  277LIG     H2 4143   3.595   1.826   6.868 -1.3236  3.0720 -0.3012
  277LIG     H3 4144   3.454   1.791   6.957 -2.7441  2.1113 -2.9787
  277LIG     CA 4145   3.425   1.769   6.747  0.6377 -0.3517 -0.4221
  277LIG     HA 4146   3.492   1.731   6.671 -0.9829  0.3565 -2.2764
  277LIG     CB 4147   3.308   1.669   6.767  0.5541  0.0865 -0.6019
  277LIG    HB1 4148   3.227   1.721   6.823  0.8579 -0.3593  0.2524
  277LIG    HB2 4149   3.335   1.575   6.819 -0.8196 -0.9049 -1.6303
  277LIG     CG 4150   3.256   1.621   6.632 -0.2500  0.0016 -0.4026
  277LIG    OD1 4151   3.132   1.597   6.618  0.2604 -0.2756 -0.0254
  277LIG    OD2 4152   3.345   1.591   6.544  0.2269 -0.4525 -0.0649
  277LIG      C 4153   3.374   1.914   6.705  0.4412 -0.3554 -0.0414
  277LIG    OT1 4154   3.414   2.012   6.773  0.6487  0.4180  0.6911
  277LIG    OT2 4155   3.307   1.925   6.600 -0.0226 -0.5647  0.4175
  278LIG      N 4156   5.951   1.624   1.139 -0.6206  0.1391 -0.3421
  278LIG     H1 4157   5.898   1.549   1.091  1.0288 -1.6533  0.5703
  278LIG     H2 4158   5.975   1.614   1.240  0.2883  1.5133 -0.4005
  278LIG     H3 4159   5.881   1.701   1.144 -0.0998  0.5050  2.2721
  278LIG     CA 4160   6.079   1.667   1.082  0.6208  0.0321  0.0820
  278LIG     HA 4161   6.104   1.764   1.123 -0.4460  0.1724  0.4273
  278LIG     CB 4162   6.197   1.562   1.114  0.4574 -0.3473  0.8286
  278LIG    HB1 4163   6.169   1.465   1.069 -1.1343 -0.5589  2.2318
  278LIG    HB2 4164   6.202   1.547   1.224  0.1678 -0.9231  0.7650
  278LIG     CG 4165   6.326   1.621   1.068 -0.0482 -0.2743 -0.3725
  278LIG    OD1 4166   6.403   1.548   0.999 -0.4457  0.2271  0.3961
  278LIG    OD2 4167   6.362   1.732   1.115  0.4048 -0.3508 -0.0527
  278LIG      C 4168   6.066   1.686   0.922 -0.2758  0.6802 -0.1000
  278LIG    OT1 4169   5.965   1.646   0.861  0.3969 -0.4692 -0.4200
  278LIG    OT2 4170   6.158   1.745   0.859  0.1385  0.4841 -0.0850
  279LIG      N 4171   1.266   6.052   8.183  0.0753  1.0148  0.3055
  279LIG     H1 4172   1.344   6.080   8.245  1.7025 -0.9118 -0.7959
  279LIG     H2 4173   1.176   6.085   8.224 -0.3565 -2.9605  2.8212
  279LIG     H3 4174   1.273   5.948   8.175  1.1195  1.0313  1.0498
  279LIG     CA 4175   1.300   6.124   8.056  0.4576  0.4543  0.2668
  279LIG     HA 4176   1.237   6.083   7.978  0.4166  1.9860 -0.5228
  279LIG     CB 4177   1.274   6.273   8.084 -0.2452  0.2419  0.6688
  279LIG    HB1 4178   1.346   6.313   8.158 -1.4792 -1.2922  2.7526
  279LIG    HB2 4179   1.172   6.282   8.128 -0.4965 -1.1657  0.4052
  279LIG     CG 4180   1.267   6.354   7.955 -0.2042  0.1162  0.2603
  279LIG    OD1 4181   1.335   6.461   7.953  0.0050 -0.0135 -0.6462
  279LIG    OD2 4182   1.182   6.330   7.866  0.1498  0.2619  0.0320
  279LIG      C 4183   1.439   6.082   8.007 -0.1269  0.0435 -0.2706
  279LIG    OT1 4184   1.514   6.010   8.078 -0.7967 -0.3504  0.6657
  279LIG    OT2 4185   1.477   6.123   7.895  0.6336  0.3630 -0.1104
  280LIG      N 4186   8.697   1.164   6.085  0.3247  0.1919 -0.2909
  280LIG     H1 4187   8.646   1.132   6.000 -0.2159  0.9244 -0.2531
  280LIG     H2 4188   8.730   1.260   6.062  0.5526  0.7498  2.2579
  280LIG     H3 4189   8.771   1.097   6.111  0.1232  0.0943  0.0348
  280LIG     CA 4190   8.601   1.171   6.199 -0.6006  0.2035  0.1554
  280LIG     HA 4191   8.647   1.220   6.283 -2.8517  2.0775  0.3615
  280LIG     CB 4192   8.480   1.256   6.138 -1.5718  0.5421  0.1401
  280LIG    HB1 4193   8.418   1.180   6.086 -0.6374  1.1976 -1.9955
  280LIG    HB2 4194   8.516   1.339   6.073 -1.6660 -0.1331 -0.7734
  280LIG     CG 4195   8.400   1.313   6.252  0.5758  0.1699  0.0081
  280LIG    OD1 4196   8.276   1.306   6.246 -0.3153 -0.2357  0.4498
  280LIG    OD2 4197   8.456   1.366   6.349 -0.3389 -0.2200  0.1841
  280LIG      C 4198   8.550   1.028   6.243  0.2846  0.4362 -0.8665
  280LIG    OT1 4199   8.575   0.925   6.178 -0.3408 -0.6720  0.2284
  280LIG    OT2 4200   8.477   1.023   6.345 -0.0203  0.1167 -0.0650
  281LIG      N 4201   4.101   0.521   2.722 -0.1010  0.5390 -0.5364
  281LIG     H1 4202   4.164   0.585   2.775 -0.5643 -0.2456  1.0089
  281LIG     H2 4203   4.046   0.461   2.786  0.3590 -0.3699 -0.9962
  281LIG     H3 4204   4.163   0.458   2.668  2.0348  0.3130  2.0800
  281LIG     CA 4205   4.009   0.599   2.624 -0.1700  0.4350  0.5976
  281LIG     HA 4206   4.025   0.544   2.532 -0.3898  2.4634 -0.6696
  281LIG     CB 4207   3.857   0.590   2.664 -0.2150  0.3555  0.3837
  281LIG    HB1 4208   3.830   0.660   2.747  0.2802  0.3784  0.5271
  281LIG    HB2 4209   3.836   0.487   2.699  0.4864  1.0117  2.8610
  281LIG     CG 4210   3.776   0.627   2.543 -0.0979  0.6264  0.4887
  281LIG    OD1 4211   3.679   0.706   2.545 -0.4389 -0.1424  0.7201
  281LIG    OD2 4212   3.799   0.567   2.434 -0.4005 -0.3578  0.3746
  281LIG      C 4213   4.053   0.750   2.604 -0.1971  0.4825  0.3957
  281LIG    OT1 4214   4.121   0.805   2.691  0.0598 -0.0652 -0.8847
  281LIG    OT2 4215   4.026   0.809   2.497  0.1881 -0.0452  0.2800
  282LIG      N 4216   0.050   5.505   7.866  0.3679  0.6976 -0.5832
  282LIG     H1 4217   0.118   5.584   7.867 -1.6111  2.4931  3.9219
  282LIG     H2 4218   0.010   5.493   7.771  2.6727  1.8878 -1.7650
  282LIG     H3 4219  -0.016   5.514   7.946  1.8278  1.0507  0.6046
  282LIG     CA 4220   0.124   5.384   7.908 -1.3166  0.7550  0.4453
  282LIG     HA 4221   0.053   5.302   7.902  0.1573 -0.5664  0.6850
  282LIG     CB 4222   0.236   5.365   7.798  0.2063  1.0510 -0.5357
  282LIG    HB1 4223   0.325   5.427   7.824 -0.0134 -0.5078  4.3597
  282LIG    HB2 4224   0.192   5.391   7.699 -1.4524  0.8483  0.1397
  282LIG     CG 4225   0.284   5.225   7.801  0.2361  0.0790  0.3485
  282LIG    OD1 4226   0.399   5.195   7.767 -0.2724 -0.1525  0.0284
  282LIG    OD2 4227   0.195   5.136   7.808  0.1412  0.2311 -0.2676
  282LIG      C 4228   0.185   5.394   8.055  0.3412  0.1132 -0.2531
  282LIG    OT1 4229   0.168   5.501   8.120 -0.3519 -0.0481  0.0924
  282LIG    OT2 4230   0.239   5.303   8.118 -0.0510 -0.1542 -0.3285
  283LIG      N 4231   7.990   7.395   1.936  0.6084 -0.7918 -0.5536
  283LIG     H1 4232   8.060   7.396   2.013  0.1892 -2.4660 -0.1248
  283LIG     H2 4233   7.923   7.316   1.949 -0.5411  0.3813  0.8358
  283LIG     H3 4234   8.033   7.379   1.843 -2.6648  0.4209 -2.3859
  283LIG     CA 4235   7.920   7.530   1.920 -0.6388  0.3626 -0.5835
  283LIG     HA 4236   7.911   7.568   2.021 -1.9674 -0.5689 -0.3416
  283LIG     CB 4237   8.012   7.615   1.833 -0.1240 -0.8016  0.1152
  283LIG    HB1 4238   8.013   7.594   1.724  0.2216  1.0580 -0.2681
  283LIG    HB2 4239   8.117   7.591   1.859 -0.3384 -1.4437  0.3896
  283LIG     CG 4240   7.988   7.769   1.846 -0.3859 -0.0743 -0.5027
  283LIG    OD1 4241   7.989   7.840   1.738 -0.3083  0.0413  0.0840
  283LIG    OD2 4242   7.992   7.823   1.956  0.5699 -0.2195  0.1517
  283LIG      C 4243   7.777   7.538   1.860  0.0991  0.4766 -0.4258
  283LIG    OT1 4244   7.722   7.438   1.811  0.1011  0.0698 -0.6077
  283LIG    OT2 4245   7.713   7.649   1.856 -0.4033  0.2855 -0.1888
  284LIG      N 4246   1.504   2.993   9.773  0.3691  0.3026  0.1130
  284LIG     H1 4247   1.595   2.944   9.783  1.2635  1.9266 -0.0094
  284LIG     H2 4248   1.430   2.921   9.786  0.6717 -0.2737 -1.2491
  284LIG     H3 4249   1.482   3.023   9.676 -0.2809 -1.1028 -0.1805
  284LIG     CA 4250   1.486   3.107   9.869  0.0193 -0.4367 -0.0747
  284LIG     HA 4251   1.381   3.115   9.891  0.5802  2.0801  1.8673
  284LIG     CB 4252   1.574   3.066   9.987 -0.3535  0.1209  0.1259
  284LIG    HB1 4253   1.683   3.073   9.964 -0.3327  1.4351  0.5918
  284LIG    HB2 4254   1.550   2.960  10.008  0.5514 -0.6879 -2.6792
  284LIG     CG 4255   1.543   3.151  10.109  0.4253  0.2600  0.1014
  284LIG    OD1 4256   1.637   3.202  10.173  0.1313 -0.3356 -0.3055
  284LIG    OD2 4257   1.419   3.172  10.141  0.2987  0.1540 -0.5914
  284LIG      C 4258   1.516   3.245   9.803  0.1731  0.0807 -0.6825
  284LIG    OT1 4259   1.574   3.237   9.694  0.0593  0.3946  0.7090
  284LIG    OT2 4260   1.486   3.350   9.857 -0.1344  0.3968 -0.9382
  285LIG      N 4261   9.281   4.959   1.374  0.4108 -0.0120  0.3878
  285LIG     H1 4262   9.268   5.047   1.427  0.0066  1.2985 -1.7871
  285LIG     H2 4263   9.377   4.918   1.381  0.6263  0.0964 -1.6249
  285LIG     H3 4264   9.253   4.983   1.276 -0.6846  0.0090  0.7087
  285LIG     CA 4265   9.177   4.863   1.418 -0.5467 -0.0908 -0.4619
  285LIG     HA 4266   9.202   4.765   1.381 -3.2343 -0.1123 -2.3576
  285LIG     CB 4267   9.188   4.867   1.583  0.2295  0.5885 -0.6867
  285LIG    HB1 4268   9.125   4.952   1.617  0.2241 -0.7581  2.9378
  285LIG    HB2 4269   9.292   4.885   1.617  0.8466  1.4448 -2.9676
  285LIG     CG 4270   9.142   4.740   1.657  1.2478 -0.0572  0.4914
  285LIG    OD1 4271   9.054   4.758   1.746  0.1163 -0.2383 -0.1829
  285LIG    OD2 4272   9.188   4.624   1.635  0.0320  0.4868 -0.1414
  285LIG      C 4273   9.035   4.887   1.377 -0.7768  0.2308 -0.4168
  285LIG    OT1 4274   8.993   4.994   1.328 -0.4985  0.1860  0.4653
  285LIG    OT2 4275   8.952   4.795   1.406  0.1931 -0.3661 -0.2923
  286LIG      N 4276   7.943   1.457   5.732 -0.1995 -0.5657 -0.1793
  286LIG     H1 4277   8.016   1.525   5.761 -0.5719 -0.2920  0.1305
  286LIG     H2 4278   7.850   1.485   5.770 -0.3106 -0.4053 -0.5742
  286LIG     H3 4279   7.974   1.370   5.780  2.3934  0.3703 -0.1150
  286LIG     CA 4280   7.942   1.427   5.590 -0.5354  0.1515  0.0256
  286LIG     HA 4281   8.024   1.357   5.590 -0.4598  0.2310  1.1352
  286LIG     CB 4282   7.799   1.370   5.551 -0.7904  0.7663 -0.4680
  286LIG    HB1 4283   7.741   1.463   5.538 -2.2752  0.2009  1.8410
  286LIG    HB2 4284   7.772   1.308   5.639  4.6015  1.2347  1.7222
  286LIG     CG 4285   7.808   1.279   5.435  0.1031  0.3890 -0.5735
  286LIG    OD1 4286   7.720   1.286   5.349 -0.3347  0.0807 -0.3621
  286LIG    OD2 4287   7.890   1.179   5.437  0.6422 -0.0249 -0.0965
  286LIG      C 4288   7.983   1.544   5.495 -0.7407 -1.0862  0.0777
  286LIG    OT1 4289   8.021   1.647   5.553  0.5762  0.0606  0.1515
  286LIG    OT2 4290   7.987   1.526   5.375  0.2184  0.5897 -0.1825
  287LIG      N 4291   6.356   0.629   1.360 -0.1786 -0.6699 -0.1493
  287LIG     H1 4292   6.299   0.543   1.370 -2.0452  0.4988 -0.3311
  287LIG     H2 4293   6.294   0.706   1.325  0.1881 -0.6403 -0.7341
  287LIG     H3 4294   6.423   0.613   1.282 -0.6890 -0.4161 -0.6460
  287LIG     CA 4295   6.432   0.659   1.488  0.1768  0.3654 -0.1519
  287LIG     HA 4296   6.516   0.592   1.487  0.2310  0.4303  0.0310
  287LIG     CB 4297   6.475   0.810   1.493 -0.2549 -0.4090  0.4246
  287LIG    HB1 4298   6.380   0.865   1.513  1.0369  1.9159  0.4206
  287LIG    HB2 4299   6.514   0.848   1.396  1.8563 -0.1987  1.3464
  287LIG     CG 4300   6.578   0.841   1.596  0.3030 -0.6309 -0.0289
  287LIG    OD1 4301   6.538   0.902   1.702  0.3783  0.2960 -0.1261
  287LIG    OD2 4302   6.694   0.801   1.583 -0.3189 -0.3805  0.0202
  287LIG      C 4303   6.352   0.618   1.618  0.5321  0.5079  0.3488
  287LIG    OT1 4304   6.230   0.584   1.598  0.0970 -0.5540  0.2647
  287LIG    OT2 4305   6.405   0.601   1.731 -0.1825  0.0742  0.4346
  288LIG      N 4306   9.874   9.342   8.431  0.1797  0.4470 -0.3438
  288LIG     H1 4307   9.893   9.424   8.492  0.8976  0.3887 -0.4851
  288LIG     H2 4308   9.964   9.291   8.422 -0.0985 -0.1067  0.0471
  288LIG     H3 4309   9.850   9.370   8.333  3.1925  1.5697 -0.8101
  288LIG     CA 4310   9.750   9.266   8.474 -1.1655  0.9423 -0.0826
  288LIG     HA 4311   9.757   9.169   8.427  0.9714  0.5179  1.0582
  288LIG     CB 4312   9.743   9.267   8.631  0.4481 -0.8306  0.7680
  288LIG    HB1 4313   9.698   9.360   8.672  2.3403  0.7445 -0.6302
  288LIG    HB2 4314   9.842   9.265   8.682  1.3792  2.1369 -0.7675
  288LIG     CG 4315   9.657   9.147   8.673  0.3270 -0.7779  0.0542
  288LIG    OD1 4316   9.590   9.153   8.777  0.7717 -0.0647 -0.3762
  288LIG    OD2 4317   9.679   9.038   8.621 -0.7487  0.1034 -0.3346
  288LIG      C 4318   9.626   9.329   8.416 -0.2652 -0.3496  0.0928
  288LIG    OT1 4319   9.636   9.439   8.343  0.2340  0.4818 -0.0701
  288LIG    OT2 4320   9.518   9.277   8.442  0.2095  0.4235 -1.2909
  289LIG      N 4321   0.657   8.565   8.999  0.2208  0.0529  0.2945
  289LIG     H1 4322   0.748   8.558   9.049  0.6096 -1.9084 -0.6080
  289LIG     H2 4323   0.656   8.550   8.896  0.8948 -1.1657  0.4449
  289LIG     H3 4324   0.625   8.662   9.014  2.2240  0.6716  0.7801
  289LIG     CA 4325   0.570   8.460   9.064 -0.2644  0.0286  0.2531
  289LIG     HA 4326   0.616   8.365   9.041 -2.7002 -0.3395 -3.6471
  289LIG     CB 4327   0.570   8.485   9.218  0.4050  0.4082  0.5704
  289LIG    HB1 4328   0.510   8.577   9.234 -0.9764 -0.4642  0.5168
  289LIG    HB2 4329   0.674   8.504   9.252  0.0793 -0.0227  1.8219
  289LIG     CG 4330   0.516   8.368   9.284  0.3384  0.7953  0.4061
  289LIG    OD1 4331   0.437   8.386   9.377 -0.5502 -0.1770 -0.7146
  289LIG    OD2 4332   0.556   8.251   9.260  0.6458  0.2199 -0.0292
  289LIG      C 4333   0.432   8.455   8.985 -0.4505  0.6856 -0.2999
  289LIG    OT1 4334   0.416   8.525   8.880  0.0398  0.4200  0.0549
  289LIG    OT2 4335   0.345   8.369   9.020 -0.7844 -0.3330  0.5069
  290LIG      N 4336   7.968   0.668   6.237 -0.1646  0.2985  0.8160
  290LIG     H1 4337   7.914   0.582   6.259  0.1164 -0.2108 -0.4403
  290LIG     H2 4338   7.975   0.728   6.322  1.9368  1.0670  0.1534
  290LIG     H3 4339   7.935   0.728   6.159  1.7053 -0.4581 -0.6111
  290LIG     CA 4340   8.095   0.617   6.172  0.5235  0.0138 -0.2469
  290LIG     HA 4341   8.151   0.699   6.131  0.0439 -1.6122 -4.3167
  290LIG     CB 4342   8.163   0.525   6.274  0.8659 -0.4645  0.8895
  290LIG    HB1 4343   8.115   0.426   6.292  1.1575 -0.3927  2.1025
  290LIG    HB2 4344   8.154   0.580   6.370  2.0611  2.2785 -0.5442
  290LIG     CG 4345   8.308   0.504   6.231  0.4686  0.4972  0.9492
  290LIG    OD1 4346   8.340   0.385   6.228 -0.0612  0.3129  0.4283
  290LIG    OD2 4347   8.386   0.599   6.218 -0.4272  0.2808  0.4032
  290LIG      C 4348   8.058   0.543   6.038 -0.0731 -0.1404  0.1647
  290LIG    OT1 4349   7.941   0.529   6.002  0.1246  0.9264  0.6578
  290LIG    OT2 4350   8.155   0.494   5.974  0.4407 -0.5269  0.8008
  291LIG      N 4351   7.221   1.399   4.894  0.0365 -0.2492  0.2285
  291LIG     H1 4352   7.225   1.299   4.922 -1.0911 -0.4697 -0.3559
  291LIG     H2 4353   7.271   1.460   4.962  0.6221  0.0554 -0.4799
  291LIG     H3 4354   7.124   1.434   4.911 -1.3854 -2.3660 -3.0300
  291LIG     CA 4355   7.255   1.419   4.750 -0.7047  0.3767 -0.0323
  291LIG     HA 4356   7.358   1.384   4.752 -0.9427 -0.3443 -0.0674
  291LIG     CB 4357   7.166   1.330   4.658 -0.1497 -0.3945  0.0656
  291LIG    HB1 4358   7.064   1.373   4.659  0.0463  0.0812  1.0281
  291LIG    HB2 4359   7.151   1.235   4.714 -0.9901 -0.0775  0.3916
  291LIG     CG 4360   7.231   1.303   4.526 -0.5857 -0.6850  1.1093
  291LIG    OD1 4361   7.155   1.295   4.428 -0.1756 -0.3917  0.0692
  291LIG    OD2 4362   7.354   1.269   4.518 -0.1285 -0.3314 -0.0482
  291LIG      C 4363   7.250   1.563   4.707  0.3401 -0.3382 -0.8207
  291LIG    OT1 4364   7.218   1.654   4.792 -0.1147 -0.1796 -0.1992
  291LIG    OT2 4365   7.270   1.586   4.590 -0.0725  0.6647 -0.5029
  292LIG      N 4366   1.763   1.044   1.606 -0.3520 -0.1352 -0.0847
  292LIG     H1 4367   1.757   1.133   1.659 -1.3817 -0.6381  0.6665
  292LIG     H2 4368   1.865   1.024   1.605 -0.6029 -1.4590 -1.3034
  292LIG     H3 4369   1.726   1.066   1.511 -2.9031  3.1510  1.5402
  292LIG     CA 4370   1.689   0.943   1.676  0.0559 -0.4103  0.3562
  292LIG     HA 4371   1.706   0.854   1.618 -0.6209  0.1585 -0.7438
  292LIG     CB 4372   1.748   0.921   1.818  0.2564 -0.3220  0.8158
  292LIG    HB1 4373   1.726   1.004   1.888  1.4077 -0.6960  1.6260
  292LIG    HB2 4374   1.859   0.918   1.811  0.2809  1.3002  0.1893
  292LIG     CG 4375   1.705   0.786   1.874 -0.8301 -0.2098  0.0616
  292LIG    OD1 4376   1.678   0.770   1.996 -0.0559  0.3687 -0.2411
  292LIG    OD2 4377   1.720   0.687   1.795 -0.5695 -0.2438  0.0510
  292LIG      C 4378   1.537   0.972   1.705 -0.1910  0.5103 -0.0667
  292LIG    OT1 4379   1.490   1.084   1.679 -0.3301 -0.2520  0.4205
  292LIG    OT2 4380   1.460   0.881   1.747 -0.2664  0.4428 -0.4280
  293LIG      N 4381   1.666   6.347   2.123  0.2903 -0.5461 -0.5634
  293LIG     H1 4382   1.763   6.335   2.088 -0.6640  1.7768 -4.3339
  293LIG     H2 4383   1.628   6.439   2.093  1.0981 -0.3130 -0.8655
  293LIG     H3 4384   1.687   6.352   2.224 -0.3452 -1.2352 -0.3877
  293LIG     CA 4385   1.566   6.231   2.108  0.2124 -0.1959  0.1618
  293LIG     HA 4386   1.620   6.153   2.158 -2.3426 -1.3316  1.2205
  293LIG     CB 4387   1.430   6.268   2.168 -0.9756  0.3085 -0.0186
  293LIG    HB1 4388   1.384   6.336   2.094  1.9537  1.5626 -0.7768
  293LIG    HB2 4389   1.435   6.345   2.248  1.7123  2.3731 -2.0483
  293LIG     CG 4390   1.344   6.153   2.209 -0.6264 -0.2771  0.3484
  293LIG    OD1 4391   1.236   6.122   2.155  0.0721  0.1209  0.3097
  293LIG    OD2 4392   1.388   6.085   2.304 -0.1560  0.3423  0.5291
  293LIG      C 4393   1.561   6.195   1.954 -0.3054  0.0666 -0.2767
  293LIG    OT1 4394   1.607   6.274   1.866 -0.2424 -0.5778  0.5467
  293LIG    OT2 4395   1.491   6.096   1.913  0.0700  0.0668 -0.2306
  294LIG      N 4396   7.179   9.567   7.521  0.1137  0.2082 -0.0094
  294LIG     H1 4397   7.216   9.548   7.425 -0.4966 -0.6236 -0.0850
  294LIG     H2 4398   7.184   9.668   7.545 -2.2065  0.3834 -0.1020
  294LIG     H3 4399   7.232   9.519   7.596 -0.7329  1.0770  1.1693
  294LIG     CA 4400   7.030   9.534   7.526 -0.6660  0.0709  0.0550
  294LIG     HA 4401   7.034   9.430   7.500 -0.1272 -0.1912  1.1707
  294LIG     CB 4402   7.001   9.565   7.674  0.0207 -0.0640  0.1314
  294LIG    HB1 4403   6.972   9.671   7.692  0.9724  0.3852 -0.9050
  294LIG    HB2 4404   7.078   9.532   7.747 -0.8110  1.1874  1.6145
  294LIG     CG 4405   6.879   9.486   7.706 -0.3564  0.1849 -0.2450
  294LIG    OD1 4406   6.765   9.542   7.725 -0.2379  0.2590 -0.3798
  294LIG    OD2 4407   6.888   9.361   7.701 -1.1625  0.1700  0.2745
  294LIG      C 4408   6.945   9.611   7.421  0.3827  0.4634  0.3030
  294LIG    OT1 4409   7.003   9.697   7.347  0.1811 -0.3457 -0.6452
  294LIG    OT2 4410   6.817   9.594   7.412 -0.0387  0.5538 -0.0235
  295LIG      N 4411   1.074   3.620   6.130  0.3605  0.0336 -0.4838
  295LIG     H1 4412   1.050   3.544   6.197 -1.9899 -0.8064 -2.1680
  295LIG     H2 4413   1.137   3.682   6.183 -0.4661  2.0531 -1.7931
  295LIG     H3 4414   0.986   3.673   6.110 -0.1547 -0.0725  1.4162
  295LIG     CA 4415   1.130   3.544   6.014  0.1692  1.0543 -0.0371
  295LIG     HA 4416   1.068   3.457   5.997  0.0065  1.2129 -0.2541
  295LIG     CB 4417   1.122   3.644   5.892 -0.2060  0.3343  0.3432
  295LIG    HB1 4418   1.212   3.710   5.898  0.6730 -0.8961  0.9245
  295LIG    HB2 4419   1.029   3.701   5.875 -0.1596 -0.3236 -2.1971
  295LIG     CG 4420   1.124   3.557   5.773 -0.2361  0.2306  0.2066
  295LIG    OD1 4421   1.218   3.570   5.685  1.2023  0.5251 -0.7012
  295LIG    OD2 4422   1.035   3.471   5.759 -0.0969  0.1136  0.4816
  295LIG      C 4423   1.271   3.482   6.045  0.1990 -0.4345  0.0990
  295LIG    OT1 4424   1.329   3.518   6.151  0.1923  0.7975 -0.1009
  295LIG    OT2 4425   1.330   3.413   5.963  0.1677  0.7496 -0.6752
  296LIG      N 4426   0.605   4.711   6.055  0.3799  0.3138 -0.4413
  296LIG     H1 4427   0.577   4.811   6.064  0.4166  0.1184  2.3189
  296LIG     H2 4428   0.647   4.684   6.146 -1.0565  0.7818  0.3837
  296LIG     H3 4429   0.682   4.716   5.986  1.6875  1.3761  1.0506
  296LIG     CA 4430   0.494   4.628   6.005 -0.2627 -1.3429 -0.3316
  296LIG     HA 4431   0.539   4.542   5.957  0.0437 -1.5981  0.4103
  296LIG     CB 4432   0.414   4.583   6.132  0.2082  0.8340 -0.3810
  296LIG    HB1 4433   0.374   4.676   6.176 -1.1642  0.5419 -0.9723
  296LIG    HB2 4434   0.485   4.544   6.208 -1.6457  1.0795  1.5185
  296LIG     CG 4435   0.314   4.472   6.118  0.2973 -0.0844  0.6166
  296LIG    OD1 4436   0.213   4.469   6.184  0.2277 -0.4723 -0.3527
  296LIG    OD2 4437   0.357   4.365   6.059  0.2099 -0.2237 -0.3630
  296LIG      C 4438   0.391   4.689   5.896 -0.6261 -0.4807  0.2490
  296LIG    OT1 4439   0.404   4.807   5.844 -0.2211  0.5344  0.1452
  296LIG    OT2 4440   0.305   4.609   5.853 -0.3471 -0.1946  0.3817
  297LIG      N 4441   4.861   8.843   9.658  0.2482 -0.3448  0.3198
  297LIG     H1 4442   4.922   8.819   9.738 -0.0528  2.8535  1.5818
  297LIG     H2 4443   4.880   8.781   9.577  0.3745 -1.6998  1.3602
  297LIG     H3 4444   4.887   8.937   9.621  1.8432 -2.2747 -3.7072
  297LIG     CA 4445   4.729   8.838   9.719 -0.3226  0.6829  0.3554
  297LIG     HA 4446   4.719   8.911   9.797 -1.3304  1.7220 -0.7065
  297LIG     CB 4447   4.626   8.860   9.603  0.2858 -0.3316  0.3371
  297LIG    HB1 4448   4.620   8.772   9.536  1.7681  0.5899 -1.0455
  297LIG    HB2 4449   4.657   8.953   9.550  1.4054 -0.9117 -0.0308
  297LIG     CG 4450   4.495   8.903   9.661  0.3195  0.4366 -0.0243
  297LIG    OD1 4451   4.393   8.864   9.594 -0.4728  0.1143  0.0906
  297LIG    OD2 4452   4.490   8.987   9.746 -0.7688 -0.3130  0.2351
  297LIG      C 4453   4.703   8.689   9.772  0.3431 -0.1469 -0.4097
  297LIG    OT1 4454   4.779   8.592   9.742  0.5197 -0.0693 -0.0807
  297LIG    OT2 4455   4.611   8.678   9.858  0.7949  0.0083 -0.1930
  298LIG      N 4456   4.256   8.498   9.230 -0.4589  0.8458 -0.0300
  298LIG     H1 4457   4.153   8.484   9.233 -0.3600 -0.0416 -0.5088
  298LIG     H2 4458   4.290   8.520   9.326  1.6683  0.1068 -0.5817
  298LIG     H3 4459   4.290   8.571   9.164  0.0331 -0.0414 -0.7673
  298LIG     CA 4460   4.302   8.361   9.197 -0.2777  0.3183 -0.4262
  298LIG     HA 4461   4.231   8.290   9.238 -0.7130  0.5506 -0.7832
  298LIG     CB 4462   4.303   8.348   9.051 -0.1379  0.1202 -0.0279
  298LIG    HB1 4463   4.381   8.418   9.013 -0.1842  0.5151  0.5981
  298LIG    HB2 4464   4.203   8.379   9.016 -0.2108  0.7048  0.6828
  298LIG     CG 4465   4.327   8.205   9.008 -0.3285  0.4274  0.5293
  298LIG    OD1 4466   4.424   8.186   8.927 -0.1464  0.1670  0.9352
  298LIG    OD2 4467   4.257   8.108   9.052 -0.3173 -0.3554  0.3189
  298LIG      C 4468   4.444   8.321   9.260  0.1943  0.0023 -0.5349
  298LIG    OT1 4469   4.516   8.406   9.312  0.9232  0.0799 -0.6257
  298LIG    OT2 4470   4.474   8.195   9.262  0.2095  0.3438  0.2508
  299LIG      N 4471   5.640   8.053   7.072 -0.4685  0.1561 -0.0745
  299LIG     H1 4472   5.699   8.137   7.056 -1.2025  1.1804  2.4058
  299LIG     H2 4473   5.602   8.058   7.168  0.1523 -0.5502  0.2006
  299LIG     H3 4474   5.695   7.970   7.044  0.3004  1.0103 -1.1723
  299LIG     CA 4475   5.536   8.071   6.973  0.3398  0.0212 -0.4345
  299LIG     HA 4476   5.539   7.987   6.906 -0.0640  0.7774 -1.4167
  299LIG     CB 4477   5.400   8.092   7.044 -0.0130 -0.5548 -0.7902
  299LIG    HB1 4478   5.402   8.191   7.095  2.6479 -1.3700  0.8215
  299LIG    HB2 4479   5.388   8.031   7.136  2.0252  0.7496  0.3809
  299LIG     CG 4480   5.281   8.085   6.958  0.1897 -0.1916  0.1334
  299LIG    OD1 4481   5.181   8.157   6.991  0.1648 -0.1604  0.0402
  299LIG    OD2 4482   5.286   8.005   6.863 -0.4236 -0.5640  0.1695
  299LIG      C 4483   5.569   8.202   6.901  0.7039 -0.0910  0.5338
  299LIG    OT1 4484   5.672   8.267   6.928 -0.9109  0.6108 -0.6421
  299LIG    OT2 4485   5.491   8.242   6.805 -0.0865 -0.0187 -0.5714
  300LIG      N 4486   5.834   0.363   2.640  0.6515 -0.5155  0.5450
  300LIG     H1 4487   5.832   0.321   2.545  0.8491  1.8702 -0.5547
  300LIG     H2 4488   5.876   0.301   2.711 -1.4573 -0.7515  1.6427
  300LIG     H3 4489   5.735   0.379   2.669  0.3915 -0.2863 -0.4233
  300LIG     CA 4490   5.916   0.487   2.634 -0.8237  0.0706 -0.1124
  300LIG     HA 4491   6.013   0.462   2.593 -1.3639 -1.2058 -0.6352
  300LIG     CB 4492   5.841   0.578   2.532 -1.0571  0.0862 -0.5420
  300LIG    HB1 4493   5.741   0.600   2.577 -0.6638 -0.2544  0.5163
  300LIG    HB2 4494   5.819   0.517   2.442 -1.7206 -0.1592 -0.2163
  300LIG     CG 4495   5.905   0.701   2.498  0.0809 -0.3714 -0.3055
  300LIG    OD1 4496   5.825   0.795   2.475 -0.1636 -0.0066 -0.1155
  300LIG    OD2 4497   6.030   0.707   2.472  0.0945 -0.4885 -0.5294
  300LIG      C 4498   5.929   0.546   2.772 -0.1631  0.6043  0.3025
  300LIG    OT1 4499   5.852   0.502   2.860  0.2887 -0.3570 -0.4952
  300LIG    OT2 4500   6.009   0.642   2.792  0.7807  0.5215 -0.5327
  301LIG      N 4501   9.996   3.411   7.707 -0.2051  0.2368 -0.3259
  301LIG     H1 4502   9.942   3.493   7.675 -0.4565 -0.0448 -0.6359
  301LIG     H2 4503   9.947   3.319   7.713  1.0453 -0.2465  3.3400
  301LIG     H3 4504  10.025   3.428   7.805  1.7102  1.6509 -1.1089
  301LIG     CA 4505  10.112   3.394   7.613 -0.0031  0.6118 -0.2262
  301LIG     HA 4506  10.153   3.493   7.620  0.8944  0.1198  2.1626
  301LIG     CB 4507  10.204   3.291   7.678 -0.2947  0.7440 -0.9288
  301LIG    HB1 4508  10.161   3.190   7.661 -0.5612  0.5841  0.6475
  301LIG    HB2 4509  10.220   3.303   7.787 -1.5895  2.5608 -0.9211
  301LIG     CG 4510  10.339   3.320   7.625  1.0541 -0.2196  0.0042
  301LIG    OD1 4511  10.399   3.224   7.574  0.3336  0.2373  0.4668
  301LIG    OD2 4512  10.392   3.433   7.636 -0.2507 -0.3574 -0.0367
  301LIG      C 4513  10.070   3.370   7.461 -0.4413  0.2987 -0.2485
  301LIG    OT1 4514   9.946   3.363   7.436  0.1442 -0.1044  0.0625
  301LIG    OT2 4515  10.159   3.353   7.369  0.3924 -0.0016  0.0650
  302LIG      N 4516   6.657   1.174   6.502 -0.0374  0.3400  0.2575
  302LIG     H1 4517   6.737   1.218   6.451 -1.3800  1.1253 -1.2236
  302LIG     H2 4518   6.667   1.191   6.604  3.2625 -0.8113  0.1906
  302LIG     H3 4519   6.659   1.072   6.484  1.9599  0.5217 -0.8158
  302LIG     CA 4520   6.530   1.221   6.446  0.7907 -0.7292  0.5654
  302LIG     HA 4521   6.455   1.163   6.497 -1.4426  0.5786 -1.1514
  302LIG     CB 4522   6.514   1.368   6.502  0.1133 -0.4743  0.4665
  302LIG    HB1 4523   6.597   1.434   6.469  0.8467 -1.1831  0.8690
  302LIG    HB2 4524   6.524   1.362   6.613  2.0795 -1.6702  0.2588
  302LIG     CG 4525   6.386   1.432   6.469  0.0177 -0.7097 -0.6821
  302LIG    OD1 4526   6.388   1.553   6.435  0.2960 -0.1775 -0.2859
  302LIG    OD2 4527   6.283   1.366   6.483 -0.2020  0.4497  0.1733
  302LIG      C 4528   6.522   1.214   6.289  0.6123 -0.5160 -0.2831
  302LIG    OT1 4529   6.627   1.206   6.226  0.3330  0.0876 -0.6824
  302LIG    OT2 4530   6.413   1.226   6.231  0.0657 -0.1535  0.4840
  303LIG      N 4531   9.940   0.023   1.117  0.1479  0.4603  0.3226
  303LIG     H1 4532   9.919   0.108   1.061 -0.8607 -0.0536 -0.1014
  303LIG     H2 4533   9.965  -0.049   1.047  0.1152  0.4224  0.3494
  303LIG     H3 4534   9.854  -0.003   1.170  0.0828  1.5334  0.7637
  303LIG     CA 4535  10.064   0.045   1.208  0.0430  0.3652  0.1280
  303LIG     HA 4536  10.149   0.058   1.141 -1.8947 -1.2933 -2.7889
  303LIG     CB 4537  10.042   0.185   1.277  0.1255  0.7676  0.6453
  303LIG    HB1 4538   9.959   0.169   1.350 -1.0414 -0.7523 -0.9702
  303LIG    HB2 4539  10.011   0.266   1.208  0.9958  1.0189  0.5539
  303LIG     CG 4540  10.164   0.243   1.335  0.2340 -0.6843 -0.0920
  303LIG    OD1 4541  10.159   0.293   1.452  0.1075 -0.5093  0.3040
  303LIG    OD2 4542  10.275   0.247   1.273  0.7863 -0.8737 -0.3508
  303LIG      C 4543  10.088  -0.069   1.317  0.1677  0.2468  0.0893
  303LIG    OT1 4544  10.023  -0.175   1.324  0.4542 -0.6860  0.0333
  303LIG    OT2 4545  10.177  -0.040   1.395 -0.1513 -0.1748  0.0530
  304LIG      N 4546   5.211   1.280   7.603  0.1342  0.0703  0.4509
  304LIG     H1 4547   5.173   1.252   7.696 -0.3936  0.5992  0.3939
  304LIG     H2 4548   5.309   1.314   7.612 -0.3345  1.2358  1.3376
  304LIG     H3 4549   5.143   1.348   7.563  3.7658  2.4436 -1.8908
  304LIG     CA 4550   5.199   1.159   7.515  0.1287 -0.0078 -0.1120
  304LIG     HA 4551   5.092   1.146   7.506 -0.0680  0.8474  1.0099
  304LIG     CB 4552   5.276   1.191   7.391  0.4975  0.1432  0.9643
  304LIG    HB1 4553   5.385   1.181   7.408  0.6912  1.7615  0.6765
  304LIG    HB2 4554   5.257   1.295   7.358  1.1358 -0.2507 -0.6848
  304LIG     CG 4555   5.236   1.086   7.286 -0.9020 -0.3784 -0.1058
  304LIG    OD1 4556   5.325   1.057   7.204  0.4470 -0.7056 -0.7917
  304LIG    OD2 4557   5.117   1.064   7.267 -0.3019 -0.4865 -0.1002
  304LIG      C 4558   5.255   1.031   7.584 -0.0598  0.1437 -0.3020
  304LIG    OT1 4559   5.318   1.034   7.692  0.0962  0.0069 -0.2040
  304LIG    OT2 4560   5.228   0.922   7.528 -0.0972 -0.1510  0.1006
  305LIG      N 4561   0.076   8.233   2.059  0.3260 -0.1085 -0.3739
  305LIG     H1 4562   0.142   8.307   2.027 -1.4394  1.8935  0.4972
  305LIG     H2 4563  -0.009   8.241   2.000 -1.4287 -1.1632  1.9586
  305LIG     H3 4564   0.040   8.247   2.156  0.5524 -1.8332 -0.0345
  305LIG     CA 4565   0.131   8.096   2.038  0.8908  0.0289 -0.1754
  305LIG     HA 4566   0.050   8.031   2.068  0.0241  1.3404  0.4381
  305LIG     CB 4567   0.159   8.093   1.880 -0.2997  0.2456  0.0510
  305LIG    HB1 4568   0.240   8.164   1.855 -1.2541  1.2555 -0.2258
  305LIG    HB2 4569   0.065   8.126   1.831 -1.0283 -0.8687  0.6762
  305LIG     CG 4570   0.191   7.954   1.837  0.3842  0.4954 -0.0596
  305LIG    OD1 4571   0.307   7.929   1.799 -0.6581 -0.1579  0.0820
  305LIG    OD2 4572   0.103   7.868   1.836  0.4091 -0.5616  0.0019
  305LIG      C 4573   0.256   8.063   2.126 -0.6966 -0.3029  0.5495
  305LIG    OT1 4574   0.298   8.150   2.201 -0.0001  1.3204 -0.4088
  305LIG    OT2 4575   0.312   7.954   2.120  0.3891  0.9307  0.6550
  306LIG      N 4576   0.104   0.059   4.325 -0.3453  0.4301 -0.1736
  306LIG     H1 4577   0.009   0.098   4.342 -0.1601  0.9273 -0.2881
  306LIG     H2 4578   0.113  -0.037   4.285 -1.3609 -0.4538  1.6762
  306LIG     H3 4579   0.146   0.050   4.420  0.5923  0.0079 -0.6190
  306LIG     CA 4580   0.179   0.160   4.232  0.4086  0.3562 -0.3887
  306LIG     HA 4581   0.277   0.115   4.228  0.3071  0.2425 -2.2364
  306LIG     CB 4582   0.123   0.149   4.093  0.3612  0.5646 -0.4455
  306LIG    HB1 4583   0.036   0.217   4.081 -1.3348 -1.0774  2.2481
  306LIG    HB2 4584   0.094   0.047   4.063  0.8257  1.0170 -2.5154
  306LIG     CG 4585   0.230   0.190   3.988  0.0470 -0.2925 -0.2383
  306LIG    OD1 4586   0.210   0.304   3.932 -0.2342  0.2352  0.4876
  306LIG    OD2 4587   0.339   0.125   3.969  0.4180  0.6848 -0.0434
  306LIG      C 4588   0.176   0.301   4.302  0.1498  0.2194 -0.4643
  306LIG    OT1 4589   0.115   0.317   4.407 -0.0803  0.6705  0.3572
  306LIG    OT2 4590   0.242   0.393   4.247 -0.3328 -0.3877 -0.3326
  307LIG      N 4591   6.803   9.850   2.666 -0.4842  0.8124 -1.0888
  307LIG     H1 4592   6.865   9.808   2.738 -4.2213 -3.2827  0.0046
  307LIG     H2 4593   6.755   9.925   2.719  1.1995  0.5397  0.8568
  307LIG     H3 4594   6.736   9.773   2.644  0.2445 -0.6797  1.7420
  307LIG     CA 4595   6.880   9.895   2.546 -0.2347  1.0234 -0.0570
  307LIG     HA 4596   6.812   9.933   2.472 -2.7531  0.9837  2.1753
  307LIG     CB 4597   6.976  10.000   2.614  0.0434  0.1906 -0.0357
  307LIG    HB1 4598   7.051   9.936   2.666 -0.9674 -2.2956 -1.5121
  307LIG    HB2 4599   6.918  10.061   2.686  0.2321  0.1516  0.1502
  307LIG     CG 4600   7.033  10.093   2.510  0.4813  0.2211  0.3475
  307LIG    OD1 4601   7.152  10.081   2.494  0.5722  0.2708  0.5702
  307LIG    OD2 4602   6.958  10.173   2.447  0.0238 -0.8792 -0.2684
  307LIG      C 4603   6.961   9.776   2.471 -0.0278  0.0331  0.1555
  307LIG    OT1 4604   6.974   9.656   2.518 -0.1310 -0.3771  0.1560
  307LIG    OT2 4605   7.009   9.812   2.361 -0.4852 -0.1495  0.1392
  308LIG      N 4606   0.915   4.435   5.601 -0.1471 -0.3710  0.1612
  308LIG     H1 4607   0.981   4.363   5.565 -0.3709 -1.6131  2.1721
  308LIG     H2 4608   0.954   4.469   5.691  0.5742  0.8217 -0.5817
  308LIG     H3 4609   0.820   4.393   5.610 -0.5537  0.4784 -0.1518
  308LIG     CA 4610   0.898   4.540   5.508 -0.1272 -0.6665  1.0099
  308LIG     HA 4611   0.819   4.593   5.560 -1.1234 -0.5456 -0.6138
  308LIG     CB 4612   1.029   4.619   5.484 -0.6391 -0.7663  0.8702
  308LIG    HB1 4613   1.100   4.572   5.412  1.4386  2.3072  0.8100
  308LIG    HB2 4614   1.088   4.623   5.578  1.9439  2.7767 -0.7985
  308LIG     CG 4615   1.006   4.764   5.443 -0.0053 -0.7805 -0.3530
  308LIG    OD1 4616   1.090   4.807   5.359  0.5611  0.0463  0.0005
  308LIG    OD2 4617   0.922   4.837   5.502 -0.3269  0.2242  0.1552
  308LIG      C 4618   0.826   4.499   5.378 -0.3257  0.7029 -0.4410
  308LIG    OT1 4619   0.814   4.377   5.351 -0.0618 -0.2488 -0.1466
  308LIG    OT2 4620   0.776   4.591   5.304 -0.2213 -0.0012 -0.5774
  309LIG      N 4621   1.988   0.305   4.785 -0.1960  0.0559  0.0929
  309LIG     H1 4622   1.978   0.402   4.749  3.8094  0.6210  0.2709
  309LIG     H2 4623   1.900   0.277   4.833 -0.5791  0.2395 -0.4933
  309LIG     H3 4624   2.062   0.314   4.858 -0.8710  3.2717  0.4905
  309LIG     CA 4625   2.026   0.207   4.686 -0.2512  0.7677 -0.4264
  309LIG     HA 4626   2.011   0.117   4.745  1.9253  0.7569  0.1356
  309LIG     CB 4627   1.933   0.212   4.562 -0.1417 -0.4606 -0.4342
  309LIG    HB1 4628   1.980   0.283   4.492 -0.4726 -0.7427 -0.9489
  309LIG    HB2 4629   1.830   0.242   4.593 -0.1652 -1.4004  0.4294
  309LIG     CG 4630   1.919   0.077   4.501  0.2477  0.5857 -0.4259
  309LIG    OD1 4631   1.929   0.068   4.373  0.2400 -0.4888 -0.3220
  309LIG    OD2 4632   1.875  -0.018   4.567 -0.1206  0.3130 -0.4277
  309LIG      C 4633   2.179   0.209   4.650 -0.5241  0.6959  0.8756
  309LIG    OT1 4634   2.245   0.303   4.695 -0.9358 -0.0501 -0.3026
  309LIG    OT2 4635   2.230   0.115   4.579  0.0197 -0.0827  0.3247
  310LIG      N 4636   2.822   5.555   9.576  0.3413 -0.3659 -0.3655
  310LIG     H1 4637   2.781   5.641   9.536 -2.0306 -1.1639  0.2569
  310LIG     H2 4638   2.840   5.484   9.502 -0.3385  0.6562 -1.5193
  310LIG     H3 4639   2.743   5.510   9.626 -0.4067  0.7142 -0.5616
  310LIG     CA 4640   2.935   5.596   9.665 -0.3474 -0.4720  0.1164
  310LIG     HA 4641   2.988   5.511   9.704  1.4692 -0.5005 -2.2950
  310LIG     CB 4642   3.039   5.661   9.567 -0.8905 -0.1327  0.0275
  310LIG    HB1 4643   3.002   5.761   9.534  1.4597  0.5460 -0.5951
  310LIG    HB2 4644   3.057   5.605   9.472 -0.4288  1.8857 -1.1027
  310LIG     CG 4645   3.173   5.665   9.631  0.7779 -0.1460  0.1672
  310LIG    OD1 4646   3.243   5.767   9.623  0.0032  0.1195 -0.5562
  310LIG    OD2 4647   3.215   5.565   9.695 -0.1361 -0.1000 -0.4715
  310LIG      C 4648   2.899   5.708   9.769 -0.2609 -0.8347  0.1790
  310LIG    OT1 4649   2.794   5.774   9.765 -0.4801 -0.0557 -0.2760
  310LIG    OT2 4650   2.986   5.733   9.857  0.2031  0.5272 -0.0071
  311LIG      N 4651   1.742   8.292   0.335 -0.2405  0.1583 -0.0042
  311LIG     H1 4652   1.655   8.324   0.381  0.9966  1.5933  1.3661
  311LIG     H2 4653   1.794   8.375   0.301 -0.8205 -0.2250 -1.8947
  311LIG     H3 4654   1.719   8.231   0.254 -0.0088  0.6800 -0.4676
  311LIG     CA 4655   1.826   8.220   0.432 -0.4165 -0.3854 -0.3319
  311LIG     HA 4656   1.766   8.150   0.489 -1.6241 -0.9424 -2.2134
  311LIG     CB 4657   1.948   8.154   0.356  0.0606  0.4772  0.4085
  311LIG    HB1 4658   2.029   8.226   0.332  1.4403 -0.7064  1.4337
  311LIG    HB2 4659   1.910   8.099   0.268  1.2216 -0.0860  0.2544
  311LIG     CG 4660   2.023   8.041   0.431 -0.7006  0.1986 -0.1675
  311LIG    OD1 4661   2.148   8.029   0.400 -0.3134  0.0095  0.1082
  311LIG    OD2 4662   1.964   7.957   0.495  0.0634 -0.5556 -0.0980
  311LIG      C 4663   1.889   8.318   0.535 -0.1879  0.0791  0.1936
  311LIG    OT1 4664   1.885   8.441   0.514 -0.1927 -0.3228 -0.3984
  311LIG    OT2 4665   1.938   8.266   0.640 -0.4373  0.4571  0.0562
  312LIG      N 4666   9.828   9.547   2.899 -0.0330  0.2151  0.5400
  312LIG     H1 4667   9.743   9.605   2.887 -1.0032 -1.0133  1.3313
  312LIG     H2 4668   9.889   9.561   2.816  1.6340 -0.2931  1.6402
  312LIG     H3 4669   9.786   9.452   2.904  1.9830 -0.7076  0.3493
  312LIG     CA 4670   9.900   9.588   3.023 -0.2278  0.3826  0.4231
  312LIG     HA 4671   9.827   9.582   3.102  0.5671 -1.0895  1.0603
  312LIG     CB 4672  10.006   9.472   3.052 -0.5625  0.9444 -0.6542
  312LIG    HB1 4673  10.092   9.480   2.982 -0.9719 -0.5884 -1.3571
  312LIG    HB2 4674   9.956   9.374   3.034 -2.8436  1.6848  1.4296
  312LIG     CG 4675  10.046   9.488   3.200  0.6284  0.2649  0.2470
  312LIG    OD1 4676  10.167   9.515   3.216  0.4029 -0.1434  0.9578
  312LIG    OD2 4677   9.959   9.481   3.293  1.2251 -0.0433  0.1180
  312LIG      C 4678   9.964   9.730   3.020  0.1107 -0.5024  0.8530
  312LIG    OT1 4679   9.940   9.792   2.913 -0.0905 -0.1420  0.0049
  312LIG    OT2 4680  10.032   9.779   3.108 -0.7379 -0.4132 -0.0096
  313LIG      N 4681   6.859   0.107   8.583 -0.2489  0.8993 -0.3968
  313LIG     H1 4682   6.961   0.093   8.571 -0.0800 -0.1192  1.9776
  313LIG     H2 4683   6.822   0.082   8.677  1.5409  0.3483  0.1811
  313LIG     H3 4684   6.812   0.041   8.517  2.6907 -1.9545  0.2597
  313LIG     CA 4685   6.820   0.245   8.536  0.3739 -0.2177 -0.0007
  313LIG     HA 4686   6.718   0.247   8.499 -0.4577 -2.2884  2.0353
  313LIG     CB 4687   6.831   0.345   8.651 -0.4110 -0.2659  0.2937
  313LIG    HB1 4688   6.932   0.392   8.653 -0.5522  0.0074  1.3707
  313LIG    HB2 4689   6.812   0.294   8.747  0.0792 -0.5293  0.2539
  313LIG     CG 4690   6.730   0.460   8.631  0.5029  0.6142 -0.8299
  313LIG    OD1 4691   6.771   0.573   8.669 -0.8620 -0.0210  0.2372
  313LIG    OD2 4692   6.610   0.435   8.605  0.3164  0.5759 -0.1215
  313LIG      C 4693   6.914   0.287   8.424 -0.7195  0.2213 -0.4859
  313LIG    OT1 4694   6.989   0.200   8.370  0.1984  0.2956  0.2763
  313LIG    OT2 4695   6.903   0.402   8.375  0.0831  0.1047  0.1783
  314LIG      N 4696   0.199   8.940   1.132  0.0448 -0.2946 -0.1918
  314LIG     H1 4697   0.185   8.837   1.144  3.2871 -0.6156  1.4026
  314LIG     H2 4698   0.275   8.943   1.061  1.1573  4.5840  1.0607
  314LIG     H3 4699   0.245   8.976   1.218  0.7429 -3.2179  0.7338
  314LIG     CA 4700   0.078   9.010   1.099 -0.4486  0.4693  0.0264
  314LIG     HA 4701   0.036   9.016   1.198  0.5826 -0.1295  0.5089
  314LIG     CB 4702   0.122   9.143   1.036  0.1808 -0.6157  0.3058
  314LIG    HB1 4703   0.147   9.132   0.929  4.2972  1.0771  0.9672
  314LIG    HB2 4704   0.203   9.189   1.098 -1.0381 -0.5554  1.8900
  314LIG     CG 4705   0.010   9.245   1.051  0.3671 -0.0701  0.1029
  314LIG    OD1 4706  -0.018   9.315   0.952  0.4546  0.1860 -0.1672
  314LIG    OD2 4707  -0.036   9.267   1.162  0.0579  0.2608 -0.0787
  314LIG      C 4708  -0.021   8.927   1.005  0.3905 -0.6449 -0.5987
  314LIG    OT1 4709   0.012   8.807   0.970 -0.1751 -0.2118  0.2891
  314LIG    OT2 4710  -0.129   8.977   0.968 -0.6199 -0.3723 -0.2892
  315LIG      N 4711   5.058   9.361   6.008  0.0392  0.8326  0.0872
  315LIG     H1 4712   5.123   9.406   5.941  1.0461 -1.7364 -0.7298
  315LIG     H2 4713   5.090   9.380   6.105 -0.4697  1.9063  0.0450
  315LIG     H3 4714   5.061   9.259   5.987 -0.7048  0.7712  0.2618
  315LIG     CA 4715   4.933   9.435   5.992 -0.0221 -0.1748 -0.2944
  315LIG     HA 4716   4.954   9.540   6.005  2.1730 -0.4928 -1.0470
  315LIG     CB 4717   4.903   9.397   5.846 -1.1403 -0.6579 -0.6036
  315LIG    HB1 4718   4.878   9.289   5.843 -2.9017 -0.3365  0.9216
  315LIG    HB2 4719   4.985   9.425   5.777  1.0067  1.5604  2.7172
  315LIG     CG 4720   4.777   9.469   5.794  0.1565 -0.6351 -0.2311
  315LIG    OD1 4721   4.689   9.403   5.728 -0.2854 -0.1767 -0.3180
  315LIG    OD2 4722   4.777   9.595   5.800 -0.0472  0.0023  0.2383
  315LIG      C 4723   4.819   9.379   6.082  0.0156  0.0758  0.1796
  315LIG    OT1 4724   4.840   9.282   6.153 -0.5003  0.2608 -0.2368
  315LIG    OT2 4725   4.702   9.428   6.067 -0.2696  0.0955 -0.7944
  316LIG      N 4726   9.150   2.326   2.447 -0.3561 -0.0063 -0.7357
  316LIG     H1 4727   9.100   2.357   2.532 -1.5727 -2.9560 -0.3461
  316LIG     H2 4728   9.249   2.300   2.470 -0.4471  0.8720  0.7103
  316LIG     H3 4729   9.159   2.396   2.371 -0.0338 -1.7728 -2.3553
  316LIG     CA 4730   9.080   2.221   2.380  0.2104 -0.0185 -0.0069
  316LIG     HA 4731   9.068   2.134   2.443 -0.7159  1.4842  1.9526
  316LIG     CB 4732   8.940   2.287   2.357 -0.4539 -0.2122  0.0606
  316LIG    HB1 4733   8.946   2.370   2.283  0.1400 -2.7811 -2.8354
  316LIG    HB2 4734   8.910   2.340   2.451  0.8183 -0.4897  0.6385
  316LIG     CG 4735   8.839   2.192   2.316  0.2526  0.4353  0.3454
  316LIG    OD1 4736   8.770   2.208   2.217  0.1115 -0.1173 -0.4034
  316LIG    OD2 4737   8.813   2.095   2.394 -0.4761  0.0460  0.0948
  316LIG      C 4738   9.135   2.192   2.241  0.2088 -0.2051  0.2496
  316LIG    OT1 4739   9.207   2.271   2.184 -0.2729 -0.1172  0.0840
  316LIG    OT2 4740   9.105   2.088   2.179 -0.4373 -0.5416 -0.3648
  317LIG      N 4741   0.290   7.635   1.839 -0.4084  0.5111  0.1100
  317LIG     H1 4742   0.234   7.722   1.828 -1.3814 -0.1947 -0.6247
  317LIG     H2 4743   0.390   7.659   1.829  0.2839 -1.8554  0.9575
  317LIG     H3 4744   0.268   7.576   1.756 -0.8152 -1.8279  1.8099
  317LIG     CA 4745   0.258   7.553   1.963 -0.2836  0.2390 -0.0633
  317LIG     HA 4746   0.291   7.606   2.051 -2.7390  1.6351  0.0514
  317LIG     CB 4747   0.097   7.541   1.962  0.0662  0.0064  0.0993
  317LIG    HB1 4748   0.063   7.462   1.892 -0.5541  1.7519 -1.6018
  317LIG    HB2 4749   0.057   7.639   1.927 -0.7062 -0.7700 -1.1761
  317LIG     CG 4750   0.059   7.509   2.104 -0.1986 -0.3200  0.6131
  317LIG    OD1 4751  -0.017   7.408   2.124 -1.1910  0.1526 -0.2173
  317LIG    OD2 4752   0.104   7.579   2.198 -0.2162 -0.0295 -0.3510
  317LIG      C 4753   0.331   7.417   1.972  0.6294 -0.4951  0.6140
  317LIG    OT1 4754   0.400   7.371   1.878 -0.1273  0.4488 -0.1302
  317LIG    OT2 4755   0.330   7.345   2.077 -0.5704 -0.4712  0.1609
  318LIG      N 4756   7.504   6.717   0.835 -0.0757  0.0055 -0.6870
  318LIG     H1 4757   7.511   6.658   0.921  0.2886  1.4661  0.3040
  318LIG     H2 4758   7.545   6.812   0.845 -1.0528  0.5673 -1.8438
  318LIG     H3 4759   7.404   6.733   0.812  0.5158  1.2979 -2.4654
  318LIG     CA 4760   7.573   6.651   0.719 -1.0125  0.1140 -0.0783
  318LIG     HA 4761   7.653   6.720   0.697 -1.6920  0.4680 -1.5461
  318LIG     CB 4762   7.632   6.513   0.766  0.3786  0.5715 -0.3485
  318LIG    HB1 4763   7.555   6.437   0.793  0.4655 -0.2946 -2.3946
  318LIG    HB2 4764   7.685   6.536   0.860  0.7167 -0.9015 -0.1788
  318LIG     CG 4765   7.733   6.453   0.663 -0.0619  0.3888 -0.2770
  318LIG    OD1 4766   7.735   6.334   0.628 -0.5079  0.0032 -0.1014
  318LIG    OD2 4767   7.813   6.539   0.623 -0.1156  0.1587  0.2186
  318LIG      C 4768   7.476   6.632   0.594  0.1698 -0.9375 -1.2994
  318LIG    OT1 4769   7.356   6.663   0.619 -0.0111  0.3999 -0.1427
  318LIG    OT2 4770   7.524   6.595   0.480  0.1112  0.2795  0.6988
  319LIG      N 4771   0.555   9.417   4.822  0.3704  0.4945 -0.6292
  319LIG     H1 4772   0.600   9.369   4.741  0.2698  0.7926 -0.8663
  319LIG     H2 4773   0.472   9.473   4.792 -0.1539 -0.6000 -1.2385
  319LIG     H3 4774   0.630   9.468   4.872  0.1509  0.8229 -0.6311
  319LIG     CA 4775   0.510   9.301   4.911 -0.5363 -0.1831  0.5173
  319LIG     HA 4776   0.600   9.264   4.957  1.2329 -0.3978 -2.9422
  319LIG     CB 4777   0.403   9.345   5.018  0.0232 -0.8406  0.1726
  319LIG    HB1 4778   0.305   9.376   4.978  0.8321 -0.5516 -1.6521
  319LIG    HB2 4779   0.435   9.435   5.075 -2.1946  1.0528 -1.4783
  319LIG     CG 4780   0.377   9.241   5.122 -0.1267  0.5873 -0.2463
  319LIG    OD1 4781   0.260   9.200   5.147  0.2324  0.1870 -0.1599
  319LIG    OD2 4782   0.478   9.196   5.184 -0.1422 -0.0707  0.4275
  319LIG      C 4783   0.455   9.180   4.827  0.5289 -0.3218  0.6204
  319LIG    OT1 4784   0.457   9.185   4.701 -0.1089  0.3195 -0.1803
  319LIG    OT2 4785   0.416   9.074   4.885 -0.1272 -0.2876 -0.0961
  320LIG      N 4786   2.175   2.769   0.850  0.0379 -0.0723  0.3567
  320LIG     H1 4787   2.162   2.865   0.889 -3.6116 -1.6082  3.2281
  320LIG     H2 4788   2.094   2.707   0.866 -0.8865  0.6170 -1.5662
  320LIG     H3 4789   2.261   2.721   0.886 -1.0412  0.1673  3.4323
  320LIG     CA 4790   2.200   2.788   0.706  0.2040  0.3971  0.2262
  320LIG     HA 4791   2.292   2.732   0.694 -0.0106  0.3316 -1.1330
  320LIG     CB 4792   2.091   2.722   0.624  0.2988 -0.0314 -0.3021
  320LIG    HB1 4793   2.000   2.785   0.621  0.5610  0.4140  0.8932
  320LIG    HB2 4794   2.063   2.619   0.657  1.1528 -0.0974  0.2369
  320LIG     CG 4795   2.127   2.699   0.480 -0.0165  0.3168 -0.1745
  320LIG    OD1 4796   2.040   2.732   0.397 -0.0040 -0.2253  0.1124
  320LIG    OD2 4797   2.234   2.646   0.452  0.2806 -0.4335 -0.2389
  320LIG      C 4798   2.224   2.934   0.671  0.8147  0.3445 -0.2360
  320LIG    OT1 4799   2.204   3.018   0.759  0.5511 -0.8546  0.1493
  320LIG    OT2 4800   2.266   2.968   0.555  0.6628 -0.3316  0.2115
  321LIG      N 4801   5.054   1.006   5.160 -0.2981 -0.0186 -0.1948
  321LIG     H1 4802   4.957   1.041   5.170 -0.2982  0.1068 -0.6180
  321LIG     H2 4803   5.116   1.060   5.224  0.1006  2.2547 -2.4247
  321LIG     H3 4804   5.086   1.025   5.063 -1.5420 -0.7635 -0.7649
  321LIG     CA 4805   5.048   0.861   5.193 -0.1218  0.0999  0.6185
  321LIG     HA 4806   5.145   0.825   5.163 -0.7145 -0.6781 -0.4010
  321LIG     CB 4807   5.026   0.836   5.340  0.1607 -0.4216  0.0295
  321LIG    HB1 4808   4.920   0.849   5.368  0.3898 -0.0497  0.7409
  321LIG    HB2 4809   5.082   0.910   5.401 -1.6896  1.9751 -1.1231
  321LIG     CG 4810   5.065   0.702   5.382 -0.2343 -0.7003  0.1901
  321LIG    OD1 4811   4.979   0.631   5.446 -0.2514  0.3958  1.3732
  321LIG    OD2 4812   5.178   0.653   5.353  0.8101  0.4480 -0.4461
  321LIG      C 4813   4.942   0.785   5.106 -0.2565 -0.4140  1.1912
  321LIG    OT1 4814   4.887   0.845   5.011 -0.1130  0.6178 -0.3244
  321LIG    OT2 4815   4.929   0.657   5.113 -0.1143 -0.3484  0.7909
  322LIG      N 4816   0.644   4.454   9.701  0.1673 -0.0415  0.1438
  322LIG     H1 4817   0.738   4.492   9.724  0.3663 -0.4427 -0.0107
  322LIG     H2 4818   0.584   4.538   9.683  3.6756  2.3129 -1.0056
  322LIG     H3 4819   0.599   4.408   9.783 -0.9818 -0.6878 -0.8229
  322LIG     CA 4820   0.637   4.363   9.581  0.4154 -0.2908  0.0854
  322LIG     HA 4821   0.718   4.293   9.594  1.4075  0.8533  0.0949
  322LIG     CB 4822   0.500   4.298   9.565 -0.9669  0.3645 -1.1421
  322LIG    HB1 4823   0.438   4.372   9.511 -1.3672  0.4553 -0.5652
  322LIG    HB2 4824   0.448   4.296   9.663  1.3905 -0.2708  0.1589
  322LIG     CG 4825   0.507   4.161   9.509 -0.1371 -0.5157  0.5245
  322LIG    OD1 4826   0.407   4.131   9.439 -0.5103 -0.3005 -0.4419
  322LIG    OD2 4827   0.609   4.092   9.531 -0.9383 -0.0963 -0.4777
  322LIG      C 4828   0.679   4.427   9.434 -1.0723 -0.1156 -0.1006
  322LIG    OT1 4829   0.706   4.552   9.424  0.0162  0.2339 -0.5682
  322LIG    OT2 4830   0.688   4.356   9.332 -0.0524  0.1893  0.2001
  323LIG      N 4831   0.129   0.596   6.623  0.0761  0.2909 -0.3526
  323LIG     H1 4832   0.041   0.593   6.678 -0.3218 -2.1211 -1.0373
  323LIG     H2 4833   0.158   0.498   6.602 -0.3180  0.1568 -0.2756
  323LIG     H3 4834   0.206   0.631   6.684  1.2445 -1.7121 -0.5983
  323LIG     CA 4835   0.115   0.677   6.496  0.4457  0.3834 -0.1921
  323LIG     HA 4836   0.019   0.641   6.460  1.3779 -1.0807 -1.2483
  323LIG     CB 4837   0.127   0.828   6.521 -0.2522 -0.1891 -0.4197
  323LIG    HB1 4838   0.231   0.865   6.518 -1.1235  2.4783  0.6109
  323LIG    HB2 4839   0.096   0.851   6.626 -0.7653 -1.0206 -0.3851
  323LIG     CG 4840   0.044   0.920   6.437  0.3867  0.5863 -0.2885
  323LIG    OD1 4841   0.094   1.036   6.407  0.3549 -0.3023 -0.1939
  323LIG    OD2 4842  -0.070   0.889   6.401  0.4198  0.4711 -0.3661
  323LIG      C 4843   0.214   0.636   6.390 -0.5743  0.4910 -0.2809
  323LIG    OT1 4844   0.300   0.552   6.416  0.1027  0.1082  0.1398
  323LIG    OT2 4845   0.204   0.690   6.274  0.0250 -0.4181  0.0398
  324LIG      N 4846   3.956   0.747   9.700 -0.0433 -0.3626 -0.0126
  324LIG     H1 4847   3.856   0.720   9.705 -0.2933  0.0942 -1.9017
  324LIG     H2 4848   3.972   0.788   9.605  0.7206  0.3682  0.4215
  324LIG     H3 4849   4.024   0.669   9.697  2.1842  1.4067  2.3709
  324LIG     CA 4850   3.996   0.856   9.787  0.7517  0.4784  0.2018
  324LIG     HA 4851   3.912   0.890   9.846  0.5352 -0.2937  0.3412
  324LIG     CB 4852   4.112   0.805   9.873 -0.5733  0.4136  0.5766
  324LIG    HB1 4853   4.199   0.775   9.811 -1.2157 -1.8775  0.7468
  324LIG    HB2 4854   4.087   0.711   9.926 -3.0791  1.1530  0.7865
  324LIG     CG 4855   4.160   0.902   9.973  0.3063 -0.2800  0.5350
  324LIG    OD1 4856   4.278   0.940   9.983 -0.1756  0.4285 -0.0944
  324LIG    OD2 4857   4.068   0.937  10.053 -0.3092 -0.2414 -0.2239
  324LIG      C 4858   4.046   0.972   9.704 -0.9667 -0.4564 -0.1924
  324LIG    OT1 4859   4.053   0.962   9.582  0.2521 -0.4792  0.2607
  324LIG    OT2 4860   4.052   1.086   9.759 -0.4483 -0.3680 -0.3884
  325LIG      N 4861   8.735   1.595   2.174  0.0432 -0.7129  0.3827
  325LIG     H1 4862   8.817   1.534   2.187  0.4734 -0.1707  0.2231
  325LIG     H2 4863   8.751   1.656   2.091 -2.3378 -1.1476 -0.4278
  325LIG     H3 4864   8.721   1.651   2.261  1.6422 -2.1658  1.6045
  325LIG     CA 4865   8.612   1.522   2.158 -0.3436 -0.2925  0.0051
  325LIG     HA 4866   8.529   1.588   2.133  0.0224 -0.5286 -1.9227
  325LIG     CB 4867   8.621   1.422   2.043 -0.0032  0.1316 -0.7519
  325LIG    HB1 4868   8.694   1.343   2.070  3.4202  3.3861 -0.0897
  325LIG    HB2 4869   8.661   1.477   1.955  1.3294 -1.3870 -1.1084
  325LIG     CG 4870   8.483   1.375   1.992  0.0907  0.0405  0.5793
  325LIG    OD1 4871   8.461   1.257   1.962 -0.2227  0.3785 -0.1615
  325LIG    OD2 4872   8.402   1.467   1.964 -0.3117  0.7642 -0.0275
  325LIG      C 4873   8.576   1.446   2.284  0.3942 -0.3664  0.1048
  325LIG    OT1 4874   8.655   1.439   2.382 -0.2658  0.2741 -0.5933
  325LIG    OT2 4875   8.470   1.381   2.281  0.3987  0.1519  0.0394
  326LIG      N 4876   0.416   6.480   0.045  0.4568 -0.4212  0.4349
  326LIG     H1 4877   0.409   6.583   0.051  3.1806 -0.2117  0.3450
  326LIG     H2 4878   0.467   6.451  -0.041  0.9972  0.6383  0.4032
  326LIG     H3 4879   0.318   6.443   0.045 -0.3149  1.6038  0.4094
  326LIG     CA 4880   0.468   6.412   0.168 -0.2713 -0.1334  0.2473
  326LIG     HA 4881   0.569   6.447   0.183 -0.2771 -0.6863  1.6419
  326LIG     CB 4882   0.386   6.464   0.287 -0.3171 -0.0913  0.7340
  326LIG    HB1 4883   0.284   6.425   0.268  0.3720 -1.0149 -1.2448
  326LIG    HB2 4884   0.386   6.575   0.295 -0.2454  0.1036 -1.4684
  326LIG     CG 4885   0.441   6.405   0.408  0.4376  0.2117  0.2879
  326LIG    OD1 4886   0.363   6.373   0.504  0.0079  0.4250 -0.1433
  326LIG    OD2 4887   0.566   6.413   0.425 -0.0818  0.0943  0.0675
  326LIG      C 4888   0.474   6.252   0.163 -0.6193 -0.3724 -0.2482
  326LIG    OT1 4889   0.408   6.198   0.071  0.1305 -0.2503 -0.5973
  326LIG    OT2 4890   0.547   6.184   0.238 -0.1768 -0.1751  0.0807
  327LIG      N 4891   9.263   0.378   3.224  0.4497  0.2243 -0.0417
  327LIG     H1 4892   9.287   0.473   3.189 -0.1284 -0.2100 -1.6659
  327LIG     H2 4893   9.348   0.319   3.213 -0.2435 -0.9885  0.9549
  327LIG     H3 4894   9.182   0.345   3.168  0.3108  1.1743 -0.4189
  327LIG     CA 4895   9.228   0.392   3.368  0.1175  0.1661 -0.0805
  327LIG     HA 4896   9.201   0.292   3.398 -1.4511  1.0066  1.4464
  327LIG     CB 4897   9.343   0.456   3.444  0.8945  0.3985 -0.2509
  327LIG    HB1 4898   9.359   0.562   3.415  2.9470 -0.3719 -2.0288
  327LIG    HB2 4899   9.432   0.398   3.414 -0.0012 -0.4200 -1.3943
  327LIG     CG 4900   9.326   0.435   3.590 -0.3575  0.3046 -0.2358
  327LIG    OD1 4901   9.367   0.522   3.669  0.1293  0.5011 -0.1855
  327LIG    OD2 4902   9.292   0.323   3.632  0.4201 -0.3544  0.0912
  327LIG      C 4903   9.094   0.470   3.396 -0.6748  0.4301 -0.7194
  327LIG    OT1 4904   9.052   0.539   3.302 -0.4348  0.2684 -0.0097
  327LIG    OT2 4905   9.049   0.471   3.515  0.0877 -0.1872  0.3652
  328LIG      N 4906   4.277   8.415   8.637 -0.1941 -0.2529  0.9253
  328LIG     H1 4907   4.231   8.464   8.716 -0.4132  0.2482  0.4816
  328LIG     H2 4908   4.321   8.326   8.668 -0.8316 -0.2590  1.8272
  328LIG     H3 4909   4.349   8.478   8.597  0.5664 -1.3855  0.4887
  328LIG     CA 4910   4.174   8.387   8.532  0.2292  0.2307  0.0890
  328LIG     HA 4911   4.104   8.311   8.564 -3.4281  3.5336  0.2076
  328LIG     CB 4912   4.091   8.519   8.496 -0.0427 -0.1198 -0.0979
  328LIG    HB1 4913   4.140   8.591   8.427  1.1331 -1.3624 -0.5503
  328LIG    HB2 4914   4.076   8.574   8.592  1.2810 -0.6901  0.4329
  328LIG     CG 4915   3.956   8.485   8.459  0.1460 -0.1872 -0.3396
  328LIG    OD1 4916   3.906   8.533   8.355 -0.2517  0.1635  0.1220
  328LIG    OD2 4917   3.884   8.414   8.537 -0.3224 -0.4398  0.0919
  328LIG      C 4918   4.229   8.321   8.403 -0.0250 -0.1034 -0.3194
  328LIG    OT1 4919   4.352   8.305   8.389  0.4963 -0.5337  0.0248
  328LIG    OT2 4920   4.147   8.294   8.310 -0.1201  0.3726 -0.2959
  329LIG      N 4921   1.696   8.044   5.378 -0.3851  0.6525  0.0468
  329LIG     H1 4922   1.675   7.949   5.341 -0.8452  1.2781 -1.3503
  329LIG     H2 4923   1.659   8.052   5.474  1.2749  0.0917  0.7551
  329LIG     H3 4924   1.647   8.112   5.316 -0.1344  0.8727  0.0868
  329LIG     CA 4925   1.842   8.063   5.379 -0.2707 -0.1209  0.3317
  329LIG     HA 4926   1.884   7.977   5.329 -0.6489  1.1717 -2.2833
  329LIG     CB 4927   1.855   8.198   5.298 -0.1027  0.3834  0.8955
  329LIG    HB1 4928   1.805   8.275   5.360 -2.1743 -1.2725  1.3359
  329LIG    HB2 4929   1.808   8.181   5.199  0.0047 -0.7116  1.0209
  329LIG     CG 4930   2.002   8.226   5.279 -0.1362 -0.1204  0.2033
  329LIG    OD1 4931   2.035   8.345   5.308  0.1166  0.4006  0.1080
  329LIG    OD2 4932   2.081   8.135   5.238 -0.3839 -0.4950 -0.2829
  329LIG      C 4933   1.903   8.064   5.526 -0.1450  0.0158  1.0866
  329LIG    OT1 4934   1.823   8.082   5.619  0.4841 -0.8435  0.4432
  329LIG    OT2 4935   2.020   8.043   5.539  0.1636 -0.4048  0.0829
  330LIG      N 4936   1.986   9.401   8.271  0.3129  0.6206 -0.4066
  330LIG     H1 4937   1.985   9.420   8.169  0.5413  2.3690 -0.1003
  330LIG     H2 4938   1.931   9.477   8.316  0.4655 -0.0807  1.0045
  330LIG     H3 4939   2.082   9.405   8.311  0.0363  0.9591  0.2332
  330LIG     CA 4940   1.925   9.267   8.311 -0.7413 -0.7002  0.0231
  330LIG     HA 4941   1.868   9.242   8.223 -0.2458 -2.4644  0.1972
  330LIG     CB 4942   2.041   9.173   8.346 -0.9321  0.7881 -0.0839
  330LIG    HB1 4943   2.082   9.185   8.448  1.5252 -1.1316 -0.8078
  330LIG    HB2 4944   2.129   9.201   8.285  0.2027  1.2406  1.7288
  330LIG     CG 4945   1.993   9.024   8.336 -0.9507  0.1260  0.2355
  330LIG    OD1 4946   2.031   8.951   8.434 -0.6589  0.3636 -0.2935
  330LIG    OD2 4947   1.922   8.985   8.243  0.8330  0.1026 -0.5704
  330LIG      C 4948   1.829   9.301   8.433 -0.5112 -0.0032 -0.5133
  330LIG    OT1 4949   1.825   9.419   8.476 -0.4695 -0.2888  0.1314
  330LIG    OT2 4950   1.759   9.207   8.481 -0.7538  0.2703 -0.0564
  331LIG      N 4951   0.072   5.112   3.604 -0.0627 -0.1068 -0.5042
  331LIG     H1 4952   0.045   5.019   3.567 -0.9992 -0.1351  0.2160
  331LIG     H2 4953   0.041   5.116   3.704 -0.8696  0.4293 -0.7687
  331LIG     H3 4954   0.022   5.188   3.553  0.3701  0.1376 -0.5711
  331LIG     CA 4955   0.221   5.131   3.585  0.7264 -0.0601  0.3788
  331LIG     HA 4956   0.264   5.058   3.653  0.3114 -2.0166 -1.4147
  331LIG     CB 4957   0.255   5.100   3.437  0.2610  0.3870  0.1205
  331LIG    HB1 4958   0.227   5.184   3.369 -1.0540 -0.1880 -0.0627
  331LIG    HB2 4959   0.208   5.006   3.404 -0.1362  1.0602 -1.2614
  331LIG     CG 4960   0.402   5.061   3.420 -0.9426  0.4656 -0.0901
  331LIG    OD1 4961   0.468   5.113   3.328 -0.4934 -0.4076 -0.5438
  331LIG    OD2 4962   0.450   4.978   3.505 -0.3142  0.3606 -0.4813
  331LIG      C 4963   0.279   5.272   3.621  0.4534 -0.2708 -0.4462
  331LIG    OT1 4964   0.186   5.356   3.649 -0.3718 -0.8919  0.0180
  331LIG    OT2 4965   0.400   5.308   3.616  1.2294 -0.3593  0.1375
  332LIG      N 4966   8.671   6.376   7.324  0.1427  0.2451  0.1229
  332LIG     H1 4967   8.715   6.289   7.287 -1.4006 -0.7285  0.5594
  332LIG     H2 4968   8.751   6.429   7.364  1.6717 -0.3076 -2.0819
  332LIG     H3 4969   8.606   6.342   7.398 -0.4583  0.4116 -0.3362
  332LIG     CA 4970   8.592   6.436   7.216  0.5531 -0.0235  0.1977
  332LIG     HA 4971   8.644   6.424   7.122 -1.2549 -2.1703 -0.5823
  332LIG     CB 4972   8.452   6.362   7.213 -0.3188 -0.0277  0.4240
  332LIG    HB1 4973   8.381   6.381   7.296 -2.2387 -0.8697 -1.0109
  332LIG    HB2 4974   8.481   6.257   7.193 -1.2441  0.3045 -2.9047
  332LIG     CG 4975   8.391   6.402   7.084  0.2370  0.5578  0.0445
  332LIG    OD1 4976   8.272   6.448   7.076  0.1568  1.1346  0.2640
  332LIG    OD2 4977   8.455   6.353   6.989 -0.6071  0.1875 -0.2978
  332LIG      C 4978   8.576   6.590   7.247  0.4464 -0.1095 -0.1331
  332LIG    OT1 4979   8.626   6.644   7.351 -0.2929  0.3354 -0.1160
  332LIG    OT2 4980   8.503   6.654   7.171 -0.3223  0.2604 -0.3431
  333LIG      N 4981   9.964   2.574   3.409 -0.3888  0.4024  0.0367
  333LIG     H1 4982   9.864   2.563   3.381 -0.6475  0.2486  1.0144
  333LIG     H2 4983   9.974   2.632   3.494  0.2384 -0.8450  0.8210
  333LIG     H3 4984  10.010   2.627   3.332  0.5964  2.9914  2.3357
  333LIG     CA 4985  10.004   2.439   3.432 -0.9041  0.4421  0.5931
  333LIG     HA 4986   9.937   2.406   3.510 -0.5288 -0.3962  0.5724
  333LIG     CB 4987   9.979   2.364   3.296 -0.9573 -0.2305 -0.0611
  333LIG    HB1 4988  10.062   2.369   3.223 -0.5698 -3.6623  0.0321
  333LIG    HB2 4989   9.882   2.395   3.251 -0.9426  0.1941  0.2054
  333LIG     CG 4990   9.948   2.216   3.336  0.3870 -0.2825 -0.6380
  333LIG    OD1 4991   9.993   2.127   3.267  0.1424  0.2659 -0.2423
  333LIG    OD2 4992   9.874   2.195   3.440  0.2215 -0.4998  0.2291
  333LIG      C 4993  10.161   2.412   3.478  0.1900  0.1511 -0.5128
  333LIG    OT1 4994  10.249   2.500   3.491 -0.2187  0.4333  0.3287
  333LIG    OT2 4995  10.183   2.291   3.508  0.4311 -0.5728  0.6917
  334LIG      N 4996   9.444   1.745   0.468 -0.8446  0.2780  0.4393
  334LIG     H1 4997   9.368   1.675   0.472  0.3303 -1.1093 -0.9572
  334LIG     H2 4998   9.453   1.795   0.559  0.8153  2.2297 -0.7346
  334LIG     H3 4999   9.417   1.822   0.404 -2.8691 -2.4853 -2.1874
  334LIG     CA 5000   9.566   1.668   0.428 -0.0411 -0.1339 -1.1699
  334LIG     HA 5001   9.554   1.574   0.479  2.5660  0.4501  0.6366
  334LIG     CB 5002   9.549   1.658   0.273  0.0764  0.0755 -0.0581
  334LIG    HB1 5003   9.588   1.753   0.232  1.7945 -1.1362 -1.2819
  334LIG    HB2 5004   9.445   1.642   0.236  0.8494 -1.9277 -1.4339
  334LIG     CG 5005   9.623   1.533   0.223  0.3205 -0.0183  0.6747
  334LIG    OD1 5006   9.671   1.542   0.105  0.2185  0.0916 -0.2992
  334LIG    OD2 5007   9.616   1.427   0.286  0.4498 -0.0719  0.7469
  334LIG      C 5008   9.701   1.725   0.478 -0.1918  0.3254 -0.3643
  334LIG    OT1 5009   9.705   1.834   0.544 -0.4591 -0.1124  0.2129
  334LIG    OT2 5010   9.805   1.661   0.454 -0.3761  0.2844 -0.4182
  335LIG      N 5011   8.679   2.366   8.787  0.6274 -0.5802  0.2917
  335LIG     H1 5012   8.613   2.418   8.849 -1.5164 -0.7900 -1.7145
  335LIG     H2 5013   8.764   2.327   8.832 -0.1679 -0.9204  1.5310
  335LIG     H3 5014   8.711   2.423   8.706  0.3013 -0.1511  0.4652
  335LIG     CA 5015   8.601   2.251   8.743 -0.6095 -0.4591  0.3957
  335LIG     HA 5016   8.534   2.299   8.673 -0.8016 -2.2451 -0.6538
  335LIG     CB 5017   8.682   2.142   8.669  0.2657 -0.4057  0.0843
  335LIG    HB1 5018   8.742   2.094   8.749 -0.7656  0.5882  1.4690
  335LIG    HB2 5019   8.753   2.182   8.593 -1.0378  2.0753  0.1223
  335LIG     CG 5020   8.595   2.041   8.599 -0.7302  0.1293 -0.4638
  335LIG    OD1 5021   8.604   1.919   8.607 -0.3983 -0.0845  0.4304
  335LIG    OD2 5022   8.519   2.090   8.511  0.0046  0.2325  0.3615
  335LIG      C 5023   8.509   2.189   8.851 -0.4549 -0.5651  0.2244
  335LIG    OT1 5024   8.527   2.222   8.971  0.3144 -0.3716 -0.1253
  335LIG    OT2 5025   8.416   2.106   8.818 -0.2133  0.1144  0.1777
  336LIG      N 5026   2.033   5.295   3.929  0.3370 -0.1993  0.2415
  336LIG     H1 5027   1.991   5.225   3.993 -1.2146 -0.9347 -1.5412
  336LIG     H2 5028   2.067   5.373   3.989 -0.0802  0.0994  0.0984
  336LIG     H3 5029   1.957   5.333   3.868  1.3876  0.0851 -0.9253
  336LIG     CA 5030   2.148   5.244   3.851  0.5043  0.4893  0.0937
  336LIG     HA 5031   2.244   5.276   3.889  1.1940  1.9213 -2.7484
  336LIG     CB 5032   2.143   5.089   3.858 -0.2551  0.3814 -0.2311
  336LIG    HB1 5033   2.051   5.049   3.810 -0.1220 -0.2549  0.0297
  336LIG    HB2 5034   2.122   5.062   3.964  0.7555 -0.2200 -0.1813
  336LIG     CG 5035   2.268   5.013   3.813 -0.2127 -0.3932 -0.6056
  336LIG    OD1 5036   2.253   4.916   3.746  0.4729  0.2844 -0.0408
  336LIG    OD2 5037   2.377   5.053   3.859 -0.3106 -0.5083 -0.5784
  336LIG      C 5038   2.171   5.289   3.705 -0.5543 -0.1627  0.0008
  336LIG    OT1 5039   2.077   5.358   3.655  0.2523 -0.8154 -0.4194
  336LIG    OT2 5040   2.274   5.258   3.640 -0.1696  0.2012 -0.7819
  337LIG      N 5041   6.764   8.444   1.163 -0.6774 -0.6943 -0.0009
  337LIG     H1 5042   6.772   8.341   1.179  0.6547 -0.8483 -1.5465
  337LIG     H2 5043   6.814   8.473   1.077 -0.1332 -0.0584  0.5279
  337LIG     H3 5044   6.790   8.494   1.251  1.0630 -1.3245 -0.1337
  337LIG     CA 5045   6.625   8.476   1.140 -0.1695  0.4869  0.1267
  337LIG     HA 5046   6.572   8.480   1.234  0.1239 -0.5532  0.3405
  337LIG     CB 5047   6.633   8.618   1.072 -0.1253  0.7942  0.2342
  337LIG    HB1 5048   6.645   8.612   0.962  0.6817 -0.7798  0.3980
  337LIG    HB2 5049   6.709   8.686   1.116 -1.0889  1.1136  1.4295
  337LIG     CG 5050   6.499   8.697   1.103 -0.7151  0.8767  0.0671
  337LIG    OD1 5051   6.454   8.771   1.016 -0.5370 -0.2114  0.2116
  337LIG    OD2 5052   6.448   8.691   1.220 -0.1596  0.0670 -0.4058
  337LIG      C 5053   6.542   8.376   1.056 -1.0190  0.2634  0.5234
  337LIG    OT1 5054   6.592   8.261   1.041  0.2944  0.2410 -0.2383
  337LIG    OT2 5055   6.430   8.401   1.005  0.6538  0.4221 -0.5213
  338LIG      N 5056   7.691   0.851   7.134 -0.3508 -1.0447 -0.0455
  338LIG     H1 5057   7.753   0.856   7.217  0.6012  0.2433 -0.8109
  338LIG     H2 5058   7.696   0.946   7.091 -0.4976 -0.3356  1.4952
  338LIG     H3 5059   7.592   0.839   7.164  0.5666 -2.6906  2.3916
  338LIG     CA 5060   7.727   0.731   7.040  1.0048  0.0873  0.7704
  338LIG     HA 5061   7.733   0.636   7.092 -0.9464 -0.3906  0.1357
  338LIG     CB 5062   7.605   0.730   6.936  0.3217  0.4604  1.1805
  338LIG    HB1 5063   7.618   0.825   6.879 -0.3822  1.7485  3.1027
  338LIG    HB2 5064   7.508   0.733   6.989  0.0598 -0.0828  0.7347
  338LIG     CG 5065   7.621   0.606   6.848 -0.2452  0.0348  0.0865
  338LIG    OD1 5066   7.640   0.625   6.723 -0.0933 -0.0489 -0.3132
  338LIG    OD2 5067   7.616   0.495   6.899  0.2501 -0.5794  0.4255
  338LIG      C 5068   7.866   0.755   6.974 -0.2854  0.0468  0.1657
  338LIG    OT1 5069   7.911   0.875   6.976 -0.0340  0.3802 -0.0573
  338LIG    OT2 5070   7.924   0.653   6.935  0.0866 -0.2782 -0.4321
  339LIG      N 5071   4.612   1.644   8.671 -0.3712  0.0560  0.4933
  339LIG     H1 5072   4.553   1.589   8.737 -0.8659  1.2509  1.0622
  339LIG     H2 5073   4.568   1.636   8.577  1.5234  1.2890 -0.5338
  339LIG     H3 5074   4.708   1.605   8.662  0.1716  1.2851  0.8098
  339LIG     CA 5075   4.627   1.785   8.716 -0.1814 -0.0345 -0.4724
  339LIG     HA 5076   4.527   1.824   8.708  0.5594  2.0492  0.2379
  339LIG     CB 5077   4.677   1.789   8.867 -0.9776 -0.1844  0.3229
  339LIG    HB1 5078   4.783   1.758   8.877 -1.2663 -0.5843  2.4057
  339LIG    HB2 5079   4.612   1.727   8.933 -1.5742 -0.0230 -0.1047
  339LIG     CG 5080   4.652   1.926   8.920 -0.1343 -0.5190 -0.1668
  339LIG    OD1 5081   4.749   1.998   8.968  0.1122  0.4106  0.0003
  339LIG    OD2 5082   4.529   1.959   8.933  0.7761 -0.2785  0.1162
  339LIG      C 5083   4.721   1.857   8.619 -0.2743 -0.2344 -0.1664
  339LIG    OT1 5084   4.774   1.785   8.522  0.3245  0.8654  0.3262
  339LIG    OT2 5085   4.738   1.982   8.630  0.0633  0.6113 -0.5172
  340LIG      N 5086   2.917   9.523   0.333 -0.5673  0.3763 -0.3192
  340LIG     H1 5087   3.018   9.502   0.320 -0.9869 -2.5956  0.9136
  340LIG     H2 5088   2.907   9.625   0.315 -0.9185  0.6796  1.4933
  340LIG     H3 5089   2.892   9.496   0.430 -1.4339 -1.8520 -1.1154
  340LIG     CA 5090   2.850   9.432   0.239  0.4500 -0.7008  0.2189
  340LIG     HA 5091   2.748   9.468   0.235  0.3863 -0.9208 -0.1720
  340LIG     CB 5092   2.913   9.452   0.100  0.5851  0.4531  0.3340
  340LIG    HB1 5093   3.009   9.397   0.092 -0.0258 -0.5184 -0.5349
  340LIG    HB2 5094   2.928   9.557   0.070  0.3534 -0.0540 -1.5923
  340LIG     CG 5095   2.828   9.385  -0.007 -0.8841 -0.6770 -0.4094
  340LIG    OD1 5096   2.879   9.309  -0.088 -0.4548 -0.9665  0.3327
  340LIG    OD2 5097   2.706   9.418  -0.017 -0.4161 -0.3377  0.0589
  340LIG      C 5098   2.857   9.282   0.290  0.1585  0.8526  0.5039
  340LIG    OT1 5099   2.946   9.245   0.376 -0.2248  0.9065 -0.4611
  340LIG    OT2 5100   2.779   9.203   0.224  0.0390 -0.1226  0.7065
  341LIG      N 5101   6.550   7.961   9.039 -0.1867  0.4569 -0.5215
  341LIG     H1 5102   6.627   7.978   8.972  0.3967 -0.9531 -0.2126
  341LIG     H2 5103   6.518   7.862   9.037  2.1815 -0.3602  0.3918
  341LIG     H3 5104   6.465   8.022   9.035 -0.6350 -0.2491 -2.3552
  341LIG     CA 5105   6.602   7.979   9.177 -0.6740 -0.1616 -0.4387
  341LIG     HA 5106   6.671   7.898   9.197 -1.1639 -0.3341  0.5553
  341LIG     CB 5107   6.657   8.125   9.202  0.0666 -0.3523  0.6255
  341LIG    HB1 5108   6.582   8.202   9.231 -0.0538 -0.9339  1.8586
  341LIG    HB2 5109   6.713   8.147   9.108 -2.4791 -0.9852 -1.0844
  341LIG     CG 5110   6.762   8.118   9.311 -0.0042  0.0891 -0.6751
  341LIG    OD1 5111   6.784   8.226   9.384 -0.5981  0.2268  0.0286
  341LIG    OD2 5112   6.831   8.012   9.319 -0.0534 -0.0200 -0.1983
  341LIG      C 5113   6.497   7.951   9.283 -0.3251 -0.5849 -0.6476
  341LIG    OT1 5114   6.371   7.930   9.260 -0.5421 -0.4826 -0.5869
  341LIG    OT2 5115   6.537   7.965   9.401  0.1750 -0.4345 -0.1889
  342LIG      N 5116   7.917   2.077   3.949  0.4246 -1.0183 -0.1177
  342LIG     H1 5117   7.901   2.075   3.847  0.0292  0.1295 -0.0877
  342LIG     H2 5118   8.017   2.049   3.955 -0.3230 -3.8798 -0.4252
  342LIG     H3 5119   7.871   2.001   4.004  1.8151 -1.5594  0.3287
  342LIG     CA 5120   7.913   2.217   4.004 -0.3518  0.5071  0.0394
  342LIG     HA 5121   7.812   2.249   3.983 -0.3918 -0.0735 -0.7109
  342LIG     CB 5122   7.961   2.206   4.148  0.0382 -0.1394 -0.1852
  342LIG    HB1 5123   8.071   2.190   4.157  0.0987  1.4629  2.6423
  342LIG    HB2 5124   7.915   2.119   4.198  0.9003  0.1793  1.2148
  342LIG     CG 5125   7.932   2.326   4.236 -0.0266  0.0893  0.0585
  342LIG    OD1 5126   8.015   2.362   4.325 -0.4182 -0.3006  0.7358
  342LIG    OD2 5127   7.816   2.375   4.238 -0.6303  0.3419  0.3156
  342LIG      C 5128   8.014   2.311   3.930 -0.2222  0.7221  0.1262
  342LIG    OT1 5129   8.091   2.285   3.836 -0.4237 -0.1994 -0.5809
  342LIG    OT2 5130   7.998   2.428   3.960  0.6839  0.3309 -0.5385
  343LIG      N 5131   9.603   9.792   3.934  0.8695 -0.2682 -0.2745
  343LIG     H1 5132   9.637   9.890   3.946 -1.5464  0.3283  2.1486
  343LIG     H2 5133   9.652   9.749   4.015 -0.4560  1.8000  1.6766
  343LIG     H3 5134   9.640   9.757   3.843  2.5638  0.3676  0.1463
  343LIG     CA 5135   9.453   9.784   3.949  0.2009  0.7646 -0.2745
  343LIG     HA 5136   9.405   9.869   3.903 -1.2848  0.4239  0.6043
  343LIG     CB 5137   9.414   9.653   3.881  0.4916 -0.3337 -0.0332
  343LIG    HB1 5138   9.449   9.565   3.939  1.5732  0.7621  0.9976
  343LIG    HB2 5139   9.467   9.640   3.784  0.5673 -1.8732  0.2046
  343LIG     CG 5140   9.269   9.648   3.850  0.4513 -0.0656  0.4811
  343LIG    OD1 5141   9.198   9.552   3.888  0.0875  0.1524 -0.4111
  343LIG    OD2 5142   9.229   9.733   3.764 -0.2994 -0.0021 -0.2739
  343LIG      C 5143   9.417   9.774   4.107 -0.1182  0.3793  0.1594
  343LIG    OT1 5144   9.507   9.775   4.195 -0.2198 -0.4451 -0.4778
  343LIG    OT2 5145   9.294   9.772   4.138  0.2423  0.4517 -0.0502
  344LIG      N 5146   0.608   8.127   3.918 -0.1059 -0.0958 -0.2549
  344LIG     H1 5147   0.556   8.216   3.902  0.2149  0.0511 -0.4944
  344LIG     H2 5148   0.549   8.046   3.890 -2.0301  1.4775 -0.8996
  344LIG     H3 5149   0.625   8.125   4.020 -1.5655  0.1104  0.0026
  344LIG     CA 5150   0.738   8.124   3.843 -0.4092  0.2214  0.7117
  344LIG     HA 5151   0.699   8.136   3.743 -3.3417 -0.9588  1.6401
  344LIG     CB 5152   0.825   8.237   3.901  0.8756  0.2744  0.8223
  344LIG    HB1 5153   0.887   8.198   3.984  1.2468 -1.6485 -0.3279
  344LIG    HB2 5154   0.775   8.329   3.939 -0.7272 -0.3940  0.3993
  344LIG     CG 5155   0.925   8.289   3.797  0.1385  0.3707 -0.7449
  344LIG    OD1 5156   1.017   8.359   3.847 -0.7188 -0.7828  0.5649
  344LIG    OD2 5157   0.914   8.278   3.673 -0.1911 -0.2100  0.1841
  344LIG      C 5158   0.821   7.995   3.868 -0.5631  0.9633 -0.8082
  344LIG    OT1 5159   0.779   7.910   3.951  0.1488  0.0444  0.5473
  344LIG    OT2 5160   0.929   7.975   3.804  0.0374 -0.5947  0.4510
  345LIG      N 5161   5.639   7.441   9.381 -0.4026  0.9478  0.2847
  345LIG     H1 5162   5.653   7.462   9.280  0.4641  0.7791  0.3626
  345LIG     H2 5163   5.594   7.348   9.386  0.6401  0.4138  0.0051
  345LIG     H3 5164   5.590   7.527   9.413 -0.4993  0.2528  2.0409
  345LIG     CA 5165   5.759   7.456   9.461  0.0587 -0.0852  0.2225
  345LIG     HA 5166   5.722   7.469   9.562  0.6336  0.2819  0.3835
  345LIG     CB 5167   5.847   7.329   9.432  0.0373 -0.0743  0.2066
  345LIG    HB1 5168   5.898   7.341   9.335 -0.9351 -0.5124 -0.3717
  345LIG    HB2 5169   5.781   7.240   9.422 -0.1404  0.2689 -1.8544
  345LIG     CG 5170   5.937   7.307   9.552  0.1005 -0.2832  0.8021
  345LIG    OD1 5171   6.063   7.310   9.541 -0.9376  0.0341 -0.6244
  345LIG    OD2 5172   5.884   7.294   9.665 -0.0168 -0.4811  0.1729
  345LIG      C 5173   5.840   7.582   9.425 -0.0921 -0.2998 -0.0033
  345LIG    OT1 5174   5.807   7.664   9.334 -0.7593  0.2772 -0.0360
  345LIG    OT2 5175   5.939   7.609   9.504 -0.5235  0.6261 -0.0334
  346LIG      N 5176   4.846   8.357   6.513  0.1543 -0.2176  0.0973
  346LIG     H1 5177   4.864   8.457   6.491 -2.1740 -0.2632 -2.2590
  346LIG     H2 5178   4.903   8.295   6.450  0.9027  0.2335  0.3211
  346LIG     H3 5179   4.748   8.339   6.483 -0.0642 -0.7732  1.1189
  346LIG     CA 5180   4.864   8.333   6.654  0.9944  0.2186 -0.1884
  346LIG     HA 5181   4.963   8.370   6.676  1.0914  1.5995 -2.7273
  346LIG     CB 5182   4.754   8.409   6.729 -0.9151 -0.3244 -0.0213
  346LIG    HB1 5183   4.662   8.347   6.735 -0.9534 -0.2797 -0.1523
  346LIG    HB2 5184   4.738   8.508   6.682  3.5800  0.6230  0.1510
  346LIG     CG 5185   4.802   8.439   6.870  0.1501  0.3033  0.8218
  346LIG    OD1 5186   4.709   8.439   6.960 -0.2540 -0.3142  0.0544
  346LIG    OD2 5187   4.922   8.463   6.902 -0.1409 -0.8787 -0.3146
  346LIG      C 5188   4.872   8.181   6.696 -0.0001  0.5639  0.2362
  346LIG    OT1 5189   4.870   8.095   6.608  0.4853 -0.2604 -0.7931
  346LIG    OT2 5190   4.882   8.142   6.817  0.9543  0.2207 -0.5451
  347LIG      N 5191   7.990   4.010   2.968  0.3091  0.6627  0.2959
  347LIG     H1 5192   7.964   3.910   2.976  1.7755  0.2062 -0.3458
  347LIG     H2 5193   7.895   4.052   2.976 -0.9773 -2.6115  3.2620
  347LIG     H3 5194   8.025   4.024   2.871  0.9712  1.6945  0.6825
  347LIG     CA 5195   8.076   4.062   3.068 -0.1964  0.0386 -0.1636
  347LIG     HA 5196   8.019   4.150   3.095 -0.8535 -0.7668  1.1325
  347LIG     CB 5197   8.050   3.973   3.199 -0.3070 -0.1026  0.0976
  347LIG    HB1 5198   8.109   3.879   3.197 -2.9802 -1.8295 -1.0799
  347LIG    HB2 5199   7.949   3.932   3.217 -1.3375  1.0222 -2.7851
  347LIG     CG 5200   8.093   4.049   3.324  0.3427  0.9201 -0.0409
  347LIG    OD1 5201   8.154   3.989   3.418 -0.4372  0.0759  0.0224
  347LIG    OD2 5202   8.056   4.168   3.342  0.0329 -0.8826  0.0048
  347LIG      C 5203   8.223   4.065   3.029 -0.4111  0.0406  0.6584
  347LIG    OT1 5204   8.267   4.007   2.921  0.9931  0.0765  0.1217
  347LIG    OT2 5205   8.303   4.133   3.100  0.0875  1.6309  0.3962
  348LIG      N 5206   4.603   1.684   6.866  0.5066  0.3739  0.0192
  348LIG     H1 5207   4.664   1.760   6.903 -0.2286  2.1703 -2.3247
  348LIG     H2 5208   4.533   1.723   6.799  1.4641 -0.4573 -1.5112
  348LIG     H3 5209   4.549   1.633   6.938 -1.1252 -1.1782 -2.2380
  348LIG     CA 5210   4.686   1.584   6.790  0.0415 -0.4289  0.1894
  348LIG     HA 5211   4.738   1.628   6.706 -0.3172 -1.7876 -0.7668
  348LIG     CB 5212   4.780   1.517   6.891 -0.8886  0.1291  0.7016
  348LIG    HB1 5213   4.725   1.438   6.947 -0.1721 -0.2724  0.8326
  348LIG    HB2 5214   4.818   1.587   6.968  1.0138 -1.0902  0.8863
  348LIG     CG 5215   4.903   1.450   6.828  0.0874 -0.2340 -0.1909
  348LIG    OD1 5216   4.966   1.371   6.906  0.0025  0.0667 -0.0097
  348LIG    OD2 5217   4.932   1.474   6.706 -0.0941 -0.4024 -0.4153
  348LIG      C 5218   4.592   1.473   6.725  0.1057  0.5851 -0.2946
  348LIG    OT1 5219   4.468   1.468   6.750  0.6470  0.3427 -0.0321
  348LIG    OT2 5220   4.645   1.389   6.648  0.0053  0.3800 -0.0738
  349LIG      N 5221   1.835   0.460   7.571  0.4615  0.3689  0.0444
  349LIG     H1 5222   1.833   0.381   7.638  0.4597  1.8208  1.7836
  349LIG     H2 5223   1.847   0.559   7.600 -0.0775  1.0595 -1.9896
  349LIG     H3 5224   1.744   0.459   7.520  0.2835  0.7055  0.3495
  349LIG     CA 5225   1.935   0.430   7.471  0.1663  0.2946 -0.3172
  349LIG     HA 5226   2.033   0.432   7.515  1.1807  2.9255 -2.5643
  349LIG     CB 5227   1.909   0.294   7.410 -0.5380  0.0120 -0.1383
  349LIG    HB1 5228   1.819   0.310   7.348 -0.8546  1.6291  0.7095
  349LIG    HB2 5229   1.890   0.224   7.495 -0.6418 -1.3289 -1.2573
  349LIG     CG 5230   2.031   0.235   7.336  0.2454  0.1587 -0.3679
  349LIG    OD1 5231   2.015   0.167   7.232  0.4544 -0.3600 -0.1652
  349LIG    OD2 5232   2.135   0.237   7.402  0.5237 -0.1265 -0.7493
  349LIG      C 5233   1.938   0.560   7.375  0.4642  0.1875 -0.5203
  349LIG    OT1 5234   1.853   0.648   7.379  0.1610 -0.0327  0.2741
  349LIG    OT2 5235   2.037   0.566   7.296  0.3162 -0.4209  0.1568
  350LIG      N 5236   1.970   0.563   6.588  0.4011 -0.1728  0.8890
  350LIG     H1 5237   1.915   0.492   6.640  0.4076  0.4480  1.7540
  350LIG     H2 5238   1.995   0.523   6.495  0.2326 -1.0702  1.2225
  350LIG     H3 5239   2.059   0.576   6.641  2.0525 -1.9856 -1.2557
  350LIG     CA 5240   1.897   0.690   6.575  0.0484  0.1636 -1.0416
  350LIG     HA 5241   1.817   0.666   6.507  0.0871 -1.8437 -0.4278
  350LIG     CB 5242   1.832   0.726   6.714 -0.0311  0.0553 -0.2956
  350LIG    HB1 5243   1.902   0.761   6.793 -0.6701  0.1291  0.2483
  350LIG    HB2 5244   1.782   0.634   6.753  2.3877 -0.8166  0.8122
  350LIG     CG 5245   1.712   0.820   6.707 -0.4229  0.0814  0.5469
  350LIG    OD1 5246   1.705   0.904   6.801 -0.2077 -0.3400 -0.0715
  350LIG    OD2 5247   1.627   0.802   6.617 -0.5135 -0.5457 -0.1796
  350LIG      C 5248   1.980   0.813   6.524 -0.1765  0.7384 -0.6140
  350LIG    OT1 5249   2.104   0.800   6.508  0.5259 -0.1502  0.1583
  350LIG    OT2 5250   1.921   0.924   6.517 -0.1123  0.4781  0.0186
  351LIG      N 5251   9.764   0.464   4.114  0.0699 -0.1740  0.1919
  351LIG     H1 5252   9.742   0.557   4.072  1.8163  1.1105  2.0283
  351LIG     H2 5253   9.766   0.481   4.217  1.9068 -1.0273  0.3125
  351LIG     H3 5254   9.861   0.441   4.085 -0.3242  0.7197 -1.8981
  351LIG     CA 5255   9.656   0.366   4.083 -0.1340 -0.0980 -0.5557
  351LIG     HA 5256   9.588   0.418   4.018  0.2732  1.0310 -0.1060
  351LIG     CB 5257   9.743   0.257   4.004 -0.1137 -0.6946 -0.3502
  351LIG    HB1 5258   9.805   0.187   4.063 -0.3114 -0.5171  0.0749
  351LIG    HB2 5259   9.809   0.306   3.930  0.4255 -1.1668 -0.1854
  351LIG     CG 5260   9.653   0.165   3.918 -0.3322 -0.5633  0.2897
  351LIG    OD1 5261   9.669   0.042   3.928  0.2063 -0.0000  0.1721
  351LIG    OD2 5262   9.571   0.217   3.841  0.1509  0.1792 -0.6471
  351LIG      C 5263   9.587   0.308   4.213  0.3137  0.3934  0.1355
  351LIG    OT1 5264   9.643   0.323   4.324 -0.3014  0.4308  0.3791
  351LIG    OT2 5265   9.485   0.235   4.196  0.0355 -0.1390  0.6070
  352LIG      N 5266   2.162   2.222   9.019  0.5670 -0.3312  0.6740
  352LIG     H1 5267   2.238   2.190   9.082  1.1950  0.0943  0.1434
  352LIG     H2 5268   2.075   2.165   9.019  0.5408 -0.3023  2.7438
  352LIG     H3 5269   2.198   2.237   8.922 -1.9434 -1.7734 -0.5415
  352LIG     CA 5270   2.116   2.358   9.068 -0.2289 -0.4122  0.2647
  352LIG     HA 5271   2.015   2.374   9.033 -0.2164  1.2156  0.9639
  352LIG     CB 5272   2.117   2.345   9.226  0.0094  0.0301  0.0129
  352LIG    HB1 5273   2.221   2.370   9.257 -0.9190  0.9628  2.5385
  352LIG    HB2 5274   2.067   2.250   9.253  1.6023 -0.9139 -0.3491
  352LIG     CG 5275   2.028   2.450   9.291  0.2100 -0.1801  0.4220
  352LIG    OD1 5276   2.075   2.532   9.376 -0.1180 -0.6641  0.3892
  352LIG    OD2 5277   1.908   2.454   9.256 -0.7343  0.0883  0.0988
  352LIG      C 5278   2.210   2.476   9.031 -0.2788 -0.3016 -0.1789
  352LIG    OT1 5279   2.322   2.466   8.978  0.3440  0.2227 -0.1438
  352LIG    OT2 5280   2.166   2.595   9.053 -0.5464  0.4829 -0.5809
  353LIG      N 5281   8.256   8.343   6.634 -0.1177 -0.4214 -0.0977
  353LIG     H1 5282   8.339   8.386   6.589 -0.8016  0.9174 -0.1174
  353LIG     H2 5283   8.227   8.267   6.570 -2.9098 -0.2035  0.8335
  353LIG     H3 5284   8.176   8.410   6.639  0.6586  0.5797 -0.7240
  353LIG     CA 5285   8.280   8.287   6.764 -0.7474  0.2898 -0.0512
  353LIG     HA 5286   8.179   8.261   6.794 -0.9414  0.6976 -0.3499
  353LIG     CB 5287   8.378   8.167   6.750  0.9634 -0.4051 -0.2210
  353LIG    HB1 5288   8.485   8.194   6.740  0.7183  0.1522 -1.4280
  353LIG    HB2 5289   8.365   8.109   6.656 -1.4512 -0.4585  0.1122
  353LIG     CG 5290   8.363   8.067   6.859 -0.0638 -0.0327 -0.0736
  353LIG    OD1 5291   8.471   8.021   6.904 -0.1156  0.2821 -0.4990
  353LIG    OD2 5292   8.248   8.022   6.886 -0.6119 -0.4042  0.1313
  353LIG      C 5293   8.328   8.385   6.873  0.1173  0.4368 -0.2453
  353LIG    OT1 5294   8.343   8.506   6.838  0.4849 -0.2594  0.0348
  353LIG    OT2 5295   8.347   8.345   6.993 -0.3710 -0.2099  0.5449
  354LIG      N 5296   1.905   3.703   0.584  0.0351 -0.3784  0.5923
  354LIG     H1 5297   1.823   3.759   0.553  0.1949  0.0296  0.9024
  354LIG     H2 5298   1.958   3.762   0.652  0.8383 -2.5240  1.8749
  354LIG     H3 5299   1.949   3.682   0.492 -1.9266 -2.3255  0.0616
  354LIG     CA 5300   1.850   3.584   0.643  0.0905 -0.1230  0.4823
  354LIG     HA 5301   1.928   3.516   0.674 -2.0461 -3.1418 -0.5244
  354LIG     CB 5302   1.767   3.619   0.772  0.3259 -0.7237  0.5762
  354LIG    HB1 5303   1.668   3.666   0.750 -1.0691 -3.2273  1.2966
  354LIG    HB2 5304   1.824   3.681   0.844 -1.6995  2.3870 -0.3713
  354LIG     CG 5305   1.732   3.504   0.856 -0.4850 -0.5636 -0.7576
  354LIG    OD1 5306   1.617   3.482   0.892 -0.0058  0.1449  0.0027
  354LIG    OD2 5307   1.821   3.426   0.889 -0.1682  0.2821 -0.3787
  354LIG      C 5308   1.753   3.506   0.545  0.1761  0.7145 -0.2741
  354LIG    OT1 5309   1.706   3.566   0.447 -0.4648  0.4388  0.0984
  354LIG    OT2 5310   1.717   3.385   0.571 -0.1902 -0.1745 -0.1169
  355LIG      N 5311   8.911   3.698   9.722  0.0045 -1.0294  0.3300
  355LIG     H1 5312   8.965   3.749   9.649 -0.1129 -1.2634  0.0807
  355LIG     H2 5313   8.808   3.710   9.720  0.1124  0.4172  2.0289
  355LIG     H3 5314   8.941   3.748   9.808 -2.2576 -0.1010  0.6208
  355LIG     CA 5315   8.959   3.558   9.747  0.0374 -0.5458  0.7170
  355LIG     HA 5316   9.063   3.570   9.721  0.2112  0.0192  1.6563
  355LIG     CB 5317   8.921   3.512   9.890  0.7283 -0.5124  0.4050
  355LIG    HB1 5318   8.829   3.450   9.891  0.7122 -0.5426 -1.4674
  355LIG    HB2 5319   8.907   3.605   9.949 -1.3791  0.1312 -1.0521
  355LIG     CG 5320   9.031   3.423   9.937  0.2689  0.2732 -0.0672
  355LIG    OD1 5321   8.995   3.336  10.021  0.3503  0.2042  0.0648
  355LIG    OD2 5322   9.151   3.450   9.903  0.4128  0.1146  0.0353
  355LIG      C 5323   8.915   3.449   9.645 -0.3339 -0.1874 -0.4398
  355LIG    OT1 5324   8.846   3.468   9.545 -0.0000  0.1123  0.9314
  355LIG    OT2 5325   8.960   3.332   9.665 -0.6379 -0.2693  0.1908
  356LIG      N 5326   9.955   4.283   5.885 -0.2562  0.1383 -0.0095
  356LIG     H1 5327  10.002   4.376   5.888  0.9937 -0.5029  2.9197
  356LIG     H2 5328  10.025   4.216   5.922 -0.6155 -1.2503 -1.8070
  356LIG     H3 5329   9.912   4.271   5.792 -2.5971  1.9592  0.7783
  356LIG     CA 5330   9.849   4.288   5.996  0.5050  0.4407 -0.6405
  356LIG     HA 5331   9.793   4.196   5.996  1.2657 -0.0245 -1.1194
  356LIG     CB 5332   9.922   4.313   6.130 -0.3081 -0.3894  0.4178
  356LIG    HB1 5333   9.961   4.417   6.124  1.3675 -0.8827  2.3500
  356LIG    HB2 5334  10.016   4.254   6.140  0.3034  0.3962 -0.5941
  356LIG     CG 5335   9.845   4.292   6.255 -0.1844 -0.0509  0.2444
  356LIG    OD1 5336   9.844   4.378   6.342 -0.2354  0.4433  0.4680
  356LIG    OD2 5337   9.787   4.178   6.271 -0.5116 -0.4016 -0.1439
  356LIG      C 5338   9.743   4.400   5.978  0.0717  0.4008  0.3828
  356LIG    OT1 5339   9.738   4.474   5.875 -0.3370 -0.1153  0.2680
  356LIG    OT2 5340   9.650   4.406   6.057 -0.0737 -0.4987  0.0851
  357LIG      N 5341   8.116   0.233   8.784  0.5050 -0.4055 -0.5935
  357LIG     H1 5342   8.150   0.242   8.882  1.4691  2.6043 -1.1433
  357LIG     H2 5343   8.059   0.147   8.773  0.0662 -0.1104 -0.6894
  357LIG     H3 5344   8.202   0.215   8.730  1.7214 -2.8531  1.9953
  357LIG     CA 5345   8.042   0.349   8.740  0.2248 -0.5360  0.7931
  357LIG     HA 5346   8.051   0.420   8.821 -0.5970 -0.6700  0.9990
  357LIG     CB 5347   8.118   0.407   8.614 -0.0042 -0.0048 -0.1466
  357LIG    HB1 5348   8.077   0.355   8.524  1.0678 -1.9786  0.4763
  357LIG    HB2 5349   8.224   0.377   8.626  0.6141  1.5552 -1.4728
  357LIG     CG 5350   8.109   0.558   8.598  0.1403 -0.5894  0.0045
  357LIG    OD1 5351   8.143   0.607   8.488  0.0833  0.1141 -0.3634
  357LIG    OD2 5352   8.078   0.624   8.697  0.4178 -0.2734  0.2723
  357LIG      C 5353   7.894   0.303   8.713 -0.1404  0.3399 -0.3852
  357LIG    OT1 5354   7.859   0.183   8.716 -0.3575 -0.2303 -0.5685
  357LIG    OT2 5355   7.824   0.401   8.680 -0.0420 -0.2773 -0.2527
  358LIG      N 5356   1.079   7.375   5.401  0.2160  0.3372 -0.6903
  358LIG     H1 5357   1.162   7.416   5.355  1.1091  0.2649  0.8274
  358LIG     H2 5358   1.117   7.384   5.498 -2.3513 -0.5838  0.4580
  358LIG     H3 5359   1.076   7.274   5.379 -0.2680 -0.1617  1.5049
  358LIG     CA 5360   0.964   7.458   5.373  0.4281 -0.1246 -0.0606
  358LIG     HA 5361   0.898   7.392   5.319  0.2928  0.5304 -0.7124
  358LIG     CB 5362   0.897   7.478   5.504 -0.0587 -0.1252  0.3822
  358LIG    HB1 5363   0.949   7.551   5.569  0.6605 -1.0096  0.8091
  358LIG    HB2 5364   0.879   7.379   5.551  2.6116 -0.6885  0.2542
  358LIG     CG 5365   0.758   7.532   5.485  0.1612  0.4328 -0.1104
  358LIG    OD1 5366   0.716   7.635   5.548  0.6757  0.0025  0.1711
  358LIG    OD2 5367   0.680   7.464   5.409  0.5786  0.6025 -0.3506
  358LIG      C 5368   0.985   7.594   5.291  0.0479  0.3235  0.5526
  358LIG    OT1 5369   1.101   7.625   5.262 -0.1954 -0.1544  0.5681
  358LIG    OT2 5370   0.887   7.659   5.251  0.4443 -0.1072  0.0473
  359LIG      N 5371   6.435   5.177   0.481 -0.4768 -0.2098 -0.0729
  359LIG     H1 5372   6.518   5.157   0.421 -1.1335  0.5543 -1.2383
  359LIG     H2 5373   6.466   5.171   0.580 -0.5926  1.1012  0.0499
  359LIG     H3 5374   6.365   5.109   0.447  1.3167 -1.0553 -2.2303
  359LIG     CA 5375   6.400   5.323   0.451  0.2979  0.9159  0.8813
  359LIG     HA 5376   6.293   5.333   0.464  0.1780  0.9166 -0.0642
  359LIG     CB 5377   6.489   5.410   0.534 -0.1246 -0.2541  0.1964
  359LIG    HB1 5378   6.586   5.407   0.479 -1.2844  0.1772 -1.9589
  359LIG    HB2 5379   6.504   5.372   0.637 -0.4381 -1.9579 -0.3749
  359LIG     CG 5380   6.441   5.549   0.549 -0.5758 -0.1763 -0.1658
  359LIG    OD1 5381   6.519   5.646   0.545  0.3764  0.1299  0.4125
  359LIG    OD2 5382   6.323   5.570   0.581 -0.0098 -0.6857  0.0083
  359LIG      C 5383   6.423   5.337   0.292  0.1128 -0.2198  0.8220
  359LIG    OT1 5384   6.486   5.248   0.233 -0.6276  0.3317 -0.3570
  359LIG    OT2 5385   6.377   5.442   0.233 -0.0635 -0.1066  0.7846
  360LIG      N 5386   2.537   9.297   8.467  0.0426  0.1569 -0.4791
  360LIG     H1 5387   2.440   9.311   8.500  0.1728 -0.8970  0.3606
  360LIG     H2 5388   2.593   9.384   8.480  0.0269  0.6940 -3.4949
  360LIG     H3 5389   2.533   9.261   8.369 -2.2663 -0.8907 -0.0179
  360LIG     CA 5390   2.599   9.185   8.543  0.4597  0.0006  0.2125
  360LIG     HA 5391   2.699   9.173   8.502 -0.4943 -1.2185 -1.8192
  360LIG     CB 5392   2.597   9.227   8.690 -0.5297  0.7232 -0.0555
  360LIG    HB1 5393   2.490   9.214   8.716 -0.3243  1.1306  1.0353
  360LIG    HB2 5394   2.625   9.335   8.690  2.3633  0.0323  0.9895
  360LIG     CG 5395   2.692   9.148   8.782 -0.0332 -0.8369 -0.0455
  360LIG    OD1 5396   2.633   9.074   8.867 -0.1833 -0.1904 -0.1013
  360LIG    OD2 5397   2.815   9.159   8.776  0.4024 -0.1585  0.2576
  360LIG      C 5398   2.528   9.046   8.519 -0.4707 -0.0780  0.1227
  360LIG    OT1 5399   2.435   9.042   8.433  0.1416 -0.4868  0.1398
  360LIG    OT2 5400   2.573   8.945   8.576  0.5244 -0.2966  0.0097
  361LIG      N 5401   4.155   7.108   9.646 -0.0779 -0.2905  0.4196
  361LIG     H1 5402   4.174   7.200   9.690  2.2087  1.2927 -3.5412
  361LIG     H2 5403   4.227   7.038   9.673 -0.4449 -0.9542 -0.3025
  361LIG     H3 5404   4.153   7.125   9.543  0.1649 -3.2606 -0.1239
  361LIG     CA 5405   4.033   7.045   9.709 -0.2921  0.4647  0.0151
  361LIG     HA 5406   4.032   6.945   9.666 -1.6978  0.5381 -0.1491
  361LIG     CB 5407   4.051   7.059   9.867  0.1720  0.5579  0.0652
  361LIG    HB1 5408   4.037   7.163   9.902 -2.1916  0.1670  0.3919
  361LIG    HB2 5409   4.148   7.028   9.912 -0.3483 -1.5797 -0.1972
  361LIG     CG 5410   3.942   6.971   9.944  0.4770 -0.5639 -0.5968
  361LIG    OD1 5411   3.887   7.027  10.042 -0.8154 -0.5248 -0.1130
  361LIG    OD2 5412   3.932   6.854   9.919 -0.0344 -0.5345  0.2196
  361LIG      C 5413   3.904   7.125   9.670  0.3466  0.0386  0.2223
  361LIG    OT1 5414   3.908   7.244   9.625  0.3415  0.0374  0.2300
  361LIG    OT2 5415   3.795   7.077   9.697  0.4037 -0.1907  0.1376
  362LIG      N 5416   4.920   8.053   3.417 -0.3037  0.0494  0.2538
  362LIG     H1 5417   4.828   8.102   3.410  0.1283  0.8796  0.2668
  362LIG     H2 5418   4.909   7.957   3.380 -2.1559  0.8237 -1.2733
  362LIG     H3 5419   4.955   8.039   3.514 -0.5943 -0.5714  0.2680
  362LIG     CA 5420   5.009   8.140   3.358 -0.8211 -0.5211  0.6630
  362LIG     HA 5421   5.103   8.122   3.408 -0.1684 -1.4850 -0.8719
  362LIG     CB 5422   5.027   8.098   3.206 -0.2097 -0.2272  0.3236
  362LIG    HB1 5423   4.942   8.122   3.138  1.3148 -0.7265 -1.8180
  362LIG    HB2 5424   5.048   7.990   3.200 -1.0948 -0.3169 -2.1413
  362LIG     CG 5425   5.159   8.169   3.163  0.4810  0.0312 -0.0889
  362LIG    OD1 5426   5.161   8.220   3.052  0.7568 -0.0250  0.2898
  362LIG    OD2 5427   5.259   8.154   3.238 -0.0890  0.2161  0.1329
  362LIG      C 5428   4.973   8.286   3.383  0.1906  0.6078  0.1357
  362LIG    OT1 5429   4.855   8.322   3.424  0.0894 -0.5359  0.0665
  362LIG    OT2 5430   5.060   8.373   3.361  0.2744  0.2985  0.2087
  363LIG      N 5431   1.848   0.967   0.581 -0.4908  0.5253  0.2310
  363LIG     H1 5432   1.897   1.001   0.497  0.0416 -0.8330 -0.0122
  363LIG     H2 5433   1.757   1.019   0.578 -0.5497  0.6869  3.1242
  363LIG     H3 5434   1.898   1.002   0.666  0.4030  0.5294 -0.2973
  363LIG     CA 5435   1.825   0.813   0.594 -0.3531  0.3760  0.1124
  363LIG     HA 5436   1.767   0.777   0.510 -0.9932 -1.8939  1.4693
  363LIG     CB 5437   1.970   0.752   0.607 -0.0879  0.0619  0.3931
  363LIG    HB1 5438   2.003   0.760   0.713 -0.7557  0.2891  0.5912
  363LIG    HB2 5439   2.038   0.792   0.529 -1.2117 -1.0531 -1.2024
  363LIG     CG 5440   1.966   0.609   0.567  0.0424 -0.4895  0.6403
  363LIG    OD1 5441   2.009   0.511   0.636  0.2408 -0.3567  0.1450
  363LIG    OD2 5442   1.919   0.596   0.450 -0.1156 -0.3987 -0.6353
  363LIG      C 5443   1.736   0.774   0.712 -1.0744  0.8924  0.1184
  363LIG    OT1 5444   1.716   0.859   0.800  0.1498  0.4814 -0.0997
  363LIG    OT2 5445   1.702   0.651   0.724 -0.2154  0.0667  0.3544
  364LIG      N 5446   7.076   1.329   8.580  0.1046 -0.0820 -0.4851
  364LIG     H1 5447   6.998   1.325   8.648  1.7543  1.4781  1.6027
  364LIG     H2 5448   7.029   1.323   8.488 -2.2175 -2.6883  0.8003
  364LIG     H3 5449   7.133   1.246   8.606 -0.3734  0.2673  1.7374
  364LIG     CA 5450   7.156   1.451   8.607 -0.1190 -0.1678  0.0753
  364LIG     HA 5451   7.258   1.432   8.577 -0.3020 -0.1179 -0.5857
  364LIG     CB 5452   7.090   1.573   8.540  0.4785  0.2917 -0.3570
  364LIG    HB1 5453   7.002   1.619   8.590 -1.3169  2.2845 -5.0549
  364LIG    HB2 5454   7.049   1.544   8.441 -3.6486  2.1926  0.7154
  364LIG     CG 5455   7.195   1.679   8.516  0.3402  0.4745  0.2154
  364LIG    OD1 5456   7.152   1.796   8.515  0.1422 -0.3819  0.2658
  364LIG    OD2 5457   7.313   1.658   8.498 -0.4576  0.2154 -0.0323
  364LIG      C 5458   7.160   1.476   8.763 -0.0194 -0.2894  0.4863
  364LIG    OT1 5459   7.079   1.414   8.834 -0.4149  1.5278 -0.1232
  364LIG    OT2 5460   7.243   1.565   8.804 -0.3705 -0.1776  0.8081
  365LIG      N 5461   1.887   4.515   5.326 -0.1844  0.1495  0.1299
  365LIG     H1 5462   1.918   4.548   5.420  0.6069 -1.7733  0.5759
  365LIG     H2 5463   1.790   4.478   5.327 -0.2522  0.3201  1.7925
  365LIG     H3 5464   1.954   4.443   5.292 -2.1873 -1.1347 -1.2087
  365LIG     CA 5465   1.898   4.628   5.233 -0.4952 -0.8515 -0.2040
  365LIG     HA 5466   1.910   4.595   5.130  1.5342 -1.5587  0.2402
  365LIG     CB 5467   1.763   4.710   5.254  0.2074  0.2096  0.0864
  365LIG    HB1 5468   1.767   4.786   5.335 -1.0545  0.5984 -0.1983
  365LIG    HB2 5469   1.669   4.653   5.267 -1.1394  2.3015 -0.1572
  365LIG     CG 5470   1.744   4.796   5.128  0.5408 -0.0980  0.3724
  365LIG    OD1 5471   1.776   4.921   5.119  0.2334 -0.8132  0.2117
  365LIG    OD2 5472   1.703   4.740   5.023  0.0545  0.4722  0.4036
  365LIG      C 5473   2.038   4.704   5.254 -0.2259 -0.3415  0.3137
  365LIG    OT1 5474   2.122   4.680   5.342 -0.8184 -0.2786  0.2709
  365LIG    OT2 5475   2.069   4.786   5.168 -0.6848  0.0425  0.2711
  366LIG      N 5476   5.968   9.976   5.064 -0.0809 -0.1808 -0.3680
  366LIG     H1 5477   6.050   9.993   5.002  0.3719 -1.7246 -0.2156
  366LIG     H2 5478   5.909  10.061   5.053  0.5283  0.2392 -0.3886
  366LIG     H3 5479   6.003   9.964   5.161 -0.2978 -3.4467 -0.6420
  366LIG     CA 5480   5.897   9.851   5.031 -0.0223  0.5480 -0.4812
  366LIG     HA 5481   5.811   9.854   5.097 -1.2791 -1.9957 -1.9195
  366LIG     CB 5482   5.838   9.856   4.891 -0.8038 -0.6018  0.0736
  366LIG    HB1 5483   5.915   9.846   4.811 -1.1335 -1.7735 -0.1083
  366LIG    HB2 5484   5.798   9.954   4.857  2.7050  0.8213 -0.1701
  366LIG     CG 5485   5.733   9.753   4.851 -0.8400  0.0940  0.2952
  366LIG    OD1 5486   5.738   9.677   4.753  0.4444 -0.0820  0.2440
  366LIG    OD2 5487   5.634   9.757   4.925 -0.0360 -0.1225 -0.3512
  366LIG      C 5488   5.980   9.725   5.062  0.2097  0.2762  0.0922
  366LIG    OT1 5489   6.104   9.739   5.067  0.2328 -0.3847 -0.3844
  366LIG    OT2 5490   5.922   9.612   5.073 -0.3075 -0.0682  0.5414
  367LIG      N 5491   9.793   3.161   5.558 -0.2898 -0.2196  0.1066
  367LIG     H1 5492   9.888   3.193   5.588 -0.6790 -0.2051  1.3665
  367LIG     H2 5493   9.750   3.237   5.502  1.9665  3.4006  2.9948
  367LIG     H3 5494   9.736   3.130   5.640  2.6330 -1.5466  1.7194
  367LIG     CA 5495   9.811   3.036   5.481 -1.0960 -0.3219  0.3786
  367LIG     HA 5496   9.719   3.011   5.430 -0.4861 -3.0515  0.5389
  367LIG     CB 5497   9.922   3.082   5.372  1.2386  0.3046  0.4859
  367LIG    HB1 5498  10.023   3.089   5.417  0.8083 -1.6240  1.8464
  367LIG    HB2 5499   9.905   3.182   5.327 -1.4115 -0.8614 -1.2280
  367LIG     CG 5500   9.927   2.985   5.260  0.7993  0.2048 -0.8015
  367LIG    OD1 5501  10.036   2.958   5.209  0.1315 -0.7770 -0.7091
  367LIG    OD2 5502   9.819   2.947   5.204 -0.4232 -0.0253 -0.0448
  367LIG      C 5503   9.858   2.921   5.569  0.2862  0.2584  0.1378
  367LIG    OT1 5504   9.866   2.936   5.692  0.6423 -0.3688 -0.2332
  367LIG    OT2 5505   9.877   2.810   5.511  0.2324 -0.2748 -0.4440
  368LIG      N 5506   2.483   9.494   0.123 -0.0592 -0.0187  0.5708
  368LIG     H1 5507   2.585   9.514   0.119 -0.0643  0.1335  1.1665
  368LIG     H2 5508   2.467   9.416   0.190  0.1555 -0.7202 -0.1936
  368LIG     H3 5509   2.455   9.455   0.031  2.5335 -2.9709  0.9520
  368LIG     CA 5510   2.389   9.603   0.154 -0.3268 -0.3716  0.7240
  368LIG     HA 5511   2.303   9.589   0.090 -0.9096  1.7171  1.0110
  368LIG     CB 5512   2.371   9.601   0.307  0.5925 -0.0882  0.3108
  368LIG    HB1 5513   2.463   9.627   0.362  0.9343 -1.5806  0.4680
  368LIG    HB2 5514   2.335   9.504   0.347 -1.9555  1.0077  0.8057
  368LIG     CG 5515   2.258   9.699   0.346  0.2292 -0.5397  0.2034
  368LIG    OD1 5516   2.279   9.772   0.442 -0.3736  0.0000 -0.2431
  368LIG    OD2 5517   2.144   9.685   0.290  0.5882  0.2417  0.3849
  368LIG      C 5518   2.444   9.745   0.104 -0.4425 -0.5228  0.1045
  368LIG    OT1 5519   2.557   9.749   0.040  0.2204 -0.1956  0.2726
  368LIG    OT2 5520   2.366   9.843   0.118  0.7320 -0.6723 -0.6519
  369LIG      N 5521   4.168   1.299   0.664  1.1099  0.0311 -0.0390
  369LIG     H1 5522   4.101   1.245   0.606  0.0489 -1.0814  2.1583
  369LIG     H2 5523   4.177   1.253   0.757  0.8389  1.7076  0.8376
  369LIG     H3 5524   4.136   1.398   0.662  1.0766  0.0470  1.1598
  369LIG     CA 5525   4.311   1.303   0.617 -0.3805  0.2849 -0.1340
  369LIG     HA 5526   4.354   1.205   0.622 -0.2030  0.3641 -0.1041
  369LIG     CB 5527   4.309   1.363   0.474  0.4696  0.3887 -0.2557
  369LIG    HB1 5528   4.268   1.465   0.457 -0.1584  0.1636 -0.1378
  369LIG    HB2 5529   4.246   1.302   0.406  1.7394  0.1926 -1.2647
  369LIG     CG 5530   4.452   1.339   0.425 -0.2168 -0.0170 -0.9138
  369LIG    OD1 5531   4.511   1.431   0.368 -0.3825 -0.0764 -0.5192
  369LIG    OD2 5532   4.505   1.221   0.434 -0.1396  0.4439 -0.1005
  369LIG      C 5533   4.388   1.400   0.715 -0.6146  0.1119 -0.3529
  369LIG    OT1 5534   4.326   1.487   0.787  0.5736 -0.2636 -0.2788
  369LIG    OT2 5535   4.512   1.372   0.731 -0.5276  0.1252 -0.1359
  370LIG      N 5536   7.973   7.068   6.884  0.7363 -0.0355  0.3391
  370LIG     H1 5537   7.963   7.167   6.854 -0.0327 -0.2617 -0.1659
  370LIG     H2 5538   8.017   7.011   6.809  1.8211  2.5514 -1.0428
  370LIG     H3 5539   7.882   7.025   6.912  1.6100 -0.7971  2.0733
  370LIG     CA 5540   8.066   7.050   6.999  0.0818 -0.0476 -0.4812
  370LIG     HA 5541   8.163   7.077   6.961  0.3329  1.3704  1.1112
  370LIG     CB 5542   8.023   7.161   7.101  0.3748  0.0758  0.5650
  370LIG    HB1 5543   7.929   7.130   7.151  1.4184 -0.1257  2.4690
  370LIG    HB2 5544   8.012   7.262   7.056 -1.2549 -1.3596 -2.4180
  370LIG     CG 5545   8.125   7.177   7.209  0.1125 -0.6437  0.3722
  370LIG    OD1 5546   8.089   7.166   7.324  0.0725 -0.1818  0.0699
  370LIG    OD2 5547   8.247   7.207   7.190 -0.3164 -0.5218 -0.0982
  370LIG      C 5548   8.064   6.905   7.060 -0.1295 -0.6760  0.6665
  370LIG    OT1 5549   7.965   6.824   7.035 -0.1396  0.1772 -0.4871
  370LIG    OT2 5550   8.153   6.874   7.148  0.4108  0.0874 -0.0891
  371LIG      N 5551   8.760   2.183   6.129 -0.0206  0.5485 -0.0181
  371LIG     H1 5552   8.834   2.118   6.096 -0.5552 -1.3464  2.3555
  371LIG     H2 5553   8.798   2.274   6.096 -1.4412  0.6365 -1.4683
  371LIG     H3 5554   8.776   2.163   6.230 -0.5823 -2.1192 -0.4272
  371LIG     CA 5555   8.623   2.161   6.083  0.3313  0.1048 -0.6495
  371LIG     HA 5556   8.572   2.242   6.133 -1.2863 -2.3568  1.8219
  371LIG     CB 5557   8.621   2.163   5.923 -0.2793  0.5514  0.1741
  371LIG    HB1 5558   8.650   2.064   5.882 -1.3610  0.7449 -1.1021
  371LIG    HB2 5559   8.686   2.249   5.896 -0.5799  0.4722 -0.8159
  371LIG     CG 5560   8.481   2.207   5.867 -0.2936 -0.4162  0.3875
  371LIG    OD1 5561   8.429   2.138   5.777  0.0351 -0.7274 -0.2977
  371LIG    OD2 5562   8.432   2.310   5.919 -0.0907 -0.3774  0.3949
  371LIG      C 5563   8.557   2.027   6.132  1.0698  0.2186  0.1305
  371LIG    OT1 5564   8.626   1.937   6.182 -0.4415 -0.1478  0.4636
  371LIG    OT2 5565   8.433   2.021   6.109  0.6591 -0.2968  0.4436
  372LIG      N 5566   1.229   3.487   9.269  0.3505 -0.1876  0.1710
  372LIG     H1 5567   1.172   3.426   9.332 -0.2083  0.7775  0.6189
  372LIG     H2 5568   1.236   3.584   9.304 -2.6079 -0.5053  1.7918
  372LIG     H3 5569   1.183   3.500   9.176 -2.4974 -0.0611  1.5428
  372LIG     CA 5570   1.366   3.420   9.247 -0.7229 -0.9760 -0.4914
  372LIG     HA 5571   1.394   3.448   9.147 -1.4324  3.4318  0.4419
  372LIG     CB 5572   1.466   3.486   9.356 -0.7479 -0.3194  0.3003
  372LIG    HB1 5573   1.436   3.485   9.463  1.9392 -3.3932  1.0730
  372LIG    HB2 5574   1.475   3.591   9.321  1.3316 -1.1865 -1.9065
  372LIG     CG 5575   1.609   3.445   9.333 -0.1989 -0.4696  0.2540
  372LIG    OD1 5576   1.681   3.404   9.425  0.2781  0.3158  0.5005
  372LIG    OD2 5577   1.657   3.469   9.218  0.0864  0.2548  0.4549
  372LIG      C 5578   1.360   3.265   9.252 -0.4620  0.3972 -0.3828
  372LIG    OT1 5579   1.250   3.210   9.268  0.3056  0.4266  0.2475
  372LIG    OT2 5580   1.462   3.199   9.237 -0.4164  0.4394 -0.2253
  373LIG      N 5581   0.128   7.335   2.357 -0.0804  0.6691  0.0420
  373LIG     H1 5582   0.230   7.342   2.339 -0.1876 -1.2280 -1.5167
  373LIG     H2 5583   0.080   7.287   2.278  0.3549 -1.0230  0.7777
  373LIG     H3 5584   0.096   7.431   2.382 -0.5633 -0.0826  2.4229
  373LIG     CA 5585   0.111   7.252   2.481 -0.6256  0.4096  0.6998
  373LIG     HA 5586   0.012   7.209   2.471 -0.4284  0.2096 -0.4037
  373LIG     CB 5587   0.211   7.134   2.486 -0.0642  0.3162 -0.1875
  373LIG    HB1 5588   0.314   7.173   2.497 -1.1413  3.6039 -1.3778
  373LIG    HB2 5589   0.212   7.086   2.386 -1.1321  0.2387 -0.1638
  373LIG     CG 5590   0.177   7.031   2.590 -0.4647 -0.8451 -0.0662
  373LIG    OD1 5591   0.264   7.004   2.673 -0.0760  0.2274 -0.1585
  373LIG    OD2 5592   0.066   6.966   2.592 -0.0052 -0.0630 -0.0432
  373LIG      C 5593   0.110   7.337   2.610  0.4628  0.4667 -0.5443
  373LIG    OT1 5594   0.135   7.454   2.602  0.1629 -0.3459 -0.4885
  373LIG    OT2 5595   0.067   7.281   2.714  0.5109  0.1165 -0.1941
  374LIG      N 5596   2.222   8.591   2.588 -0.0515 -0.0261 -0.6593
  374LIG     H1 5597   2.234   8.517   2.661 -0.4852  0.2155 -0.3425
  374LIG     H2 5598   2.164   8.670   2.622  1.3255  1.7137 -2.3138
  374LIG     H3 5599   2.177   8.545   2.506  1.7847 -1.1658 -1.0521
  374LIG     CA 5600   2.346   8.653   2.554 -0.0534 -0.4449  0.2792
  374LIG     HA 5601   2.408   8.569   2.528  1.0979  0.4517  0.0918
  374LIG     CB 5602   2.325   8.760   2.437  0.2644 -0.6373  0.0218
  374LIG    HB1 5603   2.246   8.837   2.450 -0.5240 -1.7362  2.0519
  374LIG    HB2 5604   2.278   8.703   2.353 -0.4996  1.3026 -0.8885
  374LIG     CG 5605   2.450   8.825   2.380  0.2083  0.3276 -0.2290
  374LIG    OD1 5606   2.453   8.946   2.345  0.0584 -0.7853  1.2965
  374LIG    OD2 5607   2.547   8.749   2.357  0.3072 -0.6339 -0.2200
  374LIG      C 5608   2.401   8.717   2.686 -0.0893  1.0070  0.0519
  374LIG    OT1 5609   2.347   8.701   2.801  0.1055  0.4431 -0.0083
  374LIG    OT2 5610   2.509   8.771   2.687 -0.4904  0.0772 -0.4547
  375LIG      N 5611   2.911   6.808   9.678  0.6121 -0.1070  0.0986
  375LIG     H1 5612   2.881   6.754   9.594 -1.7493  0.5620  0.4570
  375LIG     H2 5613   2.827   6.829   9.736 -0.7270  0.8531 -2.1135
  375LIG     H3 5614   2.940   6.903   9.648 -2.2672  1.0754  0.8773
  375LIG     CA 5615   3.027   6.742   9.750 -0.4038 -0.1785 -0.2472
  375LIG     HA 5616   3.011   6.763   9.854 -0.7087  0.2320 -0.3762
  375LIG     CB 5617   3.026   6.586   9.731 -0.2018 -0.3838  0.7412
  375LIG    HB1 5618   3.060   6.552   9.631 -2.8641 -1.0125 -0.0079
  375LIG    HB2 5619   2.925   6.542   9.746 -1.0164  0.2315 -2.4082
  375LIG     CG 5620   3.108   6.515   9.829  0.0488  1.5943 -0.4913
  375LIG    OD1 5621   3.203   6.443   9.801 -0.6495  0.1096  0.0942
  375LIG    OD2 5622   3.073   6.536   9.950 -0.3431  0.2145 -0.1579
  375LIG      C 5623   3.161   6.814   9.713  0.2559  0.1338  0.8178
  375LIG    OT1 5624   3.160   6.905   9.624  0.4478  0.1310 -0.1217
  375LIG    OT2 5625   3.271   6.781   9.762 -0.8780  0.3352 -0.2742
  376LIG      N 5626   7.258   9.753   1.116  0.3554  0.1485 -0.2938
  376LIG     H1 5627   7.236   9.853   1.135 -0.2459 -0.3886  1.8764
  376LIG     H2 5628   7.247   9.744   1.013  0.2423  2.7882 -0.5348
  376LIG     H3 5629   7.188   9.701   1.172 -2.1923  1.4748 -2.1154
  376LIG     CA 5630   7.398   9.724   1.166  0.1380 -0.0052 -0.2058
  376LIG     HA 5631   7.462   9.779   1.099  1.2847  1.4828  2.0515
  376LIG     CB 5632   7.418   9.789   1.311 -0.4393  0.2239  0.0567
  376LIG    HB1 5633   7.363   9.725   1.383  0.9297 -1.2155 -0.1507
  376LIG    HB2 5634   7.378   9.893   1.312  0.0755  0.4433 -1.3411
  376LIG     CG 5635   7.567   9.793   1.344 -0.5498 -0.1600 -0.2286
  376LIG    OD1 5636   7.609   9.769   1.458  0.0346  0.1428  0.7493
  376LIG    OD2 5637   7.639   9.831   1.251  0.1690  0.4573  0.2640
  376LIG      C 5638   7.425   9.572   1.164 -0.1128  0.4586  0.2133
  376LIG    OT1 5639   7.334   9.481   1.152 -0.4820  0.6503  0.4400
  376LIG    OT2 5640   7.547   9.537   1.152 -0.1184 -0.7153  0.2944
  377LIG      N 5641   8.024   9.915   0.005  0.5136 -0.3469 -0.4578
  377LIG     H1 5642   7.966   9.998  -0.018  2.3637  0.7470 -1.2756
  377LIG     H2 5643   7.979   9.829  -0.032  0.0464 -0.3687  0.1573
  377LIG     H3 5644   8.028   9.907   0.109 -1.5288  1.0635 -0.2381
  377LIG     CA 5645   8.170   9.924  -0.037  0.9520  0.7017  0.8938
  377LIG     HA 5646   8.218   9.830  -0.017  0.8175  0.5606  0.5515
  377LIG     CB 5647   8.170   9.920  -0.198 -0.0791  0.5086 -0.1942
  377LIG    HB1 5648   8.126  10.018  -0.229 -1.1723  1.1083  3.1175
  377LIG    HB2 5649   8.095   9.847  -0.235  0.4500 -0.6485  0.9865
  377LIG     CG 5650   8.307   9.889  -0.261  0.5795  0.2000 -0.4634
  377LIG    OD1 5651   8.353   9.947  -0.359 -0.0384  0.4403  0.2837
  377LIG    OD2 5652   8.372   9.795  -0.213  0.0896 -0.0428  0.2738
  377LIG      C 5653   8.247  10.036   0.019 -0.2556 -0.9127  0.1970
  377LIG    OT1 5654   8.193  10.123   0.098 -0.3268 -0.4354 -0.3346
  377LIG    OT2 5655   8.365  10.060  -0.013 -0.2671 -0.3982  0.3492
  378LIG      N 5656   2.337   4.158   6.371 -0.6031 -0.9122  0.4818
  378LIG     H1 5657   2.387   4.135   6.283 -0.5890  0.3496  0.1453
  378LIG     H2 5658   2.346   4.068   6.421  2.0514  0.1199  1.9395
  378LIG     H3 5659   2.239   4.188   6.349 -1.2334 -1.2452  2.7503
  378LIG     CA 5660   2.402   4.280   6.439  0.0875  1.0305  0.5993
  378LIG     HA 5661   2.403   4.363   6.370 -1.7455 -0.3790 -1.1654
  378LIG     CB 5662   2.336   4.303   6.576 -0.0997  0.6549 -0.2826
  378LIG    HB1 5663   2.368   4.215   6.635  1.0589  0.2067 -1.5616
  378LIG    HB2 5664   2.225   4.308   6.569 -0.0316  0.3504 -1.8192
  378LIG     CG 5665   2.389   4.422   6.649 -0.2340 -0.0225  0.2125
  378LIG    OD1 5666   2.419   4.417   6.768 -0.0124 -0.2630  0.0872
  378LIG    OD2 5667   2.396   4.535   6.588 -0.8310 -0.1749 -0.3943
  378LIG      C 5668   2.556   4.243   6.449  0.3590  0.0053 -0.1683
  378LIG    OT1 5669   2.601   4.129   6.421  0.3522  0.4059  0.1176
  378LIG    OT2 5670   2.637   4.331   6.494  0.0153 -0.1114 -0.4806
  379LIG      N 5671   0.801   5.143   2.458  0.6085  0.3319 -0.7898
  379LIG     H1 5672   0.901   5.141   2.430  0.9655  1.9281  0.3074
  379LIG     H2 5673   0.744   5.191   2.385 -0.7032 -1.5104 -1.0098
  379LIG     H3 5674   0.792   5.192   2.550  1.1432 -0.0704 -0.5199
  379LIG     CA 5675   0.761   5.002   2.488 -0.6371 -0.5594 -0.4460
  379LIG     HA 5676   0.799   4.943   2.406 -2.6436 -2.9173  0.2288
  379LIG     CB 5677   0.827   4.969   2.629  0.2737  0.3518 -0.2323
  379LIG    HB1 5678   0.755   5.007   2.704 -0.3621 -0.3460 -0.4843
  379LIG    HB2 5679   0.931   5.005   2.648  0.7471 -1.0198 -0.1963
  379LIG     CG 5680   0.809   4.823   2.661  0.1073  0.5690 -0.4330
  379LIG    OD1 5681   0.791   4.787   2.778 -0.4767 -0.2398 -0.0841
  379LIG    OD2 5682   0.856   4.745   2.572  0.7278 -0.0259  0.2642
  379LIG      C 5683   0.604   4.992   2.499 -0.1788 -0.3498  0.3388
  379LIG    OT1 5684   0.536   5.097   2.511  0.4015  0.2516 -0.0564
  379LIG    OT2 5685   0.544   4.882   2.510 -0.4556 -0.1220 -0.0839
  380LIG      N 5686   6.827   9.745   9.334  0.0817 -0.1485  0.2064
  380LIG     H1 5687   6.861   9.817   9.400  2.9647  0.7696 -2.1650
  380LIG     H2 5688   6.734   9.708   9.362 -0.2766  1.5667  1.3633
  380LIG     H3 5689   6.900   9.672   9.338  0.4645  0.1757 -0.8138
  380LIG     CA 5690   6.832   9.794   9.197  0.0530 -0.3626  0.1769
  380LIG     HA 5691   6.791   9.720   9.129 -2.2175  0.9910  0.0338
  380LIG     CB 5692   6.753   9.929   9.190 -0.3347  0.1390 -0.4840
  380LIG    HB1 5693   6.817  10.017   9.213 -0.7025 -0.2995  2.3774
  380LIG    HB2 5694   6.661   9.936   9.252  0.0339 -0.2556  0.1155
  380LIG     CG 5695   6.689   9.953   9.055 -1.3240 -0.2758 -0.3243
  380LIG    OD1 5696   6.676  10.075   9.015 -0.2045  0.2522 -0.4242
  380LIG    OD2 5697   6.637   9.864   8.985 -0.2298 -0.1764 -0.2470
  380LIG      C 5698   6.972   9.826   9.147  0.1321 -0.0849  0.3496
  380LIG    OT1 5699   7.073   9.797   9.221  0.0871 -0.4174  0.1448
  380LIG    OT2 5700   6.995   9.882   9.036  0.4481 -0.2036 -0.0643
  381LIG      N 5701   4.835   1.516   6.017  0.6889 -0.3640  0.9922
  381LIG     H1 5702   4.770   1.557   6.086  0.9269  0.8992  0.4716
  381LIG     H2 5703   4.822   1.412   6.022  0.8045 -0.4269  0.0762
  381LIG     H3 5704   4.931   1.538   6.050  0.4878  1.3922  0.4098
  381LIG     CA 5705   4.827   1.576   5.878  0.4525 -0.0079 -0.8134
  381LIG     HA 5706   4.850   1.681   5.869  0.8285  0.1103  1.4229
  381LIG     CB 5707   4.908   1.492   5.779  0.0531  0.0554  0.0727
  381LIG    HB1 5708   4.866   1.392   5.755  0.2253 -0.4149  1.6686
  381LIG    HB2 5709   5.016   1.487   5.803  0.7845  1.2570 -2.7061
  381LIG     CG 5710   4.929   1.573   5.648 -0.0031 -0.1540 -0.2225
  381LIG    OD1 5711   4.915   1.513   5.532 -0.0915  0.4344  0.1629
  381LIG    OD2 5712   4.967   1.692   5.654 -0.1251 -0.0601 -0.5565
  381LIG      C 5713   4.670   1.590   5.830 -0.5960 -0.1702  0.1431
  381LIG    OT1 5714   4.579   1.528   5.895  0.0137  0.0073  0.2227
  381LIG    OT2 5715   4.644   1.660   5.731  0.8380  0.0094  0.3629
  382LIG      N 5716   0.369   6.824   0.374 -0.2059  0.3190 -0.1868
  382LIG     H1 5717   0.444   6.754   0.356  0.2828  1.1331 -1.3979
  382LIG     H2 5718   0.285   6.806   0.316  0.4754 -1.0012 -0.7705
  382LIG     H3 5719   0.417   6.911   0.345  1.0345 -0.8361 -1.6820
  382LIG     CA 5720   0.329   6.830   0.518 -0.0363  0.6479  0.2923
  382LIG     HA 5721   0.243   6.895   0.526  1.5205  2.6194  1.4960
  382LIG     CB 5722   0.285   6.689   0.564  0.7749 -0.3445  0.3138
  382LIG    HB1 5723   0.366   6.615   0.583 -1.0534 -2.6474 -0.5946
  382LIG    HB2 5724   0.229   6.645   0.479  1.3277  1.1763 -0.8687
  382LIG     CG 5725   0.177   6.704   0.676 -0.7808 -1.1471  0.2364
  382LIG    OD1 5726   0.172   6.615   0.763  0.0222 -0.4797 -0.3489
  382LIG    OD2 5727   0.086   6.793   0.667  0.0761  0.3552  0.3392
  382LIG      C 5728   0.432   6.874   0.618 -0.1240 -0.0100  0.4616
  382LIG    OT1 5729   0.553   6.856   0.588  0.8271 -0.0463  0.2625
  382LIG    OT2 5730   0.390   6.914   0.731 -0.7626 -0.2942 -0.0265
  383LIG      N 5731   9.710   5.569   7.692 -0.0774 -0.1217  0.1153
  383LIG     H1 5732   9.699   5.499   7.769 -1.0690 -2.0286 -1.7011
  383LIG     H2 5733   9.775   5.519   7.628  0.5728  0.3064  0.4371
  383LIG     H3 5734   9.742   5.659   7.733  0.5360 -0.5050  0.5014
  383LIG     CA 5735   9.582   5.584   7.629 -0.7702  0.1615  0.2203
  383LIG     HA 5736   9.536   5.679   7.651 -2.3133 -1.1794  3.1108
  383LIG     CB 5737   9.613   5.555   7.480 -0.4358 -0.4301  0.1492
  383LIG    HB1 5738   9.628   5.447   7.459 -1.2656 -0.4469 -0.3773
  383LIG    HB2 5739   9.701   5.608   7.438 -1.7825  0.4275 -1.6752
  383LIG     CG 5740   9.498   5.602   7.395  0.4694 -0.1839  0.2061
  383LIG    OD1 5741   9.430   5.515   7.327  0.0896 -0.1911  0.1868
  383LIG    OD2 5742   9.471   5.723   7.395 -0.0687  0.2904  0.0985
  383LIG      C 5743   9.470   5.484   7.691  0.5741 -0.1197 -0.0489
  383LIG    OT1 5744   9.507   5.397   7.772  0.2719 -0.6196  0.1313
  383LIG    OT2 5745   9.345   5.497   7.666  0.1497  0.6048 -0.4050
  384LIG      N 5746   9.833   6.904   8.757  0.4685 -0.7110  0.4370
  384LIG     H1 5747   9.736   6.888   8.791  0.4727  2.0221  1.8705
  384LIG     H2 5748   9.880   6.940   8.843 -0.1953  1.2013  0.0162
  384LIG     H3 5749   9.826   6.980   8.686 -1.4194 -0.6698  0.6608
  384LIG     CA 5750   9.886   6.770   8.704  0.4908  0.0649  0.3734
  384LIG     HA 5751   9.987   6.788   8.669  0.9150 -0.8225  1.1019
  384LIG     CB 5752   9.883   6.681   8.828  0.0644 -0.0176  0.0389
  384LIG    HB1 5753   9.776   6.666   8.852 -0.5529  3.1409 -0.6081
  384LIG    HB2 5754   9.936   6.718   8.919  1.1377  1.4610 -1.1710
  384LIG     CG 5755   9.938   6.545   8.791 -0.1851 -0.4211  0.2765
  384LIG    OD1 5756   9.871   6.447   8.834  0.0940 -0.3569 -0.6091
  384LIG    OD2 5757  10.042   6.528   8.729  0.1352 -0.1807 -0.7398
  384LIG      C 5758   9.804   6.722   8.582  0.2392  0.1652  0.1945
  384LIG    OT1 5759   9.702   6.782   8.544  0.1881 -0.0026  0.3976
  384LIG    OT2 5760   9.862   6.631   8.514  0.2838  0.0730  0.3097
  385LIG      N 5761   0.563   2.876   6.957 -0.3830 -0.4254 -0.0461
  385LIG     H1 5762   0.619   2.872   6.869  0.8532 -1.0726  0.7583
  385LIG     H2 5763   0.634   2.903   7.027 -2.0801 -1.9263  2.3178
  385LIG     H3 5764   0.522   2.784   6.982 -2.4462  0.4158 -0.2439
  385LIG     CA 5765   0.448   2.959   6.932  0.5307 -0.2520 -0.0736
  385LIG     HA 5766   0.487   3.059   6.916  0.7770 -0.3145  0.1370
  385LIG     CB 5767   0.359   2.909   6.813 -0.1683 -0.1878  0.1857
  385LIG    HB1 5768   0.283   2.835   6.847  1.4642 -1.2909  1.4700
  385LIG    HB2 5769   0.425   2.871   6.732  3.1409  3.3778  1.0410
  385LIG     CG 5770   0.303   3.029   6.742 -0.3041  1.0271 -0.4381
  385LIG    OD1 5771   0.194   3.004   6.682  0.8036 -0.2703 -0.2386
  385LIG    OD2 5772   0.361   3.138   6.741  0.6305 -0.1269  0.3357
  385LIG      C 5773   0.357   2.969   7.056  0.0889 -0.5628  0.5550
  385LIG    OT1 5774   0.390   2.916   7.163 -0.3028 -0.0608  0.0453
  385LIG    OT2 5775   0.258   3.046   7.052  0.1000  0.3134 -0.7405
  386LIG      N 5776   6.945   3.529   9.999  0.1534 -0.0439  0.0208
  386LIG     H1 5777   6.971   3.497  10.095  0.9927  1.3716  0.2986
  386LIG     H2 5778   7.010   3.607   9.977 -0.0277 -1.1141 -4.7225
  386LIG     H3 5779   6.850   3.569   9.994 -0.3007 -0.8969  1.5799
  386LIG     CA 5780   6.951   3.404   9.915 -0.4602  0.4766  0.5380
  386LIG     HA 5781   7.048   3.362   9.937 -1.6369 -3.0545 -0.7527
  386LIG     CB 5782   6.830   3.317   9.952 -0.0794 -0.0437 -0.3259
  386LIG    HB1 5783   6.741   3.355   9.897 -0.6422 -2.1100 -0.9016
  386LIG    HB2 5784   6.816   3.317  10.062  0.3815  0.9249 -0.2585
  386LIG     CG 5785   6.865   3.175   9.911 -0.1937  0.3178  0.4078
  386LIG    OD1 5786   6.797   3.106   9.839 -0.3588  0.1557  0.2634
  386LIG    OD2 5787   6.971   3.122   9.966 -0.4271  0.4214 -0.1550
  386LIG      C 5788   6.951   3.452   9.767 -0.2913 -0.2313  1.5350
  386LIG    OT1 5789   6.941   3.576   9.735  0.1898 -0.1624 -0.1898
  386LIG    OT2 5790   6.963   3.362   9.677  0.0207  0.6656  0.4218
  387LIG      N 5791   4.757   1.414   9.429 -0.9466  0.5685 -0.1996
  387LIG     H1 5792   4.788   1.337   9.368 -1.8916 -1.5669  1.9328
  387LIG     H2 5793   4.704   1.488   9.379 -0.3817 -0.5603 -2.4983
  387LIG     H3 5794   4.844   1.465   9.455 -1.0472  1.2383 -1.1455
  387LIG     CA 5795   4.679   1.365   9.548  0.1342 -0.4543  0.0087
  387LIG     HA 5796   4.640   1.452   9.599 -0.3465 -0.1138 -0.9369
  387LIG     CB 5797   4.561   1.278   9.495  0.0622  0.6485  0.2339
  387LIG    HB1 5798   4.584   1.176   9.458 -0.1825  0.6588  0.0489
  387LIG    HB2 5799   4.519   1.326   9.404  0.9927  0.1168 -0.4842
  387LIG     CG 5800   4.449   1.291   9.595  0.0008 -0.8963  0.3305
  387LIG    OD1 5801   4.383   1.188   9.636 -0.1921  0.2977  0.3183
  387LIG    OD2 5802   4.415   1.407   9.638  0.1206 -0.0117 -0.4919
  387LIG      C 5803   4.762   1.295   9.654 -0.4701 -0.0593  0.2561
  387LIG    OT1 5804   4.888   1.264   9.634 -0.4293 -0.0292  0.4041
  387LIG    OT2 5805   4.716   1.247   9.764 -0.5490 -0.4370 -0.5895
  388LIG      N 5806   1.973   5.623   4.297  0.3917 -0.0801 -0.3357
  388LIG     H1 5807   1.893   5.623   4.231 -0.2612 -0.2728  0.4447
  388LIG     H2 5808   1.931   5.657   4.386 -2.4758 -1.8754 -0.9245
  388LIG     H3 5809   2.039   5.697   4.265 -0.5951 -0.2929 -2.9547
  388LIG     CA 5810   2.051   5.493   4.307 -0.0228 -0.5030  0.2057
  388LIG     HA 5811   2.123   5.501   4.387  1.0200 -0.6515 -0.7099
  388LIG     CB 5812   1.948   5.390   4.355 -0.0504 -0.8953 -0.1726
  388LIG    HB1 5813   1.885   5.357   4.269  0.7549  2.8628 -2.3045
  388LIG    HB2 5814   1.875   5.429   4.429 -1.1490 -0.8135 -1.2782
  388LIG     CG 5815   2.030   5.274   4.415  0.7642  0.3383 -0.3620
  388LIG    OD1 5816   1.991   5.153   4.411  0.4907  0.2642 -0.1386
  388LIG    OD2 5817   2.123   5.302   4.499 -0.5364 -0.5706  0.3883
  388LIG      C 5818   2.123   5.460   4.175 -0.3463  0.3175  0.0544
  388LIG    OT1 5819   2.113   5.525   4.069  0.6136  0.4763 -0.0166
  388LIG    OT2 5820   2.203   5.363   4.165  0.4255  0.5625  0.1525
  389LIG      N 5821   5.364   1.434   9.554  0.1108 -0.2612 -0.3407
  389LIG     H1 5822   5.262   1.452   9.566  0.0829  0.3835 -1.4389
  389LIG     H2 5823   5.405   1.409   9.646  1.4776  1.1463 -0.5404
  389LIG     H3 5824   5.405   1.525   9.523  0.2862 -0.4472 -0.6594
  389LIG     CA 5825   5.392   1.338   9.453  0.5004 -1.2610  0.3603
  389LIG     HA 5826   5.325   1.252   9.456 -1.4549  0.2154  0.1101
  389LIG     CB 5827   5.362   1.404   9.319  0.6861 -0.9011 -0.7599
  389LIG    HB1 5828   5.445   1.465   9.277  0.8283  0.2847  1.1567
  389LIG    HB2 5829   5.279   1.477   9.326 -0.0363 -1.8087  0.3348
  389LIG     CG 5830   5.337   1.304   9.217 -0.9670  0.6280  0.6657
  389LIG    OD1 5831   5.430   1.271   9.138 -0.3908  0.0440  0.7380
  389LIG    OD2 5832   5.227   1.237   9.221 -0.1068 -0.1457  0.1934
  389LIG      C 5833   5.542   1.289   9.452 -0.5461 -0.4226  0.7598
  389LIG    OT1 5834   5.631   1.358   9.508  0.1207  1.3855 -0.1160
  389LIG    OT2 5835   5.570   1.174   9.417  0.3038 -0.4968  0.0784
  390LIG      N 5836   6.922   3.547   0.786 -0.6894  0.2185 -0.5760
  390LIG     H1 5837   7.024   3.559   0.770 -0.4037 -1.1852  0.1163
  390LIG     H2 5838   6.891   3.632   0.839  1.1747 -0.4085  1.6538
  390LIG     H3 5839   6.904   3.463   0.845  2.5892 -0.0085  0.2595
  390LIG     CA 5840   6.845   3.544   0.663  0.2170  0.6089  1.0931
  390LIG     HA 5841   6.899   3.478   0.597  1.6677  3.5273 -0.7109
  390LIG     CB 5842   6.705   3.486   0.700 -0.4728  0.1032 -0.0870
  390LIG    HB1 5843   6.647   3.565   0.751 -0.3556  1.6459 -2.3024
  390LIG    HB2 5844   6.709   3.398   0.768  0.1697  1.3494  1.5366
  390LIG     CG 5845   6.637   3.440   0.569  0.1917 -0.1717 -0.4116
  390LIG    OD1 5846   6.516   3.470   0.552  0.1059  0.2971  0.4479
  390LIG    OD2 5847   6.701   3.375   0.488  0.4893  0.3853 -0.3653
  390LIG      C 5848   6.832   3.685   0.591 -0.0242 -0.0275 -0.2377
  390LIG    OT1 5849   6.878   3.790   0.642 -0.2649  0.2413 -0.2875
  390LIG    OT2 5850   6.768   3.685   0.481 -0.2443  0.1946 -0.5742
  391LIG      N 5851   3.361   1.902   6.079 -0.5814  0.3776  0.6536
  391LIG     H1 5852   3.289   1.852   6.023 -0.9681  0.6507  0.9095
  391LIG     H2 5853   3.442   1.923   6.017 -1.6686  3.3145  0.1721
  391LIG     H3 5854   3.381   1.842   6.162 -0.5405 -2.5410 -1.4015
  391LIG     CA 5855   3.296   2.024   6.126  0.3061  0.6381  0.2322
  391LIG     HA 5856   3.286   2.095   6.044  2.5565  0.4260 -0.2555
  391LIG     CB 5857   3.161   1.976   6.181  0.2374  0.1499 -0.1616
  391LIG    HB1 5858   3.177   1.914   6.272  3.9372  0.1942 -0.7319
  391LIG    HB2 5859   3.114   1.908   6.107  1.2614 -0.8182  0.0608
  391LIG     CG 5860   3.058   2.081   6.203  0.1603 -0.2992  0.5580
  391LIG    OD1 5861   2.971   2.060   6.292  0.1361 -0.7250 -0.5383
  391LIG    OD2 5862   3.057   2.178   6.126  0.6655 -0.7748  0.2460
  391LIG      C 5863   3.391   2.103   6.229 -1.1056 -0.1090  0.1614
  391LIG    OT1 5864   3.502   2.057   6.261 -0.2069 -0.1397 -0.2688
  391LIG    OT2 5865   3.356   2.208   6.281 -0.7256 -0.1169  0.1798
  392LIG      N 5866   0.509   4.585   5.351  0.2638  0.6038 -1.0670
  392LIG     H1 5867   0.600   4.600   5.302  0.7355 -0.7804 -0.6499
  392LIG     H2 5868   0.505   4.623   5.448  2.5115 -2.8174  0.4744
  392LIG     H3 5869   0.503   4.483   5.373  0.6485  0.6281 -0.8369
  392LIG     CA 5870   0.394   4.636   5.275  0.3897  0.2568  0.3766
  392LIG     HA 5871   0.405   4.742   5.288  1.1024  0.3376 -0.8064
  392LIG     CB 5872   0.422   4.604   5.123 -0.4505  0.0915  0.3876
  392LIG    HB1 5873   0.427   4.499   5.089  0.2560  0.3903 -0.4656
  392LIG    HB2 5874   0.524   4.642   5.101 -0.0420 -1.3970 -0.3647
  392LIG     CG 5875   0.338   4.680   5.025 -0.7984  0.0613  0.8711
  392LIG    OD1 5876   0.282   4.612   4.930  0.1373 -0.0065  0.2041
  392LIG    OD2 5877   0.325   4.805   5.035  0.2670 -0.1035  0.1431
  392LIG      C 5878   0.257   4.599   5.324  0.3711  0.0676  0.0335
  392LIG    OT1 5879   0.250   4.505   5.406  0.5274 -0.5944 -0.3407
  392LIG    OT2 5880   0.152   4.662   5.287  0.0679  0.5470 -0.7103
  393LIG      N 5881   7.871   4.913   3.648  0.5239 -0.5045  1.1172
  393LIG     H1 5882   7.814   4.965   3.718 -1.1977 -2.3771  1.1381
  393LIG     H2 5883   7.834   4.912   3.551 -2.1251 -2.7720  2.0696
  393LIG     H3 5884   7.870   4.811   3.668  2.5121 -1.3243 -2.6788
  393LIG     CA 5885   8.017   4.961   3.656  0.2200  1.6375 -0.4405
  393LIG     HA 5886   8.011   5.067   3.638  1.9402  1.4341 -2.3799
  393LIG     CB 5887   8.071   4.922   3.805  0.4306 -0.1790  0.2957
  393LIG    HB1 5888   8.102   4.816   3.808  0.3570 -0.2524 -1.2324
  393LIG    HB2 5889   7.989   4.927   3.880 -0.7942 -0.1756 -1.0423
  393LIG     CG 5890   8.180   5.016   3.840  0.4696 -0.2568  0.2530
  393LIG    OD1 5891   8.272   4.973   3.914 -0.3762 -0.5515  0.1039
  393LIG    OD2 5892   8.179   5.138   3.800 -0.1094  0.0163  0.4394
  393LIG      C 5893   8.118   4.900   3.551 -0.3071 -0.5599 -0.3201
  393LIG    OT1 5894   8.077   4.820   3.468  0.3271 -0.0679 -0.3772
  393LIG    OT2 5895   8.241   4.929   3.555 -0.5310  0.3154 -0.1194
  394LIG      N 5896   9.549   6.548   6.345 -0.6585 -0.4414  0.2899
  394LIG     H1 5897   9.592   6.454   6.336 -3.7646 -1.7766 -1.3781
  394LIG     H2 5898   9.528   6.591   6.253  0.7886  1.0916  0.6378
  394LIG     H3 5899   9.617   6.614   6.389  0.0190 -1.1805  0.3643
  394LIG     CA 5900   9.420   6.551   6.415 -0.3663  0.6880 -0.8204
  394LIG     HA 5901   9.362   6.478   6.360  0.4427  1.1971 -2.3614
  394LIG     CB 5902   9.428   6.494   6.557  0.8087 -0.0754 -0.3007
  394LIG    HB1 5903   9.468   6.575   6.622 -2.3695  0.7955  0.6709
  394LIG    HB2 5904   9.499   6.410   6.573 -2.2040 -2.4850  0.9520
  394LIG     CG 5905   9.303   6.436   6.619 -0.0697  0.3725  0.4183
  394LIG    OD1 5906   9.259   6.483   6.727  0.2388  0.2891  1.3565
  394LIG    OD2 5907   9.258   6.324   6.577  0.7660  0.2162 -0.2628
  394LIG      C 5908   9.341   6.696   6.402 -0.1927  0.6334  0.6011
  394LIG    OT1 5909   9.399   6.787   6.341  0.2042  0.1123 -0.0836
  394LIG    OT2 5910   9.236   6.713   6.466  0.5655 -0.0273 -0.4751
  395LIG      N 5911   2.465   9.853   6.859 -0.6651 -0.2899 -0.1922
  395LIG     H1 5912   2.370   9.894   6.857 -0.2226  0.7071 -1.1500
  395LIG     H2 5913   2.440   9.756   6.886  0.1870 -1.0897 -2.2121
  395LIG     H3 5914   2.523   9.894   6.935 -0.1578 -1.9805  0.3362
  395LIG     CA 5915   2.532   9.856   6.728 -0.3667 -0.4690  0.3675
  395LIG     HA 5916   2.635   9.825   6.739  0.4378  1.1571 -2.2271
  395LIG     CB 5917   2.458   9.766   6.624  0.3614 -0.2970 -0.1935
  395LIG    HB1 5918   2.362   9.811   6.591  0.6158  0.7696  0.4941
  395LIG    HB2 5919   2.437   9.672   6.679  1.6646 -1.0404 -0.9389
  395LIG     CG 5920   2.546   9.744   6.511  0.0184 -0.0698  0.4050
  395LIG    OD1 5921   2.503   9.757   6.393  0.1619  0.0894  0.0539
  395LIG    OD2 5922   2.666   9.712   6.536  0.5851  0.5814  0.0160
  395LIG      C 5923   2.550  10.003   6.682  0.3528  0.2158 -0.6525
  395LIG    OT1 5924   2.503  10.098   6.751  0.0174  0.2867  0.4136
  395LIG    OT2 5925   2.621  10.028   6.577 -1.1179  0.7784 -0.1908
  396LIG      N 5926   1.452   4.284   3.124  0.0109  0.3496 -0.5895
  396LIG     H1 5927   1.464   4.288   3.020  0.1739 -1.1944 -0.6482
  396LIG     H2 5928   1.526   4.226   3.168  0.8087  1.8802  0.1013
  396LIG     H3 5929   1.363   4.233   3.140 -0.6544  1.2233 -1.4302
  396LIG     CA 5930   1.445   4.412   3.186 -0.6298 -0.0237  0.7319
  396LIG     HA 5931   1.346   4.454   3.170 -0.1937  1.2215  1.1814
  396LIG     CB 5932   1.480   4.384   3.337  0.3265  0.7690 -1.0164
  396LIG    HB1 5933   1.590   4.376   3.353  0.2338  1.1770 -0.1298
  396LIG    HB2 5934   1.434   4.289   3.371 -2.1525  1.9897 -0.8640
  396LIG     CG 5935   1.430   4.500   3.420  0.5549  0.1493 -0.1052
  396LIG    OD1 5936   1.508   4.553   3.498  0.2330  0.1549 -0.5821
  396LIG    OD2 5937   1.305   4.527   3.414 -0.5061 -0.3347 -0.3614
  396LIG      C 5938   1.548   4.523   3.129  1.1337 -0.3015 -0.2282
  396LIG    OT1 5939   1.639   4.490   3.050 -0.6023  0.4202  0.1684
  396LIG    OT2 5940   1.539   4.635   3.173 -0.3810 -0.4822  0.3162
  397LIG      N 5941   1.786   4.536   5.826  0.3243  0.1968  0.4087
  397LIG     H1 5942   1.816   4.551   5.728 -1.4586  1.6986  0.0739
  397LIG     H2 5943   1.754   4.629   5.862  0.5067  0.5849 -0.4178
  397LIG     H3 5944   1.869   4.503   5.880  0.3254  1.6724  1.3477
  397LIG     CA 5945   1.670   4.444   5.856  0.5439  0.8457  0.4920
  397LIG     HA 5946   1.722   4.349   5.859  0.6950  0.9697  3.7576
  397LIG     CB 5947   1.619   4.491   5.994 -0.1213  0.0921  0.2184
  397LIG    HB1 5948   1.549   4.575   5.978 -0.1340  0.9759  4.3084
  397LIG    HB2 5949   1.703   4.517   6.063 -2.2665  0.5829  2.7338
  397LIG     CG 5950   1.546   4.383   6.071 -0.4167 -0.2168 -0.8738
  397LIG    OD1 5951   1.425   4.392   6.107  0.8829  0.1925  0.4337
  397LIG    OD2 5952   1.612   4.277   6.088 -0.0209  0.3725  0.4015
  397LIG      C 5953   1.560   4.423   5.752 -0.5633  0.3091  0.0503
  397LIG    OT1 5954   1.559   4.500   5.651  0.3947  0.2733 -0.2342
  397LIG    OT2 5955   1.464   4.343   5.776  0.3299 -0.4150 -0.5478
  398LIG      N 5956   1.032   9.255   2.023  0.3332  0.5126 -0.3993
  398LIG     H1 5957   0.977   9.184   2.075 -1.4423  0.8136 -1.8298
  398LIG     H2 5958   1.015   9.237   1.922  2.0305  0.7828 -0.7609
  398LIG     H3 5959   1.135   9.239   2.031  0.6766  1.9561 -1.7393
  398LIG     CA 5960   1.001   9.385   2.081  0.0922 -1.1246  0.1047
  398LIG     HA 5961   1.082   9.450   2.051 -1.3584  0.6925  0.0174
  398LIG     CB 5962   0.861   9.432   2.044  0.4437  0.0651  0.5385
  398LIG    HB1 5963   0.777   9.396   2.108  0.2350 -2.9470 -1.3418
  398LIG    HB2 5964   0.835   9.403   1.940  0.1456 -0.9706  0.8944
  398LIG     CG 5965   0.854   9.586   2.027  0.4342 -0.1662 -0.3545
  398LIG    OD1 5966   0.740   9.643   2.041 -0.2381  0.1235  0.4246
  398LIG    OD2 5967   0.958   9.651   1.994 -0.4404 -0.0944  0.4271
  398LIG      C 5968   1.014   9.393   2.236 -0.1398  0.2968  0.0262
  398LIG    OT1 5969   1.047   9.288   2.298  0.1955 -0.0459  0.2114
  398LIG    OT2 5970   0.992   9.506   2.297  0.1721 -0.5401 -0.2688
  399LIG      N 5971   9.193   7.846   3.062  1.3131 -0.3976  0.0903
  399LIG     H1 5972   9.202   7.782   3.143  0.7114 -0.8174 -0.1651
  399LIG     H2 5973   9.107   7.905   3.066 -0.0969 -2.2629 -1.6623
  399LIG     H3 5974   9.198   7.787   2.977 -1.0256  0.9601 -1.0697
  399LIG     CA 5975   9.299   7.955   3.064  0.4647 -0.4938  0.0020
  399LIG     HA 5976   9.386   7.895   3.087  1.6149  0.8141 -0.9459
  399LIG     CB 5977   9.301   8.029   2.923  0.1262  0.4097 -0.1228
  399LIG    HB1 5978   9.235   8.119   2.928 -0.8170 -0.3885  2.1128
  399LIG    HB2 5979   9.267   7.954   2.848 -0.8461  1.7087 -1.0244
  399LIG     CG 5980   9.432   8.082   2.892 -0.3454  0.6838  0.0030
  399LIG    OD1 5981   9.454   8.200   2.851 -0.1411 -0.2090 -0.1208
  399LIG    OD2 5982   9.534   8.003   2.910 -0.1763  0.0201  0.2415
  399LIG      C 5983   9.292   8.051   3.181  0.1968  1.1140  0.1276
  399LIG    OT1 5984   9.193   8.056   3.255  0.1332  0.5444 -0.3893
  399LIG    OT2 5985   9.387   8.138   3.196  0.0917  0.2924 -0.1800
  400LIG      N 5986   2.404   0.224   6.163  0.3698 -0.3768  0.2580
  400LIG     H1 5987   2.477   0.299   6.165  1.3128 -1.2290 -1.1096
  400LIG     H2 5988   2.411   0.161   6.245  0.9222  0.0975  0.5771
  400LIG     H3 5989   2.410   0.176   6.070 -3.5662 -1.3394  0.4418
  400LIG     CA 5990   2.274   0.293   6.156 -0.2588 -0.0667  0.0078
  400LIG     HA 5991   2.209   0.227   6.101 -0.9223  1.1937 -0.7508
  400LIG     CB 5992   2.218   0.299   6.304  0.3603 -0.2667 -0.2878
  400LIG    HB1 5993   2.276   0.373   6.363 -0.7295 -1.1087  1.8801
  400LIG    HB2 5994   2.228   0.195   6.340 -1.0783 -0.4767 -0.4684
  400LIG     CG 5995   2.077   0.344   6.300  0.4241 -0.4485 -0.5995
  400LIG    OD1 5996   2.043   0.457   6.354 -0.0172  0.0617  0.4269
  400LIG    OD2 5997   1.994   0.272   6.240  0.1396  0.3928 -0.1901
  400LIG      C 5998   2.275   0.432   6.082  0.1070 -0.2116 -0.2733
  400LIG    OT1 5999   2.391   0.480   6.053 -0.3520  0.4331  0.5326
  400LIG    OT2 6000   2.171   0.497   6.050  0.2756 -0.4426 -0.0125
  401LIG      N 6001   4.350   0.270   2.388  0.5065 -0.3856 -0.5366
  401LIG     H1 6002   4.262   0.325   2.398  1.2794  0.9073 -0.7664
  401LIG     H2 6003   4.386   0.271   2.291 -0.9552  1.5550 -1.0800
  401LIG     H3 6004   4.334   0.171   2.415 -1.0834 -0.6694 -2.4471
  401LIG     CA 6005   4.461   0.319   2.470  0.1217 -0.4861 -0.3068
  401LIG     HA 6006   4.527   0.234   2.477 -0.9095 -1.1881  0.9224
  401LIG     CB 6007   4.527   0.433   2.394  0.0700 -0.2487 -0.0652
  401LIG    HB1 6008   4.459   0.521   2.397  0.7435  0.3290 -1.1145
  401LIG    HB2 6009   4.559   0.398   2.293  3.0034 -0.8802  1.0202
  401LIG     CG 6010   4.658   0.469   2.460 -0.5358 -0.6488 -0.1324
  401LIG    OD1 6011   4.686   0.582   2.503 -0.0728  0.2050  0.7063
  401LIG    OD2 6012   4.743   0.372   2.475  0.5690 -0.1012 -0.1344
  401LIG      C 6013   4.421   0.356   2.613 -0.4394 -0.3186  0.4149
  401LIG    OT1 6014   4.295   0.354   2.639  0.4162  0.1876 -0.5168
  401LIG    OT2 6015   4.511   0.372   2.703  0.5023  0.1564  0.3566
  402LIG      N 6016   0.147   1.723   4.280  0.0648 -0.2116  0.3566
  402LIG     H1 6017   0.193   1.649   4.338 -0.9571 -0.1230  1.2952
  402LIG     H2 6018   0.064   1.685   4.230  2.2724 -0.8158 -2.9949
  402LIG     H3 6019   0.203   1.757   4.200 -0.6694  0.7926  0.2681
  402LIG     CA 6020   0.106   1.839   4.369 -0.0326 -0.0269  0.4769
  402LIG     HA 6021   0.156   1.932   4.347 -0.1826 -0.1596 -0.4529
  402LIG     CB 6022  -0.048   1.851   4.345  0.6009  0.3617  0.2304
  402LIG    HB1 6023  -0.102   1.785   4.417  0.3213 -0.5380 -0.7919
  402LIG    HB2 6024  -0.078   1.825   4.242 -2.8035  0.1907  1.2036
  402LIG     CG 6025  -0.093   1.998   4.362 -0.5536  0.1841  0.5672
  402LIG    OD1 6026  -0.208   2.024   4.409  0.1547  0.0609 -0.1318
  402LIG    OD2 6027  -0.014   2.084   4.320  0.2418 -0.1564  0.2644
  402LIG      C 6028   0.122   1.826   4.523  0.3758  0.6817  0.0353
  402LIG    OT1 6029   0.140   1.713   4.579 -0.0275 -0.3752  0.2279
  402LIG    OT2 6030   0.137   1.931   4.592 -0.0530 -0.5621  0.4702
  403LIG      N 6031   8.648   7.191   5.896  0.3056  0.3427  0.3613
  403LIG     H1 6032   8.627   7.090   5.904  1.6935 -0.0114 -0.3982
  403LIG     H2 6033   8.674   7.212   5.797 -0.1102  0.1984  0.2171
  403LIG     H3 6034   8.727   7.217   5.958  2.1868  0.9053 -2.1734
  403LIG     CA 6035   8.528   7.268   5.946  0.1459 -0.6081  0.1389
  403LIG     HA 6036   8.446   7.224   5.891 -1.1519  0.4695  1.1884
  403LIG     CB 6037   8.523   7.244   6.105 -0.1005  0.1298 -0.0557
  403LIG    HB1 6038   8.611   7.296   6.147  2.6871 -2.2229 -2.6889
  403LIG    HB2 6039   8.536   7.139   6.138 -0.8717  0.2539  0.6821
  403LIG     CG 6040   8.389   7.288   6.171 -0.1306  0.4149  0.4739
  403LIG    OD1 6041   8.401   7.367   6.271 -0.5198 -0.0895 -0.0498
  403LIG    OD2 6042   8.281   7.247   6.135  0.4718  0.1013  0.3099
  403LIG      C 6043   8.539   7.422   5.915 -0.0437  0.3941 -0.5754
  403LIG    OT1 6044   8.638   7.463   5.844 -0.1116  0.2280  0.8838
  403LIG    OT2 6045   8.447   7.502   5.948  0.1497 -0.1986  0.0050
  404LIG      N 6046   8.349   3.325   4.551  0.1872  0.2770  0.0683
  404LIG     H1 6047   8.356   3.405   4.617 -1.0431 -1.2969  2.1829
  404LIG     H2 6048   8.255   3.343   4.510  1.1046  1.8423 -1.3819
  404LIG     H3 6049   8.360   3.235   4.603  1.0945 -0.4214 -1.3159
  404LIG     CA 6050   8.437   3.332   4.432 -0.1404  0.0751  0.1249
  404LIG     HA 6051   8.539   3.330   4.468  0.2034 -1.1721 -0.9123
  404LIG     CB 6052   8.404   3.210   4.344 -0.5749  0.4959  0.1940
  404LIG    HB1 6053   8.304   3.221   4.297  0.3601 -0.6621 -2.1345
  404LIG    HB2 6054   8.413   3.119   4.407  1.1578  0.6341  0.1947
  404LIG     CG 6055   8.496   3.171   4.226  0.2572  0.1938  0.3074
  404LIG    OD1 6056   8.447   3.157   4.112  0.1214 -0.5529 -0.2126
  404LIG    OD2 6057   8.624   3.159   4.247  0.0242 -0.0604  0.4959
  404LIG      C 6058   8.423   3.463   4.343 -0.2408  0.8017 -0.5228
  404LIG    OT1 6059   8.328   3.541   4.374 -0.8068  0.2317  0.5464
  404LIG    OT2 6060   8.511   3.483   4.258  0.2279 -0.2038  0.2123
  405SOL     OW 6061   9.956   0.197   0.857  0.0595  0.1338 -0.5612
  405SOL    HW1 6062  10.041   0.240   0.869  0.4764 -1.0609  0.8351
  405SOL    HW2 6063   9.935   0.213   0.765  1.7032  0.5947 -0.8849
  406SOL     OW 6064   1.320   1.676   0.519  0.5060  0.0474 -0.0761
  406SOL    HW1 6065   1.266   1.663   0.441  2.6849  0.6854 -1.7636
  406SOL    HW2 6066   1.324   1.772   0.529 -0.7362 -0.0572  1.5443
  407SOL     OW 6067   2.136   1.690   0.478 -0.1016  0.6813  0.3046
  407SOL    HW1 6068   2.221   1.650   0.496 -0.2652  0.5936  0.9014
  407SOL    HW2 6069   2.073   1.620   0.495 -0.1848  0.1303 -2.1293
  408SOL     OW 6070   2.070   1.885   2.767 -0.4487  0.8627  0.5501
  408SOL    HW1 6071   2.026   1.820   2.821 -0.7620  0.5607 -0.0620
  408SOL    HW2 6072   2.117   1.833   2.701 -0.8446  1.2548 -0.0495
  409SOL     OW 6073   2.167   0.071   9.259 -0.3968  0.0438 -0.2208
  409SOL    HW1 6074   2.173   0.024   9.175  0.2118 -0.8647  0.3195
  409SOL    HW2 6075   2.228   0.024   9.316 -1.7583 -0.1309  1.1041
  410SOL     OW 6076   1.232   0.319   1.573 -0.6151 -0.2734 -0.4648
  410SOL    HW1 6077   1.268   0.399   1.536 -2.4343  1.2426  0.9119
  410SOL    HW2 6078   1.154   0.301   1.519 -0.4290 -0.8932 -0.5277
  411SOL     OW 6079   1.194   0.542   0.498 -0.2831 -0.1397 -0.6364
  411SOL    HW1 6080   1.104   0.558   0.470  0.0509  1.7332 -0.7645
  411SOL    HW2 6081   1.192   0.554   0.593 -0.7398 -3.1036 -0.2254
  412SOL     OW 6082   0.173   0.546   2.916  0.2607 -0.0612  0.3789
  412SOL    HW1 6083   0.183   0.545   2.821  1.4757  0.9225  0.4885
  412SOL    HW2 6084   0.153   0.455   2.939  3.1747 -0.9749 -0.5005
  413SOL     OW 6085   1.768   1.948   2.255 -0.0531  0.2417 -0.2914
  413SOL    HW1 6086   1.808   1.930   2.340 -0.0472  1.8769  0.0727
  413SOL    HW2 6087   1.779   1.867   2.206  2.6137  0.2350  0.2289
  414SOL     OW 6088   1.017   1.932   1.153 -0.2145 -0.8821  0.1751
  414SOL    HW1 6089   1.083   1.871   1.121  0.3077 -0.9821  1.4182
  414SOL    HW2 6090   1.022   2.006   1.093  0.1976 -1.3923 -0.4408
  415SOL     OW 6091   1.318   2.176   1.168  0.4064 -0.1782 -0.2116
  415SOL    HW1 6092   1.322   2.130   1.085  0.6230  0.7758 -0.7365
  415SOL    HW2 6093   1.359   2.261   1.151 -3.3701  1.7632 -0.2952
  416SOL     OW 6094   0.623   0.985   0.963  0.6572  0.1017  0.2351
  416SOL    HW1 6095   0.639   0.922   1.033 -0.7161  0.3129  0.7641
  416SOL    HW2 6096   0.591   1.063   1.008 -0.5260  0.1328 -0.6412
  417SOL     OW 6097   0.270   2.306   0.652 -0.3353  0.6355 -0.1308
  417SOL    HW1 6098   0.276   2.243   0.580  1.1959  0.2526  0.3121
  417SOL    HW2 6099   0.291   2.255   0.730 -4.0524  0.5526  0.9282
  418SOL     OW 6100   0.966   1.629   2.714 -0.6496  0.3110  0.1055
  418SOL    HW1 6101   0.899   1.560   2.709 -0.4706  0.0591  1.0099
  418SOL    HW2 6102   0.916   1.710   2.727 -0.7901  0.1200  0.8109
  419SOL     OW 6103   1.886   0.601   0.905  0.9147 -0.0512  0.5208
  419SOL    HW1 6104   1.954   0.572   0.845  1.6068 -0.6369  1.5768
  419SOL    HW2 6105   1.819   0.640   0.849  2.7135  1.7473 -0.4183
  420SOL     OW 6106   0.682   1.907   0.655 -0.1246 -0.2834  0.1626
  420SOL    HW1 6107   0.625   1.838   0.621  0.8706 -0.5148 -1.0750
  420SOL    HW2 6108   0.634   1.988   0.640 -0.3754 -0.5249 -0.3412
  421SOL     OW 6109   0.409   0.091   2.865  0.6701 -0.5898  1.2000
  421SOL    HW1 6110   0.381   0.114   2.954  1.1194 -1.1750  1.4960
  421SOL    HW2 6111   0.346   0.025   2.837  1.9354 -2.1589  1.9969
  422SOL     OW 6112   1.325   1.453   0.253  0.5752 -0.0151  0.7071
  422SOL    HW1 6113   1.364   1.472   0.168 -0.9556 -0.1968 -0.0625
  422SOL    HW2 6114   1.249   1.511   0.257 -0.7060 -1.6695  0.9198
  423SOL     OW 6115   1.354   0.413   3.626  0.4060 -0.4198  0.2294
  423SOL    HW1 6116   1.283   0.349   3.631 -1.6655  1.8839  1.7361
  423SOL    HW2 6117   1.425   0.373   3.676 -0.9984 -1.3782  1.5252
  424SOL     OW 6118   1.610   9.852   9.586  0.7668 -0.4823 -0.1896
  424SOL    HW1 6119   1.633   9.943   9.603  0.0036 -0.5443  1.2413
  424SOL    HW2 6120   1.694   9.810   9.566  1.5329 -0.0561  1.9530
  425SOL     OW 6121   1.325   1.278   0.839  0.7607 -0.0313 -0.0069
  425SOL    HW1 6122   1.283   1.210   0.787  1.0075  0.1248 -0.4150
  425SOL    HW2 6123   1.355   1.342   0.775  0.5981  0.4245  0.3697
  426SOL     OW 6124   9.978   1.223   0.963  0.1345 -0.3031 -0.1939
  426SOL    HW1 6125   9.925   1.218   0.884  0.1574  0.1758 -0.2383
  426SOL    HW2 6126  10.042   1.292   0.946 -0.5659  0.5755  0.6699
  427SOL     OW 6127   0.543   1.594   9.041  0.5785  0.5979 -0.4633
  427SOL    HW1 6128   0.570   1.601   8.949  0.4702  3.4978 -0.3201
  427SOL    HW2 6129   0.454   1.560   9.037  1.0361 -0.5218 -1.3655
  428SOL     OW 6130   8.643   3.414   1.239 -0.1837  0.3190 -1.1959
  428SOL    HW1 6131   8.687   3.352   1.181  1.3056 -0.0009  0.2438
  428SOL    HW2 6132   8.712   3.445   1.298 -2.1251 -1.2067  1.9929
  429SOL     OW 6133   0.203   1.738   3.056  0.1414 -0.0561  0.1776
  429SOL    HW1 6134   0.160   1.802   3.112 -0.4845 -1.9341  1.9015
  429SOL    HW2 6135   0.279   1.785   3.021  0.2667  1.3355  2.1887
  430SOL     OW 6136   0.682   8.942   9.621  1.1021  0.3007  0.0387
  430SOL    HW1 6137   0.635   8.885   9.561 -0.2745  2.0229 -0.5584
  430SOL    HW2 6138   0.773   8.936   9.593  0.5273  0.7929 -2.0074
  431SOL     OW 6139   1.798   1.193   2.258 -0.0596  0.0170  0.6326
  431SOL    HW1 6140   1.757   1.210   2.342 -0.3312 -0.9729  0.7061
  431SOL    HW2 6141   1.747   1.121   2.220 -0.2960  0.8162 -0.6197
  432SOL     OW 6142   1.233   1.026   0.186 -0.1476 -0.3554 -0.1109
  432SOL    HW1 6143   1.307   1.054   0.240 -1.9666  2.4019  1.0977
  432SOL    HW2 6144   1.260   1.047   0.096  1.1049 -0.7257  0.1727
  433SOL     OW 6145   9.776   0.699   1.918 -0.0992 -0.1449  0.5272
  433SOL    HW1 6146   9.863   0.703   1.876  0.4488  1.1114  1.7332
  433SOL    HW2 6147   9.761   0.606   1.933  0.6903 -0.4382 -0.4263
  434SOL     OW 6148   2.839   3.184   0.308 -0.1734 -0.2097 -0.2467
  434SOL    HW1 6149   2.882   3.124   0.368 -1.1491 -0.7874 -0.1085
  434SOL    HW2 6150   2.789   3.243   0.364 -1.2398 -0.8690 -0.4820
  435SOL     OW 6151   2.630   1.952   3.004 -1.0885  0.4065 -0.0056
  435SOL    HW1 6152   2.621   2.030   3.059  1.6588  0.1358  0.9315
  435SOL    HW2 6153   2.706   1.970   2.948 -0.2339 -1.6684  0.4175
  436SOL     OW 6154   0.789   9.551   1.474  0.0407 -0.1140  0.2971
  436SOL    HW1 6155   0.742   9.518   1.550 -1.3158  0.8377 -0.0983
  436SOL    HW2 6156   0.804   9.473   1.419  1.8932 -0.9605  1.9484
  437SOL     OW 6157   0.606   9.412   2.866  0.5949 -0.1088  0.2277
  437SOL    HW1 6158   0.642   9.501   2.864  2.3023 -0.7684  1.0959
  437SOL    HW2 6159   0.622   9.377   2.778  2.3114 -0.4875  0.6850
  438SOL     OW 6160   9.861   0.673   9.489  0.3092  1.0363 -0.1014
  438SOL    HW1 6161   9.808   0.642   9.416  0.6272 -0.8671  0.4489
  438SOL    HW2 6162   9.856   0.769   9.484 -2.3666  0.8946 -0.6298
  439SOL     OW 6163   0.143   1.062   1.532  0.6352  0.7044 -0.2389
  439SOL    HW1 6164   0.195   0.984   1.548 -0.4791  0.3939  2.0372
  439SOL    HW2 6165   0.061   1.047   1.580 -1.3491  1.4178 -3.3074
  440SOL     OW 6166   1.526   0.069   2.036  0.4700 -0.2140 -0.0318
  440SOL    HW1 6167   1.548   0.087   2.128  0.4811 -0.2966 -0.0177
  440SOL    HW2 6168   1.476   0.146   2.008  0.3286 -0.2586  0.0913
  441SOL     OW 6169   0.747   0.059   1.024  0.0473  0.1441  0.5585
  441SOL    HW1 6170   0.787   0.007   1.095 -2.7327  0.3514  2.3351
  441SOL    HW2 6171   0.688  -0.002   0.980  1.2291  0.2155 -1.2157
  442SOL     OW 6172   0.048   0.006   1.620  0.0712 -0.9642  0.1723
  442SOL    HW1 6173   0.045   0.099   1.644 -0.7703 -1.1291  0.7264
  442SOL    HW2 6174   0.101   0.004   1.540  0.8949 -0.1195  0.6782
  443SOL     OW 6175   2.661   9.890   1.432 -0.1493  0.3150  0.6814
  443SOL    HW1 6176   2.661   9.926   1.521 -0.0136  2.0661 -0.0044
  443SOL    HW2 6177   2.723   9.945   1.384  2.1205 -2.4960  0.2146
  444SOL     OW 6178   0.031   0.667   2.464  0.3180  0.9044  0.1405
  444SOL    HW1 6179  -0.058   0.658   2.498 -0.9617  2.4027 -2.6546
  444SOL    HW2 6180   0.021   0.658   2.369  3.1451  1.1955 -0.2056
  445SOL     OW 6181   9.504   1.067   1.400 -0.2248 -0.3327  0.0668
  445SOL    HW1 6182   9.570   0.998   1.404  0.2769  0.1928  1.6340
  445SOL    HW2 6183   9.490   1.083   1.307 -0.0698 -2.2631 -0.2998
  446SOL     OW 6184   1.077   0.062   0.908 -0.2662 -0.1322 -0.0065
  446SOL    HW1 6185   0.999   0.105   0.943 -1.6754 -1.2139 -1.7032
  446SOL    HW2 6186   1.123   0.131   0.860  0.2237  0.6831  1.6017
  447SOL     OW 6187   3.501   2.092   1.813  0.4697  0.3908 -0.0553
  447SOL    HW1 6188   3.528   2.000   1.817  1.5987  0.7313  0.2856
  447SOL    HW2 6189   3.501   2.121   1.905  2.1622  1.3084 -0.3346
  448SOL     OW 6190   0.560   8.885   2.250  0.6276 -0.0575  0.7411
  448SOL    HW1 6191   0.494   8.821   2.274  0.0233  0.0134 -0.6624
  448SOL    HW2 6192   0.583   8.862   2.159  1.4423  0.8295  0.7181
  449SOL     OW 6193   7.888   0.757   9.695  0.4042  0.2720 -0.3037
  449SOL    HW1 6194   7.877   0.686   9.632  0.0001  0.1101 -0.0560
  449SOL    HW2 6195   7.803   0.764   9.739  0.4277  0.9454 -0.3629
  450SOL     OW 6196   0.460   3.150   2.064 -0.3705 -0.1834  0.4553
  450SOL    HW1 6197   0.390   3.086   2.052 -1.0089  0.5225  0.4561
  450SOL    HW2 6198   0.447   3.184   2.153 -1.3779  1.5873 -0.3546
  451SOL     OW 6199   1.741   2.443   1.870  0.0620 -0.1465  0.2192
  451SOL    HW1 6200   1.670   2.507   1.883 -0.2482 -0.2666 -0.7954
  451SOL    HW2 6201   1.696   2.360   1.854  0.4715 -0.7083  1.9466
  452SOL     OW 6202   1.225   1.929   2.576  0.5787 -0.4254  0.2300
  452SOL    HW1 6203   1.247   1.984   2.501  0.0397 -0.1708  0.2524
  452SOL    HW2 6204   1.306   1.884   2.598  0.5612 -1.0281 -0.9366
  453SOL     OW 6205   0.258   1.463   0.322 -0.7125  0.3423  0.5179
  453SOL    HW1 6206   0.217   1.544   0.350 -0.3851  0.6517  0.0955
  453SOL    HW2 6207   0.236   1.455   0.230  0.0713  0.4458  0.3207
  454SOL     OW 6208   0.638   9.770   2.440 -0.0222  0.7498  0.1891
  454SOL    HW1 6209   0.609   9.707   2.375 -0.0199 -0.9936  1.8219
  454SOL    HW2 6210   0.731   9.783   2.421  0.3058 -0.8005  0.6574
  455SOL     OW 6211   0.305   1.186   2.116  0.3302  0.5061 -0.1548
  455SOL    HW1 6212   0.315   1.153   2.027 -0.7817  0.0230 -0.1058
  455SOL    HW2 6213   0.326   1.111   2.172 -0.4064  0.3938 -0.0277
  456SOL     OW 6214   2.176   0.635   8.852  0.7290 -0.4145 -0.0803
  456SOL    HW1 6215   2.095   0.665   8.811 -0.0739  1.0442  2.4555
  456SOL    HW2 6216   2.150   0.559   8.904  1.1151 -0.3352  0.2327
  457SOL     OW 6217   1.693   1.046   0.117  0.5903 -0.2497  0.3631
  457SOL    HW1 6218   1.725   1.076   0.202  0.5218  0.0811  0.2724
  457SOL    HW2 6219   1.771   1.043   0.061  0.5960 -0.2317  0.3701
  458SOL     OW 6220   9.972   9.365   0.334 -0.4524  0.2489 -0.7083
  458SOL    HW1 6221   9.912   9.306   0.380  3.9599 -2.7623  1.4791
  458SOL    HW2 6222   9.963   9.449   0.381 -0.0908 -1.2376  2.1079
  459SOL     OW 6223   1.364   0.475   0.753 -0.2161  0.2386 -0.2431
  459SOL    HW1 6224   1.328   0.543   0.811  0.2426 -0.2626  0.6246
  459SOL    HW2 6225   1.458   0.487   0.757 -0.2150  0.7784 -1.5978
  460SOL     OW 6226   0.519   1.485   1.672 -0.7110  0.0679 -0.4074
  460SOL    HW1 6227   0.583   1.418   1.648  0.2298  1.0361 -0.6242
  460SOL    HW2 6228   0.508   1.476   1.766  0.8613  0.8734 -0.1409
  461SOL     OW 6229   0.441   0.960   9.105 -0.3147  0.0986 -0.1749
  461SOL    HW1 6230   0.399   0.893   9.159 -0.9131 -0.3748 -1.2153
  461SOL    HW2 6231   0.534   0.943   9.115 -0.4591 -0.8423 -0.3745
  462SOL     OW 6232   1.215   1.320   2.167 -0.0128 -0.2670  0.5644
  462SOL    HW1 6233   1.132   1.361   2.192  0.1722  0.6987 -0.3500
  462SOL    HW2 6234   1.190   1.236   2.129 -0.6558  0.3933 -0.5028
  463SOL     OW 6235   1.223   1.251   1.427 -0.4079 -0.3421 -0.6724
  463SOL    HW1 6236   1.236   1.212   1.514  1.2490  0.2153 -0.6461
  463SOL    HW2 6237   1.248   1.181   1.366 -0.7979 -0.4658 -0.6929
  464SOL     OW 6238   0.299   9.127   0.670  0.6911  0.3814 -0.2347
  464SOL    HW1 6239   0.340   9.191   0.728  2.5809  0.4276 -1.5610
  464SOL    HW2 6240   0.279   9.176   0.590 -0.3171 -0.0608 -0.2599
  465SOL     OW 6241   1.139   9.882   1.324 -0.2297 -0.5224  0.8787
  465SOL    HW1 6242   1.147   9.932   1.406  1.6318 -1.4245  1.2678
  465SOL    HW2 6243   1.227   9.849   1.307 -0.2538  0.9971 -2.3856
  466SOL     OW 6244   9.429   1.493   1.480 -0.0493 -0.1465 -0.1579
  466SOL    HW1 6245   9.372   1.557   1.523 -0.1966 -1.2097  1.2647
  466SOL    HW2 6246   9.390   1.482   1.393 -1.0571  0.3622  0.2165
  467SOL     OW 6247   0.172   0.136   1.933 -0.0174 -0.0429  0.3870
  467SOL    HW1 6248   0.185   0.205   1.868  0.7163 -0.5999 -0.0728
  467SOL    HW2 6249   0.208   0.057   1.891  1.2963 -0.2265  1.8119
  468SOL     OW 6250   0.285   2.007   2.064  0.0531  0.1619 -0.6245
  468SOL    HW1 6251   0.215   2.054   2.018 -0.4610  0.2927  0.2798
  468SOL    HW2 6252   0.244   1.977   2.145  0.8934 -0.2477 -0.3495
  469SOL     OW 6253   1.456   0.855   0.977  0.1930 -0.2164 -0.2600
  469SOL    HW1 6254   1.480   0.862   1.070  0.8106  0.3548 -0.4616
  469SOL    HW2 6255   1.404   0.774   0.972  0.8880 -0.7091  0.4194
  470SOL     OW 6256   3.597   9.208   1.825 -0.0754  0.1687  0.1450
  470SOL    HW1 6257   3.505   9.198   1.799  0.2549 -1.6007 -0.4648
  470SOL    HW2 6258   3.639   9.247   1.748  0.3769 -2.5502 -1.0637
  471SOL     OW 6259   9.759   0.924   9.715 -0.3534  0.8398  0.1180
  471SOL    HW1 6260   9.746   0.943   9.622  0.1492  0.8027  0.0391
  471SOL    HW2 6261   9.854   0.930   9.727 -0.1612 -1.7460  0.0587
  472SOL     OW 6262   2.659   9.412   8.974  0.2762 -0.0081 -0.0322
  472SOL    HW1 6263   2.593   9.347   8.997 -0.8062  1.4365  1.0229
  472SOL    HW2 6264   2.742   9.372   9.000 -0.3671 -0.9842  0.5408
  473SOL     OW 6265   0.048   8.709   1.663  0.3622 -0.6504 -0.6963
  473SOL    HW1 6266   0.024   8.763   1.588  1.2654  0.9153  0.1243
  473SOL    HW2 6267   0.054   8.770   1.736 -1.1847 -2.2510  0.8336
  474SOL     OW 6268   0.479   2.098   0.326  0.5658  0.6777  0.4055
  474SOL    HW1 6269   0.445   2.048   0.252  1.6428  1.7968 -0.8596
  474SOL    HW2 6270   0.408   2.098   0.390 -0.4977 -0.0052 -0.7724
  475SOL     OW 6271   0.820   1.453   1.903 -0.2646 -0.3916 -1.0473
  475SOL    HW1 6272   0.804   1.533   1.852  0.8210 -0.5026 -1.5596
  475SOL    HW2 6273   0.732   1.420   1.924 -0.7379  1.2881 -0.2733
  476SOL     OW 6274   0.289   2.572   1.065  0.2848 -0.2036 -0.7232
  476SOL    HW1 6275   0.365   2.564   1.123 -0.1185 -0.3595 -0.2180
  476SOL    HW2 6276   0.283   2.665   1.045 -0.7694  0.1317  1.0834
  477SOL     OW 6277   2.701   9.527   1.008 -0.6315  0.3086 -0.1724
  477SOL    HW1 6278   2.653   9.575   1.075 -1.6737 -0.7466 -0.1370
  477SOL    HW2 6279   2.644   9.529   0.931  0.5359  1.4779 -1.0272
  478SOL     OW 6280   0.312   9.744   0.653  0.4585 -0.9391 -0.1340
  478SOL    HW1 6281   0.336   9.714   0.740  0.4676 -1.4494 -0.3130
  478SOL    HW2 6282   0.367   9.822   0.639 -2.9620  2.0457  2.2398
  479SOL     OW 6283   0.877   0.891   0.912 -0.1048 -0.4346  0.8914
  479SOL    HW1 6284   0.929   0.901   0.833 -0.7941 -1.4657  0.3054
  479SOL    HW2 6285   0.799   0.943   0.896 -0.6670 -1.3913  0.5197
  480SOL     OW 6286   0.460   9.999   0.637 -0.4746 -0.3898  0.8090
  480SOL    HW1 6287   0.415  10.049   0.705 -0.3275  2.0105 -0.8253
  480SOL    HW2 6288   0.552  10.026   0.645 -0.0106 -2.0216  1.2859
  481SOL     OW 6289   2.294   8.502   2.077  0.1661 -0.3108  0.5511
  481SOL    HW1 6290   2.342   8.583   2.059  1.0495 -1.0614 -0.4936
  481SOL    HW2 6291   2.225   8.529   2.138 -0.2786  1.4666 -0.6719
  482SOL     OW 6292   0.550   1.311   1.344  0.8814 -0.2155  0.0211
  482SOL    HW1 6293   0.478   1.288   1.403 -0.1865  0.1992 -1.0843
  482SOL    HW2 6294   0.598   1.230   1.331 -1.1239 -1.2013 -1.5386
  483SOL     OW 6295   1.534   9.367   2.156  0.0972  0.1367  0.0226
  483SOL    HW1 6296   1.523   9.457   2.124  1.2344  0.2947  0.0494
  483SOL    HW2 6297   1.628   9.350   2.146  0.0291 -0.7323  0.8618
  484SOL     OW 6298   9.817   0.100   9.608 -0.1091  0.1424  0.1938
  484SOL    HW1 6299   9.788   0.094   9.699  2.5983  0.6405  1.1438
  484SOL    HW2 6300   9.865   0.183   9.604  1.7972 -0.9897 -1.0662
  485SOL     OW 6301   1.286   0.934   1.525 -0.2853 -0.2315 -0.1552
  485SOL    HW1 6302   1.340   0.988   1.582  0.2538 -0.1819 -0.7081
  485SOL    HW2 6303   1.284   0.848   1.567 -0.9280  0.1424  0.5857
  486SOL     OW 6304   2.054   0.927   9.150  0.3845  0.1103  0.0740
  486SOL    HW1 6305   2.128   0.963   9.199  1.0172 -1.5101  0.3162
  486SOL    HW2 6306   2.059   0.969   9.064  2.1257 -0.6726 -0.2189
  487SOL     OW 6307   9.264   1.733   2.103 -0.6888 -0.3262 -0.5845
  487SOL    HW1 6308   9.285   1.640   2.100  1.2559  0.0537  0.3958
  487SOL    HW2 6309   9.211   1.744   2.182 -0.0114 -0.4388 -0.1120
  488SOL     OW 6310   0.983   0.529   1.058  0.1807  0.0987  0.0003
  488SOL    HW1 6311   1.044   0.476   1.109  0.4951  0.4982  0.0423
  488SOL    HW2 6312   0.912   0.551   1.120 -0.8697 -1.7969 -0.5178
  489SOL     OW 6313   1.596   0.966   2.135 -0.3685  0.3214 -0.1244
  489SOL    HW1 6314   1.623   0.888   2.086  0.5844  0.8529 -0.4713
  489SOL    HW2 6315   1.503   0.975   2.117 -0.5575 -0.9114  0.1641
  490SOL     OW 6316   1.578   2.189   0.461  0.3205  0.3791 -0.6605
  490SOL    HW1 6317   1.657   2.149   0.497 -0.2572  0.9951  1.4122
  490SOL    HW2 6318   1.511   2.121   0.470  0.2001  0.4934 -0.6956
  491SOL     OW 6319   1.660   1.716   1.645 -0.5177 -0.1396  0.2437
  491SOL    HW1 6320   1.609   1.797   1.650 -1.1348 -0.4518 -0.9429
  491SOL    HW2 6321   1.653   1.677   1.733 -0.6810  0.7981  0.6511
  492SOL     OW 6322   0.231   1.467   1.180 -0.4031  0.0447 -0.1572
  492SOL    HW1 6323   0.244   1.390   1.235  1.0856 -0.8669 -1.7504
  492SOL    HW2 6324   0.217   1.539   1.242 -1.7113 -1.4661  1.3511
  493SOL     OW 6325   1.099   2.070   3.836  0.0765 -0.5282  0.1658
  493SOL    HW1 6326   1.134   2.088   3.749 -0.0109 -0.9984  0.0316
  493SOL    HW2 6327   1.176   2.063   3.892  0.1192  0.0916  0.1900
  494SOL     OW 6328   7.856   9.231   9.235 -0.2399 -0.1746 -0.1612
  494SOL    HW1 6329   7.787   9.292   9.208  0.7379  0.2411 -1.7684
  494SOL    HW2 6330   7.828   9.200   9.321 -0.6225  2.7844  0.8554
  495SOL     OW 6331   9.700   1.425   1.159  0.4007  0.2471  0.2314
  495SOL    HW1 6332   9.711   1.467   1.074 -1.0918 -2.7631 -1.5350
  495SOL    HW2 6333   9.615   1.381   1.153  1.1034 -1.5188  2.5880
  496SOL     OW 6334   0.545   1.028   1.725 -0.3969  0.1384  0.5306
  496SOL    HW1 6335   0.552   1.049   1.818  1.3837 -1.4962  0.8100
  496SOL    HW2 6336   0.510   0.939   1.723  1.6238 -0.6649 -0.2647
  497SOL     OW 6337   0.601   2.307   1.683 -0.3295 -0.0205  0.0049
  497SOL    HW1 6338   0.564   2.218   1.677  1.3989 -0.7409 -0.2800
  497SOL    HW2 6339   0.641   2.321   1.597  2.0249 -0.1579  1.0477
  498SOL     OW 6340   1.800   1.719   0.025 -0.0260 -0.0535  0.2426
  498SOL    HW1 6341   1.837   1.675   0.101 -1.7633 -1.1948  0.4415
  498SOL    HW2 6342   1.793   1.811   0.051 -0.1408 -0.3498  1.2727
  499SOL     OW 6343   0.510   0.677   0.182 -0.3812  0.2083  0.0634
  499SOL    HW1 6344   0.481   0.714   0.265 -0.4828  1.4325 -0.5093
  499SOL    HW2 6345   0.433   0.632   0.147 -1.3391  2.5693 -0.9607
  500SOL     OW 6346   2.090   1.323   1.503 -0.3209 -0.2082 -0.2962
  500SOL    HW1 6347   2.007   1.300   1.461  0.3887 -0.1006 -1.8174
  500SOL    HW2 6348   2.138   1.241   1.508 -0.7010 -0.3613  1.0402
  501SOL     OW 6349   1.236   0.722   2.054  0.4554 -0.1624 -0.8782
  501SOL    HW1 6350   1.312   0.665   2.044  0.6046  0.0283 -0.8272
  501SOL    HW2 6351   1.189   0.685   2.130  0.3146 -0.4803 -1.1147
  502SOL     OW 6352   1.879   0.688   9.616 -0.3040 -0.9512  0.1965
  502SOL    HW1 6353   1.900   0.647   9.700  0.6914 -0.5718  0.1363
  502SOL    HW2 6354   1.785   0.707   9.622  0.1181  0.7965  1.9896
  503SOL     OW 6355   9.487   1.083   1.059  0.2686 -0.6873  0.2968
  503SOL    HW1 6356   9.461   1.088   0.968  2.8807  0.8904 -0.4166
  503SOL    HW2 6357   9.573   1.041   1.058  0.6927  0.0758  1.9526
  504SOL     OW 6358   1.361   9.675   1.333  0.0916  0.6364 -0.6639
  504SOL    HW1 6359   1.408   9.613   1.279  0.0098 -0.1591  0.1745
  504SOL    HW2 6360   1.414   9.684   1.412  0.1998  1.7773 -0.8528
  505SOL     OW 6361   9.222   0.132   1.569  0.6342  0.4165 -0.3908
  505SOL    HW1 6362   9.184   0.045   1.577  1.5491  0.1921  1.7623
  505SOL    HW2 6363   9.146   0.190   1.557 -0.1751 -0.3507  0.9808
  506SOL     OW 6364   0.328   0.174   3.114 -0.1344 -0.1349 -0.5570
  506SOL    HW1 6365   0.335   0.267   3.136  2.7288 -0.5141  0.4355
  506SOL    HW2 6366   0.259   0.141   3.171  1.8170  0.5351  2.3331
  507SOL     OW 6367   1.272   2.796   0.762 -0.2386 -0.4947  0.0631
  507SOL    HW1 6368   1.268   2.722   0.702  0.5553  0.2137 -0.8658
  507SOL    HW2 6369   1.340   2.853   0.728 -1.0000  0.8014  0.6171
  508SOL     OW 6370   0.998   9.547   9.607  0.4837 -0.0766 -0.0067
  508SOL    HW1 6371   0.996   9.639   9.632 -0.6482 -0.4330  1.3011
  508SOL    HW2 6372   1.029   9.502   9.685  0.3939 -0.8801 -0.4300
  509SOL     OW 6373   9.678   1.118   1.910  0.3293 -0.1430 -0.4765
  509SOL    HW1 6374   9.744   1.065   1.955 -0.3887 -0.3422  0.3624
  509SOL    HW2 6375   9.629   1.055   1.858  1.2973  0.1173 -1.7348
  510SOL     OW 6376   1.461   0.361   1.332  0.3752  0.3943 -0.0950
  510SOL    HW1 6377   1.539   0.399   1.373  0.6289 -0.2611  0.0363
  510SOL    HW2 6378   1.474   0.375   1.238  0.6849  0.2303 -0.0776
  511SOL     OW 6379   0.166   1.742   0.825 -0.3239 -0.3000 -0.3587
  511SOL    HW1 6380   0.113   1.751   0.746 -2.0322  0.6015  0.8465
  511SOL    HW2 6381   0.115   1.787   0.893  2.1757  0.9207  0.7643
  512SOL     OW 6382   1.480   9.762   0.571  0.0827 -0.1731  0.1532
  512SOL    HW1 6383   1.485   9.778   0.665 -2.9585  1.4280  0.0851
  512SOL    HW2 6384   1.389   9.782   0.547  0.9128 -0.0358 -3.2020
  513SOL     OW 6385   1.099   1.514   1.043 -0.2249  0.0216 -0.2498
  513SOL    HW1 6386   1.172   1.570   1.067 -0.4580  0.8248 -1.4047
  513SOL    HW2 6387   1.073   1.544   0.956 -2.7484  0.6183  0.6657
  514SOL     OW 6388   9.944   0.942   1.361  0.0117  0.6153  0.5834
  514SOL    HW1 6389   9.968   0.917   1.272  0.2232  0.6317  0.6350
  514SOL    HW2 6390   9.990   1.024   1.377 -0.4766  0.9065  0.5088
  515SOL     OW 6391   1.719   1.836   0.896 -0.3619  0.1329 -0.2812
  515SOL    HW1 6392   1.628   1.825   0.922 -0.0800 -1.5002  0.0878
  515SOL    HW2 6393   1.719   1.913   0.840 -2.1560 -0.4538 -1.1275
  516SOL     OW 6394   1.572   9.787   1.960 -0.6401 -0.1775 -0.6850
  516SOL    HW1 6395   1.506   9.759   1.896 -1.1933 -0.9544  0.2023
  516SOL    HW2 6396   1.540   9.871   1.993 -1.7240 -1.0169  0.4589
  517SOL     OW 6397   1.760   0.436   0.066  0.3669 -0.3763  0.0875
  517SOL    HW1 6398   1.746   0.529   0.050 -0.9174  0.0276  3.2619
  517SOL    HW2 6399   1.848   0.419   0.034 -0.0915  1.4834 -2.2592
  518SOL     OW 6400   9.513   0.839   9.325 -0.0015  0.2509  0.5167
  518SOL    HW1 6401   9.438   0.851   9.383 -0.4505  1.0998 -0.2311
  518SOL    HW2 6402   9.588   0.870   9.376 -0.1559 -0.5343  1.2382
  519SOL     OW 6403   1.310   1.329   9.804  0.6695 -0.1895 -0.4086
  519SOL    HW1 6404   1.382   1.284   9.848  1.0861  0.4864 -0.3885
  519SOL    HW2 6405   1.296   1.408   9.856  0.2090 -0.0916 -0.6733
  520SOL     OW 6406   0.951   1.347   1.315  0.3997  0.1126 -0.4812
  520SOL    HW1 6407   0.915   1.264   1.286 -1.3670  0.9769 -0.8630
  520SOL    HW2 6408   1.039   1.326   1.346 -0.4193 -2.0699  0.4463
  521SOL     OW 6409   2.172   9.874   2.292  0.2257  0.1244  0.1080
  521SOL    HW1 6410   2.089   9.903   2.255  0.4583 -0.0053 -0.5174
  521SOL    HW2 6411   2.211   9.820   2.224 -0.6177 -2.4703  1.6254
  522SOL     OW 6412   2.826   7.582   2.240  0.4575 -1.0814  0.1452
  522SOL    HW1 6413   2.747   7.630   2.216  0.4047 -1.6434 -0.8394
  522SOL    HW2 6414   2.805   7.541   2.323  0.3141  0.1536  0.7292
  523SOL     OW 6415   0.064   1.675   0.407 -0.4965  0.4054  0.1339
  523SOL    HW1 6416   0.087   1.766   0.426 -2.2594  0.8298  0.3801
  523SOL    HW2 6417  -0.023   1.664   0.446  0.3439 -1.8512  1.4609
  524SOL     OW 6418   1.521   1.639   9.493  0.9226 -0.1622  0.4666
  524SOL    HW1 6419   1.523   1.722   9.540 -2.3398 -0.7005  1.6735
  524SOL    HW2 6420   1.540   1.573   9.560 -0.7263 -0.6958  0.4223
  525SOL     OW 6421   1.205   0.748   0.283 -0.1606  0.4842 -0.2008
  525SOL    HW1 6422   1.110   0.735   0.294 -0.3187  0.7835 -1.1265
  525SOL    HW2 6423   1.211   0.824   0.225  0.6098 -0.9293 -2.0127
  526SOL     OW 6424   1.153   0.025   1.611  0.1460  0.1539 -0.1085
  526SOL    HW1 6425   1.131   0.114   1.639  1.8605  0.6242 -0.1971
  526SOL    HW2 6426   1.078  -0.028   1.639 -0.6302  1.5236  0.4680
  527SOL     OW 6427   0.537   0.259   0.975  0.0194 -0.4689  0.0203
  527SOL    HW1 6428   0.626   0.225   0.989  0.2347 -0.2265 -0.7245
  527SOL    HW2 6429   0.489   0.234   1.054  1.1252  0.6408  1.0814
  528SOL     OW 6430   1.985   1.035   2.085 -0.4272  0.0557  0.2246
  528SOL    HW1 6431   1.985   0.944   2.115 -2.2968 -0.4375 -1.1849
  528SOL    HW2 6432   2.037   1.034   2.005 -1.5516 -0.0468 -0.5174
  529SOL     OW 6433   1.189   1.893   0.190  0.5455  0.4169 -0.1545
  529SOL    HW1 6434   1.217   1.932   0.273 -1.0681 -0.6922  0.9188
  529SOL    HW2 6435   1.166   1.968   0.135 -1.3295  1.0403  1.4553
  530SOL     OW 6436   1.366   0.095   1.400  0.4690 -0.1246  0.4405
  530SOL    HW1 6437   1.299   0.097   1.468  0.2283  0.5155  0.1879
  530SOL    HW2 6438   1.361   0.182   1.359  1.6693  0.0414  0.6323
  531SOL     OW 6439   9.167   2.148   1.877 -0.1922  0.0516  0.3696
  531SOL    HW1 6440   9.199   2.228   1.836  0.3636 -0.6058 -0.5128
  531SOL    HW2 6441   9.169   2.166   1.971  2.2116  0.2494  0.3113
  532SOL     OW 6442   0.426   0.213   1.548  0.1382 -0.5932  0.0970
  532SOL    HW1 6443   0.353   0.216   1.486  1.0347 -1.9555 -1.0411
  532SOL    HW2 6444   0.418   0.294   1.598 -2.0360 -0.6305 -0.1439
  533SOL     OW 6445   1.224   0.417   0.214  0.1273  0.1540  0.4328
  533SOL    HW1 6446   1.251   0.326   0.204 -2.1644 -0.4612 -0.4095
  533SOL    HW2 6447   1.181   0.420   0.300 -1.7635 -0.1103 -0.4631
  534SOL     OW 6448   9.828   1.283   0.733 -0.2324 -0.1727  0.3437
  534SOL    HW1 6449   9.735   1.266   0.724 -0.0081 -1.2199 -0.0523
  534SOL    HW2 6450   9.837   1.377   0.718 -1.1091 -0.2209 -0.4867
  535SOL     OW 6451   0.850   0.068   2.314 -0.2266 -0.5007 -0.3749
  535SOL    HW1 6452   0.857  -0.028   2.307 -1.2728 -0.6840  0.7251
  535SOL    HW2 6453   0.936   0.101   2.287  0.5613 -1.8296  0.4468
  536SOL     OW 6454   1.379   1.333   1.186  0.2129  0.5733  0.0080
  536SOL    HW1 6455   1.327   1.263   1.146  1.1331  1.0668 -2.1463
  536SOL    HW2 6456   1.385   1.309   1.278 -2.0005 -0.6061 -0.1104
  537SOL     OW 6457   1.993   0.766   1.073  0.5428 -0.0238  0.3153
  537SOL    HW1 6458   1.935   0.705   1.026  1.6541 -0.8957  0.0385
  537SOL    HW2 6459   2.006   0.839   1.012  0.7084 -0.4075 -0.1141
  538SOL     OW 6460   0.389   1.321   2.913  0.5698 -0.0376 -0.1625
  538SOL    HW1 6461   0.450   1.269   2.965  2.3396  1.0001 -1.1311
  538SOL    HW2 6462   0.384   1.405   2.959  1.0609  0.3955 -0.8826
  539SOL     OW 6463   8.683   2.216   0.103  0.0579  0.1614  0.4837
  539SOL    HW1 6464   8.660   2.175   0.019  0.7083 -1.6558  1.1755
  539SOL    HW2 6465   8.648   2.305   0.096  0.0811  0.0354 -1.7130
  540SOL     OW 6466   0.093   2.167   1.968  0.5403  0.7490  0.4244
  540SOL    HW1 6467   0.120   2.258   1.959 -0.1754  0.8320 -0.8753
  540SOL    HW2 6468  -0.002   2.168   1.957  0.6396 -0.2841 -0.6967
  541SOL     OW 6469   1.679   1.027   1.294 -0.6965  0.4727  0.7229
  541SOL    HW1 6470   1.695   0.993   1.206  1.0590  0.6533  0.9686
  541SOL    HW2 6471   1.717   1.115   1.294  0.1168  0.1295  1.9356
  542SOL     OW 6472   2.197   0.584   0.020  0.4024 -0.0132 -0.6584
  542SOL    HW1 6473   2.229   0.495   0.004 -4.4691 -1.6217 -2.6244
  542SOL    HW2 6474   2.191   0.590   0.115  1.7557 -1.3992 -0.4572
  543SOL     OW 6475   1.368   1.727   9.915 -0.5560  0.0655  0.2851
  543SOL    HW1 6476   1.323   1.644   9.933  3.2256 -1.8684  1.3579
  543SOL    HW2 6477   1.399   1.756  10.000  0.5748  1.1268 -0.4826
  544SOL     OW 6478   8.394   1.336   3.283 -0.3833 -0.0841 -0.5977
  544SOL    HW1 6479   8.372   1.305   3.371  1.0351  1.0249  0.1627
  544SOL    HW2 6480   8.393   1.432   3.290 -2.0064  0.0596 -2.2379
  545SOL     OW 6481   0.491   1.581   1.274  0.4431  0.0656 -0.9330
  545SOL    HW1 6482   0.568   1.526   1.284  1.3218  1.6547  1.4683
  545SOL    HW2 6483   0.436   1.559   1.349 -0.3399  0.6422 -1.3345
  546SOL     OW 6484   0.976   2.243   0.181  0.1239  0.0388 -0.1684
  546SOL    HW1 6485   0.897   2.194   0.206 -0.2564 -0.0352 -1.4764
  546SOL    HW2 6486   1.016   2.190   0.112 -0.5645  1.7858 -1.9568
  547SOL     OW 6487   0.991   1.486   2.134  0.0267 -0.7045  0.0423
  547SOL    HW1 6488   0.907   1.493   2.179 -0.0932  1.9174 -0.5584
  547SOL    HW2 6489   0.968   1.457   2.046 -0.2624  0.3606 -0.2276
  548SOL     OW 6490   0.342   2.314   3.047 -0.5852  0.6386  0.0554
  548SOL    HW1 6491   0.409   2.371   3.008 -1.0973  1.1814 -0.0177
  548SOL    HW2 6492   0.371   2.302   3.138 -0.3991  0.8902  0.0303
  549SOL     OW 6493   0.911   9.899   1.610  0.0933 -0.0353  0.6346
  549SOL    HW1 6494   0.870   9.977   1.647 -0.1430  0.5323 -0.8233
  549SOL    HW2 6495   0.838   9.844   1.583  0.2310  1.5761 -3.2379
  550SOL     OW 6496   0.586   0.941   9.558  0.1861 -0.4322  0.3430
  550SOL    HW1 6497   0.543   0.895   9.630  2.4471 -1.7114  0.9192
  550SOL    HW2 6498   0.669   0.894   9.545  1.2133  1.6684 -1.0205
  551SOL     OW 6499   0.341   1.208   0.148 -0.5982 -0.4573 -0.0668
  551SOL    HW1 6500   0.341   1.112   0.146 -0.9004 -0.4544 -0.2542
  551SOL    HW2 6501   0.315   1.234   0.059  0.5093 -0.1924 -0.3194
  552SOL     OW 6502   0.531   1.006   3.849 -0.8315 -0.1844 -0.0993
  552SOL    HW1 6503   0.548   0.997   3.756 -0.1663  0.2856 -0.0286
  552SOL    HW2 6504   0.618   1.004   3.890 -1.1800 -1.5764  0.6159
  553SOL     OW 6505   9.015   0.104   9.409  0.6505  0.7743 -0.2057
  553SOL    HW1 6506   8.938   0.094   9.353 -0.4804 -1.4840  1.6675
  553SOL    HW2 6507   9.086   0.062   9.361  0.3071  1.2116 -1.1137
  554SOL     OW 6508   1.727   0.242   0.977  0.6250  0.1919  0.3362
  554SOL    HW1 6509   1.637   0.275   0.973 -0.0138 -1.4205  0.9763
  554SOL    HW2 6510   1.761   0.256   0.889  0.0359  1.6089  0.3204
  555SOL     OW 6511   0.551   0.972   2.440 -0.6757  0.6249 -0.3500
  555SOL    HW1 6512   0.596   1.039   2.390 -1.5894  2.3173  1.0500
  555SOL    HW2 6513   0.551   1.004   2.530  0.5582 -2.1529  0.6956
  556SOL     OW 6514   2.664   1.822   1.846 -0.4381 -0.4873  0.0820
  556SOL    HW1 6515   2.649   1.765   1.921  2.0143 -1.1855  0.0648
  556SOL    HW2 6516   2.675   1.763   1.772  0.5079  0.0565 -0.2208
  557SOL     OW 6517   3.650   3.176   3.140 -0.3222 -0.2287  0.3843
  557SOL    HW1 6518   3.566   3.207   3.105  0.0305  0.3754  0.0670
  557SOL    HW2 6519   3.709   3.178   3.064  0.0126 -0.5356  0.6371
  558SOL     OW 6520   9.053   9.751   2.922  0.4613  0.0158 -0.2414
  558SOL    HW1 6521   9.101   9.700   2.988  1.1445  0.3214 -0.4927
  558SOL    HW2 6522   9.044   9.837   2.962 -0.4734 -0.2305  0.0786
  559SOL     OW 6523   1.001   0.493   1.845 -0.1749 -0.0470 -0.2693
  559SOL    HW1 6524   0.970   0.575   1.883 -0.6347  0.2715 -1.3262
  559SOL    HW2 6525   1.032   0.442   1.921 -0.1771  0.9647  0.4248
  560SOL     OW 6526   1.748   9.724   0.729  0.4221 -0.3307 -0.8238
  560SOL    HW1 6527   1.696   9.700   0.805  0.5436 -1.9180 -1.2102
  560SOL    HW2 6528   1.774   9.814   0.745 -0.1455 -0.4155  0.6766
  561SOL     OW 6529   9.680   1.850   0.824 -0.2244 -0.1816 -0.0285
  561SOL    HW1 6530   9.764   1.846   0.870 -0.4708  1.3979  0.5986
  561SOL    HW2 6531   9.703   1.847   0.732  0.5797  0.9560  0.1248
  562SOL     OW 6532   1.343   8.120   2.336  0.1248 -0.1542  0.1932
  562SOL    HW1 6533   1.397   8.041   2.326 -1.3632 -1.2269  0.6070
  562SOL    HW2 6534   1.395   8.176   2.394  1.3167 -0.7044 -0.3070
  563SOL     OW 6535   1.262   0.684   1.765  0.6479  0.1483  0.6370
  563SOL    HW1 6536   1.241   0.648   1.851  2.2689 -0.8179  0.6446
  563SOL    HW2 6537   1.339   0.739   1.780  1.1922 -0.3576 -0.2720
  564SOL     OW 6538   2.123   9.304   2.900 -0.0360 -0.3262  0.1200
  564SOL    HW1 6539   2.057   9.310   2.831  0.3196 -1.1729 -0.2981
  564SOL    HW2 6540   2.195   9.360   2.870 -0.6648  0.8310  0.7136
  565SOL     OW 6541   1.217   1.072   0.636  0.0810 -0.1956  0.6343
  565SOL    HW1 6542   1.223   1.137   0.566 -0.2875 -1.5552 -0.6920
  565SOL    HW2 6543   1.290   1.013   0.621 -0.4411 -0.9353  0.9441
  566SOL     OW 6544   1.870   0.177   9.006  0.1056 -0.6822  0.5828
  566SOL    HW1 6545   1.826   0.256   8.973 -0.8794 -1.8312 -0.9654
  566SOL    HW2 6546   1.897   0.199   9.094  0.9984  1.8444 -0.2889
  567SOL     OW 6547   0.206   1.241   1.329 -0.5616  0.3227  0.4775
  567SOL    HW1 6548   0.143   1.203   1.267  1.0546 -1.8059  0.0870
  567SOL    HW2 6549   0.209   1.179   1.401  0.3662  0.9134  0.9551
  568SOL     OW 6550   0.434   1.498   1.013 -0.0801  0.5925  0.3570
  568SOL    HW1 6551   0.458   1.522   1.103 -0.4518  0.8680  0.3825
  568SOL    HW2 6552   0.340   1.484   1.016 -0.0394  0.2641  0.0835
  569SOL     OW 6553   0.956   0.450   2.278  0.3991 -0.1855  0.2634
  569SOL    HW1 6554   0.891   0.407   2.332 -1.2217  0.9372 -0.7554
  569SOL    HW2 6555   0.949   0.543   2.300  0.0039  0.2324 -1.5640
  570SOL     OW 6556   9.887   1.296   1.312  0.9945  0.5168  0.2620
  570SOL    HW1 6557   9.801   1.322   1.279  0.1699 -2.3428  0.0770
  570SOL    HW2 6558   9.946   1.309   1.237  0.6760  2.0184  0.2466
  571SOL     OW 6559   1.179   1.653   0.768 -0.1540  0.0604  0.3749
  571SOL    HW1 6560   1.238   1.621   0.700 -1.1954  2.5287 -1.7612
  571SOL    HW2 6561   1.226   1.727   0.807 -1.3428  1.3678 -0.6198
  572SOL     OW 6562   9.866   9.553   0.945 -0.2408 -0.4137 -0.5310
  572SOL    HW1 6563   9.910   9.468   0.953 -0.3467 -0.4904 -0.7437
  572SOL    HW2 6564   9.904   9.606   1.015 -0.2702 -0.6806 -0.3097
  573SOL     OW 6565   8.739   1.320   1.317 -0.2813 -0.2379 -0.0703
  573SOL    HW1 6566   8.794   1.253   1.277  0.7793  1.9168 -2.2906
  573SOL    HW2 6567   8.800   1.383   1.354 -1.2436  1.0633 -0.6593
  574SOL     OW 6568   2.049   1.357   0.969  0.3343  0.7118  0.1843
  574SOL    HW1 6569   2.104   1.433   0.948 -0.3965  0.5251 -2.5787
  574SOL    HW2 6570   1.964   1.395   0.991  0.7877  0.8404  1.7774
  575SOL     OW 6571   0.678   1.086   0.043  0.3557 -0.1931 -0.4791
  575SOL    HW1 6572   0.648   1.104  -0.046 -3.3068 -1.2986  0.4520
  575SOL    HW2 6573   0.713   1.169   0.074 -0.0874  0.6913 -2.3028
  576SOL     OW 6574   9.034   0.887   1.185  0.2094  0.6506 -0.5857
  576SOL    HW1 6575   8.988   0.811   1.222 -1.3196  0.9249 -1.8233
  576SOL    HW2 6576   9.098   0.849   1.125 -1.1055  0.3068 -1.8187
  577SOL     OW 6577   2.024   0.992   1.620 -1.1170 -0.3026  0.6263
  577SOL    HW1 6578   2.085   0.926   1.589 -1.1698 -0.0277 -0.0786
  577SOL    HW2 6579   2.070   1.036   1.692  0.0173  0.7495 -0.7308
  578SOL     OW 6580   0.724   0.842   0.506  1.0195 -0.5303  0.3625
  578SOL    HW1 6581   0.788   0.888   0.559  0.5381  0.4398  0.1115
  578SOL    HW2 6582   0.686   0.776   0.564 -1.4278  2.2569  2.0684
  579SOL     OW 6583   2.504   1.915   9.363 -0.4814  0.4435 -0.0380
  579SOL    HW1 6584   2.526   1.935   9.454  0.4327 -0.8200  0.0291
  579SOL    HW2 6585   2.585   1.930   9.315  0.0810 -2.3754 -0.0839
  580SOL     OW 6586   8.715   2.870   1.713  0.2421  0.0683 -0.5203
  580SOL    HW1 6587   8.636   2.840   1.667 -0.0010  1.5866 -1.1212
  580SOL    HW2 6588   8.757   2.930   1.652  1.5618 -0.2609  0.0425
  581SOL     OW 6589   0.089   8.434   0.171  0.6623  0.3302  0.5200
  581SOL    HW1 6590   0.062   8.452   0.081  1.6162  1.2799  0.4128
  581SOL    HW2 6591   0.100   8.520   0.211 -0.9978 -0.0748  1.9487
  582SOL     OW 6592   9.596   2.757   0.712 -0.7175  0.0434 -0.1037
  582SOL    HW1 6593   9.510   2.783   0.747 -0.8909 -2.5001  1.4282
  582SOL    HW2 6594   9.598   2.662   0.721  0.6790 -0.3466 -3.8411
  583SOL     OW 6595   0.216   0.330   0.558  0.2665  0.4315  0.4795
  583SOL    HW1 6596   0.229   0.402   0.496 -1.2218  0.2411 -0.0785
  583SOL    HW2 6597   0.291   0.335   0.617  0.4427  2.1154  0.1343
  584SOL     OW 6598   0.754   1.234   0.332  0.7707  0.0941  0.8476
  584SOL    HW1 6599   0.776   1.203   0.420 -1.3812 -0.6824  1.1336
  584SOL    HW2 6600   0.811   1.184   0.273  0.8419 -0.7893  1.6564
  585SOL     OW 6601   9.623   0.451   2.364  0.0029  0.0220 -0.1877
  585SOL    HW1 6602   9.598   0.476   2.275 -1.8506 -2.6146 -0.4657
  585SOL    HW2 6603   9.679   0.375   2.353  0.3831  0.1352  0.8773
  586SOL     OW 6604   9.631   9.593   1.072  0.1737  0.0989  0.1073
  586SOL    HW1 6605   9.574   9.518   1.088  3.0940 -1.9582  1.3817
  586SOL    HW2 6606   9.686   9.566   0.998  2.1554  0.3996  1.4316
  587SOL     OW 6607   0.301   2.474   9.561  0.0249  0.2400 -0.2684
  587SOL    HW1 6608   0.368   2.467   9.629 -1.2676 -0.0725  0.9911
  587SOL    HW2 6609   0.335   2.540   9.501  1.1530  0.5726  0.7114
  588SOL     OW 6610   0.397   9.550   1.601  0.3907 -0.6023  0.2169
  588SOL    HW1 6611   0.393   9.631   1.551  0.5298 -0.7188  0.0173
  588SOL    HW2 6612   0.308   9.538   1.634  0.8955  0.9144  2.2555
  589SOL     OW 6613   1.036   0.659   1.397  0.0746 -0.2913  0.1810
  589SOL    HW1 6614   1.122   0.635   1.433  0.1842  0.2333  0.2664
  589SOL    HW2 6615   0.978   0.659   1.473  0.3263  0.9136  0.3821
  590SOL     OW 6616   1.782   2.378   8.340  0.1374 -0.0885 -0.0761
  590SOL    HW1 6617   1.768   2.314   8.409 -0.2394 -0.7961 -0.8036
  590SOL    HW2 6618   1.846   2.338   8.281 -0.1144  0.1766 -0.5420
  591SOL     OW 6619   0.420   1.142   9.681  0.0524 -0.3802  0.2760
  591SOL    HW1 6620   0.443   1.079   9.613  2.4489  1.3300 -0.5683
  591SOL    HW2 6621   0.500   1.193   9.694 -2.1688  3.3294 -0.0155
  592SOL     OW 6622   0.169   8.514   1.167  0.4475 -0.3063  0.4610
  592SOL    HW1 6623   0.160   8.595   1.217 -1.0315  0.3131 -0.7941
  592SOL    HW2 6624   0.261   8.514   1.138  0.4860  0.8545  0.5708
  593SOL     OW 6625   0.416   0.079   1.142  0.5952 -0.3309  0.1032
  593SOL    HW1 6626   0.359   0.122   1.206 -0.9405 -2.6476  0.3428
  593SOL    HW2 6627   0.463   0.013   1.192  0.3281 -1.3038 -0.9054
  594SOL     OW 6628   3.058   0.039   2.409 -0.4877 -0.2582  0.0494
  594SOL    HW1 6629   3.051   0.134   2.424 -1.3660 -0.0344 -1.6497
  594SOL    HW2 6630   2.972   0.014   2.375  0.2443 -1.3762 -1.0368
  595SOL     OW 6631   1.166   8.029   1.381 -0.1475 -0.1921  0.1857
  595SOL    HW1 6632   1.258   8.008   1.362  0.0011  0.0511  0.6243
  595SOL    HW2 6633   1.160   8.026   1.476 -0.2627  1.1731  0.2333
  596SOL     OW 6634   8.932   1.131   0.751  0.4507  0.1467  0.3753
  596SOL    HW1 6635   8.997   1.063   0.734 -0.9590 -1.5986  1.7644
  596SOL    HW2 6636   8.907   1.162   0.664  2.4882  0.2436 -0.1994
  597SOL     OW 6637   9.886   9.967   3.765  0.0328 -0.2552  0.3038
  597SOL    HW1 6638   9.837   9.950   3.685  0.0303  0.2705  0.1909
  597SOL    HW2 6639   9.819   9.995   3.828  0.4718  3.0940 -0.6070
  598SOL     OW 6640   9.513   0.657   2.503  0.3268  0.0619 -0.2133
  598SOL    HW1 6641   9.563   0.739   2.492  0.6812  0.2818  2.6879
  598SOL    HW2 6642   9.568   0.591   2.460  0.7227  1.0913 -1.3564
  599SOL     OW 6643   8.673   0.821   3.439  0.2055 -0.1840  0.2229
  599SOL    HW1 6644   8.671   0.779   3.524 -0.7620 -0.3498  0.1207
  599SOL    HW2 6645   8.721   0.759   3.383  1.6638  0.3524  0.8648
  600SOL     OW 6646   1.128   2.538   2.454 -0.3371 -0.1782  0.2347
  600SOL    HW1 6647   1.114   2.444   2.454  0.6753 -0.3354 -1.0183
  600SOL    HW2 6648   1.047   2.575   2.420  0.3552 -0.7908 -2.1651
  601SOL     OW 6649   0.402   2.136   2.840 -0.7766  0.5980  0.1789
  601SOL    HW1 6650   0.378   2.195   2.912 -1.5657  0.6562 -0.1307
  601SOL    HW2 6651   0.320   2.093   2.816 -0.6217  1.0247 -1.0943
  602SOL     OW 6652   9.464   1.258   2.002 -0.2169 -0.1909  0.3278
  602SOL    HW1 6653   9.519   1.316   2.054 -0.1981  0.3650 -0.3027
  602SOL    HW2 6654   9.523   1.191   1.969 -0.0286  0.0529  0.1645
  603SOL     OW 6655   0.383   0.278   2.677 -0.3398  0.1825  0.1936
  603SOL    HW1 6656   0.412   0.222   2.749  2.8872  1.9728  0.3566
  603SOL    HW2 6657   0.322   0.340   2.717  0.1211  0.0811  1.0528
  604SOL     OW 6658   9.867   1.401   3.134 -0.3535 -0.1502  0.1951
  604SOL    HW1 6659   9.816   1.454   3.196  0.0265 -0.6031  0.9047
  604SOL    HW2 6660   9.805   1.375   3.067 -1.3015 -1.5662  1.6002
  605SOL     OW 6661   0.719   2.049   3.225 -0.2933  0.5087 -0.3531
  605SOL    HW1 6662   0.740   2.069   3.134  0.9143 -0.2632 -0.2570
  605SOL    HW2 6663   0.697   1.956   3.224 -1.9497  0.8932 -0.1382
  606SOL     OW 6664   0.166   1.552   1.793  0.0128 -0.3279  0.1172
  606SOL    HW1 6665   0.147   1.458   1.797 -0.0539 -0.4434 -2.2412
  606SOL    HW2 6666   0.082   1.592   1.771  0.0377  0.2810  1.1350
  607SOL     OW 6667   2.423   2.227   3.331 -0.3048 -0.4833  0.5923
  607SOL    HW1 6668   2.378   2.294   3.279  0.9215 -0.3420 -0.3025
  607SOL    HW2 6669   2.384   2.145   3.302 -0.1984 -0.3391  0.0294
  608SOL     OW 6670   0.688   9.610   3.409  0.1122  0.2362 -0.0766
  608SOL    HW1 6671   0.629   9.552   3.360  1.9099 -1.2496 -0.5471
  608SOL    HW2 6672   0.728   9.665   3.342  0.0766  0.4910  0.1129
  609SOL     OW 6673   1.268   2.375   2.878 -0.9209  0.1653 -0.1405
  609SOL    HW1 6674   1.245   2.291   2.839  0.6390  0.5369 -1.9513
  609SOL    HW2 6675   1.364   2.377   2.875 -0.9482  2.0224 -0.1478
  610SOL     OW 6676   9.787   0.085   2.774  0.1895  0.0156  0.4636
  610SOL    HW1 6677   9.821   0.004   2.735 -0.2923 -0.2210  0.5265
  610SOL    HW2 6678   9.859   0.118   2.827  0.4680 -0.2519  0.2581
  611SOL     OW 6679   9.871   1.529   3.590 -0.5511 -0.5079 -0.4969
  611SOL    HW1 6680   9.850   1.615   3.555 -2.3456 -0.8766 -0.4063
  611SOL    HW2 6681   9.965   1.531   3.608 -1.0423  2.3809  2.1085
  612SOL     OW 6682   0.004   2.167   3.681  0.3063  0.0058  0.2036
  612SOL    HW1 6683   0.083   2.200   3.638  1.1549 -1.2353  0.7952
  612SOL    HW2 6684  -0.063   2.169   3.612  0.6107  1.9174 -0.0599
  613SOL     OW 6685   0.836   0.787   3.093 -0.3334  0.5723  0.2634
  613SOL    HW1 6686   0.906   0.806   3.156 -0.8064  2.1873  0.3367
  613SOL    HW2 6687   0.760   0.833   3.128 -0.6456  1.3215 -1.3788
  614SOL     OW 6688   1.164   0.431   1.236  0.3723 -0.1894  0.1415
  614SOL    HW1 6689   1.233   0.377   1.274  0.8559 -0.0544 -0.5271
  614SOL    HW2 6690   1.159   0.507   1.294  1.5983  0.3580 -0.4388
  615SOL     OW 6691   0.679   9.982   3.085 -0.1186  0.1951 -0.3415
  615SOL    HW1 6692   0.604   9.957   3.139 -0.8359  0.1156 -1.3523
  615SOL    HW2 6693   0.704  10.069   3.115 -0.0850 -0.1301  0.5658
  616SOL     OW 6694   0.257   9.489   2.184  0.2430 -0.4183 -0.4964
  616SOL    HW1 6695   0.309   9.420   2.225  0.9947 -0.0624 -0.8382
  616SOL    HW2 6696   0.273   9.479   2.090  1.7846  1.3136 -0.4574
  617SOL     OW 6697   1.771   0.161   2.185 -0.2349 -0.7892 -0.0643
  617SOL    HW1 6698   1.760   0.250   2.151  1.4535 -1.1112 -1.5667
  617SOL    HW2 6699   1.842   0.169   2.249  0.5135 -1.1934 -0.8337
  618SOL     OW 6700   1.338   2.043   2.926 -0.1637 -0.3781 -0.0054
  618SOL    HW1 6701   1.339   1.954   2.960  0.3432 -0.5476 -0.4639
  618SOL    HW2 6702   1.267   2.044   2.862 -0.1517 -0.4624 -0.0198
  619SOL     OW 6703   1.144   9.474   2.510 -0.4941  0.3915 -0.1517
  619SOL    HW1 6704   1.182   9.387   2.516 -0.2803  0.4607 -0.5273
  619SOL    HW2 6705   1.090   9.472   2.431  0.4683  0.9766 -0.8343
  620SOL     OW 6706   2.305   0.588   2.549 -0.0875 -0.2934 -0.4360
  620SOL    HW1 6707   2.219   0.608   2.513  0.7372  1.6846 -1.4157
  620SOL    HW2 6708   2.362   0.656   2.513  1.7914 -1.2966  0.5656
  621SOL     OW 6709   9.303   1.475   2.063 -0.2032 -0.0215  0.2794
  621SOL    HW1 6710   9.254   1.407   2.109  0.2373 -1.6503 -1.5831
  621SOL    HW2 6711   9.380   1.430   2.027  0.5370  1.6272 -0.2889
  622SOL     OW 6712   8.487   0.576   2.697  0.2894  0.4499 -0.2038
  622SOL    HW1 6713   8.530   0.491   2.690  1.4081  0.9911 -0.0360
  622SOL    HW2 6714   8.521   0.626   2.622 -0.5017  0.6933 -0.4041
  623SOL     OW 6715   1.427   1.468   4.490 -0.0637  0.2611  0.0785
  623SOL    HW1 6716   1.498   1.530   4.508  0.8062 -0.5511 -0.5211
  623SOL    HW2 6717   1.467   1.382   4.499 -0.6753 -0.1958 -1.4203
  624SOL     OW 6718   1.126   1.682   4.890  0.0032  0.2129 -0.0381
  624SOL    HW1 6719   1.124   1.663   4.796  0.9913  0.9952 -0.2217
  624SOL    HW2 6720   1.211   1.651   4.919  0.3879  1.5271  0.2610
  625SOL     OW 6721   8.971   1.679   3.099  0.5990 -0.3871  0.6143
  625SOL    HW1 6722   8.931   1.674   3.186 -0.4465  0.8897  0.2354
  625SOL    HW2 6723   8.928   1.609   3.049  1.2251 -1.1427  1.1211
  626SOL     OW 6724   9.845   0.585   3.750  0.4372 -0.1907 -0.1988
  626SOL    HW1 6725   9.814   0.586   3.660 -0.0948 -1.9070 -0.0460
  626SOL    HW2 6726   9.880   0.496   3.763 -2.0326 -0.9013  2.1168
  627SOL     OW 6727   2.352   2.460   2.884 -0.4483 -0.1265  0.0027
  627SOL    HW1 6728   2.286   2.428   2.822  0.7721  0.2853 -1.5478
  627SOL    HW2 6729   2.379   2.545   2.848  0.4139  0.0269  0.9989
  628SOL     OW 6730   0.068   1.836   2.620 -0.1809  0.4090 -0.3989
  628SOL    HW1 6731   0.160   1.819   2.638  0.3726  2.5839 -1.1346
  628SOL    HW2 6732   0.052   1.795   2.535  0.5655  1.5497 -1.0937
  629SOL     OW 6733   1.363   1.297   3.195 -0.3214  0.7059  0.6350
  629SOL    HW1 6734   1.315   1.312   3.276 -0.8778 -0.3246  0.5034
  629SOL    HW2 6735   1.295   1.290   3.128 -0.1325 -2.4934  0.7094
  630SOL     OW 6736   1.146   0.333   2.435 -0.2508  0.2768  0.0382
  630SOL    HW1 6737   1.153   0.414   2.485  0.0687 -0.5475  1.3404
  630SOL    HW2 6738   1.142   0.361   2.344  2.0397  1.6598  0.3433
  631SOL     OW 6739   0.568   0.980   2.019  0.1534 -0.1945 -0.5990
  631SOL    HW1 6740   0.504   0.910   2.006 -0.9248  0.6776 -0.1429
  631SOL    HW2 6741   0.648   0.935   2.046 -0.8161 -1.1867  0.6998
  632SOL     OW 6742   2.276   3.126   9.604 -0.2773 -0.0938  0.2838
  632SOL    HW1 6743   2.185   3.132   9.633 -0.5911  1.8410 -1.0624
  632SOL    HW2 6744   2.328   3.154   9.680 -0.7044 -2.4363  1.4864
  633SOL     OW 6745   0.814   9.730   3.148  0.1143  0.1021 -0.1572
  633SOL    HW1 6746   0.761   9.808   3.135 -0.1289  0.2073  1.3143
  633SOL    HW2 6747   0.830   9.696   3.060 -0.3259  1.4379 -0.7647
  634SOL     OW 6748   2.367   9.611   3.820 -0.4104 -0.0496 -0.2347
  634SOL    HW1 6749   2.290   9.580   3.772 -0.1717 -0.9276 -0.0623
  634SOL    HW2 6750   2.421   9.653   3.753  0.3014 -1.9919 -0.9061
  635SOL     OW 6751   0.158   1.003   2.729  0.0069  0.4357  0.7023
  635SOL    HW1 6752   0.143   0.977   2.820 -1.5991 -1.3323 -0.0477
  635SOL    HW2 6753   0.251   0.984   2.713  0.0752 -0.0712  1.6829
  636SOL     OW 6754   1.755   1.205   3.599  0.6086  0.1265  0.2086
  636SOL    HW1 6755   1.803   1.200   3.681  0.6788  1.3214  0.2442
  636SOL    HW2 6756   1.667   1.173   3.622  0.5244  0.7862  0.8305
  637SOL     OW 6757   0.156   2.974   2.260 -0.2763 -0.1285 -0.5080
  637SOL    HW1 6758   0.094   2.958   2.331  2.3620 -1.3712  1.6462
  637SOL    HW2 6759   0.136   3.063   2.230 -0.1703  1.2647  3.2417
  638SOL     OW 6760   1.014   1.165   1.666 -0.2059  0.4313  0.3134
  638SOL    HW1 6761   1.106   1.168   1.690 -0.1664  1.4055  0.0550
  638SOL    HW2 6762   1.010   1.106   1.591  0.2204  0.4860  0.2478
  639SOL     OW 6763   9.621   4.039   3.479  0.2995  0.1157 -0.3443
  639SOL    HW1 6764   9.657   3.951   3.464 -1.1793 -0.4876 -0.4047
  639SOL    HW2 6765   9.698   4.096   3.479  1.2207 -1.0926 -0.9187
  640SOL     OW 6766   1.392   0.662   2.326  0.1352  0.4389 -0.2196
  640SOL    HW1 6767   1.464   0.721   2.351  1.8040 -1.8075  0.3774
  640SOL    HW2 6768   1.358   0.628   2.409  0.4849 -0.9442 -0.6303
  641SOL     OW 6769   3.695   0.148   1.171  0.0119 -0.3362  0.0778
  641SOL    HW1 6770   3.741   0.064   1.163  0.9353  0.0564  1.1333
  641SOL    HW2 6771   3.609   0.132   1.131  0.5437 -1.4866 -0.6411
  642SOL     OW 6772   1.751   0.070   1.605  0.2967  0.0726 -0.2177
  642SOL    HW1 6773   1.775   0.018   1.682  1.2310 -0.2147 -0.6948
  642SOL    HW2 6774   1.666   0.036   1.579  0.7730 -1.0380 -0.3551
  643SOL     OW 6775   0.253   9.969   3.532  0.2398 -0.2633  0.4081
  643SOL    HW1 6776   0.189  10.041   3.536  1.7543  1.1280  0.0729
  643SOL    HW2 6777   0.222   9.914   3.459  0.5777  1.5468 -1.1448
  644SOL     OW 6778   3.135   0.717   2.897 -0.2631 -0.0374 -0.0900
  644SOL    HW1 6779   3.067   0.784   2.910  1.6540  1.9748 -0.1497
  644SOL    HW2 6780   3.096   0.655   2.836 -2.0027  1.1651 -0.2528
  645SOL     OW 6781   0.098   2.157   2.722  0.2650 -0.6388 -0.1050
  645SOL    HW1 6782   0.023   2.108   2.687 -1.1874  2.0459 -0.8313
  645SOL    HW2 6783   0.069   2.187   2.808  0.8852 -0.3954  0.0218
  646SOL     OW 6784   0.441   1.001   2.905  0.4075  0.2796  0.0209
  646SOL    HW1 6785   0.482   1.012   2.991  0.6057 -3.0540  0.3975
  646SOL    HW2 6786   0.353   0.970   2.925 -0.0839  1.0161 -0.9724
  647SOL     OW 6787   0.603   2.612   3.116  0.5843 -0.2904 -0.5225
  647SOL    HW1 6788   0.608   2.553   3.191  0.6718  0.5897  0.1603
  647SOL    HW2 6789   0.579   2.554   3.043  2.6776 -1.5277 -0.2707
  648SOL     OW 6790   1.060   1.675   3.109  0.2279  0.1472  0.4309
  648SOL    HW1 6791   1.103   1.616   3.046 -1.5905  1.1334 -1.8004
  648SOL    HW2 6792   1.118   1.751   3.113 -1.2478  1.5002 -2.6175
  649SOL     OW 6793   9.839   1.172   3.406  0.1876  0.4794 -0.1133
  649SOL    HW1 6794   9.763   1.185   3.463  0.8091  0.8177  0.6586
  649SOL    HW2 6795   9.914   1.182   3.465  0.7996 -0.9706 -0.6457
  650SOL     OW 6796   0.792   1.778   1.607 -0.2701 -0.6349 -0.1378
  650SOL    HW1 6797   0.806   1.820   1.522  1.9884 -0.5160  0.2549
  650SOL    HW2 6798   0.790   1.684   1.587  0.8997 -0.6474 -0.2757
  651SOL     OW 6799   1.834   1.865   2.509  0.6296  0.2262 -0.4428
  651SOL    HW1 6800   1.916   1.822   2.485  0.0401 -0.5904 -1.0440
  651SOL    HW2 6801   1.770   1.793   2.511 -0.1178  0.8950 -0.2373
  652SOL     OW 6802   0.265   1.449   2.085 -0.3647 -0.0765 -0.6599
  652SOL    HW1 6803   0.174   1.479   2.075  0.1428  0.7059 -3.4520
  652SOL    HW2 6804   0.258   1.354   2.096 -1.6707  0.3159  2.3620
  653SOL     OW 6805   1.237   0.537   3.393  0.3434 -0.1328  0.0718
  653SOL    HW1 6806   1.208   0.473   3.328  2.6259 -0.8315 -0.3275
  653SOL    HW2 6807   1.254   0.486   3.472  1.0995  0.1262  0.0878
  654SOL     OW 6808   1.027   8.880   3.774  0.7497  0.5243 -0.2577
  654SOL    HW1 6809   0.934   8.864   3.753  0.3184  0.4991  1.6110
  654SOL    HW2 6810   1.028   8.967   3.812  1.5820  0.7095 -0.7016
  655SOL     OW 6811   0.549   0.680   4.878 -0.0865  0.5239 -0.1493
  655SOL    HW1 6812   0.587   0.602   4.836  0.6498  0.8120 -0.0275
  655SOL    HW2 6813   0.555   0.661   4.972  1.6734  1.4427 -0.0549
  656SOL     OW 6814   1.273   9.214   0.790  0.2808 -0.0498  0.0816
  656SOL    HW1 6815   1.342   9.174   0.737  0.7162  0.6742  0.0862
  656SOL    HW2 6816   1.296   9.307   0.791 -0.7267  0.2007  0.0412
  657SOL     OW 6817   0.467   0.426   4.142 -0.3758 -0.3156  0.0395
  657SOL    HW1 6818   0.456   0.422   4.047 -0.0754  1.1354 -0.0801
  657SOL    HW2 6819   0.379   0.417   4.177 -0.4406 -1.2548 -0.3608
  658SOL     OW 6820   9.769   1.618   3.243  0.4762 -0.7110  0.3949
  658SOL    HW1 6821   9.814   1.696   3.211 -0.5258 -0.2927 -0.0052
  658SOL    HW2 6822   9.738   1.642   3.330 -1.1126 -0.1589 -0.3189
  659SOL     OW 6823   1.997   1.228   4.352 -0.0337  0.7224 -0.4865
  659SOL    HW1 6824   1.948   1.206   4.431  1.5058  0.7852  0.5075
  659SOL    HW2 6825   2.018   1.143   4.313 -0.8729  0.6942 -0.8921
  660SOL     OW 6826   0.942   2.178   4.031 -0.1509 -0.2213  0.2928
  660SOL    HW1 6827   0.852   2.146   4.026 -0.2428  0.0265  0.3517
  660SOL    HW2 6828   0.990   2.125   3.967 -0.1437 -1.0018  0.9362
  661SOL     OW 6829   1.657   9.167   2.305  0.4835  0.2557 -0.2560
  661SOL    HW1 6830   1.737   9.219   2.292  0.8973 -0.6618 -1.4192
  661SOL    HW2 6831   1.592   9.210   2.249  0.7324 -0.2871 -0.9538
  662SOL     OW 6832   0.550   9.820   2.855  0.2076  0.1307  0.3743
  662SOL    HW1 6833   0.521   9.776   2.775 -0.4516  1.1609  0.0376
  662SOL    HW2 6834   0.475   9.815   2.913  0.3759  0.1869  0.5963
  663SOL     OW 6835   2.633   1.825   4.386  0.2367  0.4805 -0.1565
  663SOL    HW1 6836   2.705   1.876   4.349  0.3964 -0.6120 -1.4019
  663SOL    HW2 6837   2.675   1.761   4.443  0.1159  0.9944  0.5173
  664SOL     OW 6838   0.664   0.087   3.621  0.0676 -0.3420  0.1445
  664SOL    HW1 6839   0.594   0.028   3.647 -0.0835  0.3868  1.4555
  664SOL    HW2 6840   0.730   0.078   3.691  1.6688 -1.6461 -1.4916
  665SOL     OW 6841   0.117   0.283   2.828  0.0308 -0.2287 -0.5685
  665SOL    HW1 6842   0.033   0.290   2.782  0.1718 -3.7849 -1.5150
  665SOL    HW2 6843   0.106   0.209   2.887  2.2418 -0.2305 -0.1216
  666SOL     OW 6844   2.691   0.987   3.780  0.4570 -0.9973  0.3702
  666SOL    HW1 6845   2.635   0.932   3.725  2.1573 -1.4365 -0.9718
  666SOL    HW2 6846   2.630   1.039   3.832 -1.2445 -0.1897 -2.3122
  667SOL     OW 6847   0.769   2.204   0.890  0.2499 -0.6813 -0.2618
  667SOL    HW1 6848   0.789   2.113   0.866  0.8152 -0.6946  0.2484
  667SOL    HW2 6849   0.827   2.222   0.964 -0.2062 -0.0598 -0.0579
  668SOL     OW 6850   0.758   0.460   3.103  0.0598 -0.1442 -0.8786
  668SOL    HW1 6851   0.775   0.553   3.088  1.8245 -0.6234 -1.9843
  668SOL    HW2 6852   0.672   0.458   3.146  0.2503  2.0156 -0.3425
  669SOL     OW 6853   0.033   1.858   3.981 -0.4784  0.2918 -0.0562
  669SOL    HW1 6854   0.043   1.863   3.886 -2.8257  0.8219 -0.2871
  669SOL    HW2 6855   0.120   1.831   4.012  0.3537  0.2393 -2.3222
  670SOL     OW 6856   0.765   8.697   2.309  0.1815 -0.1266  0.3022
  670SOL    HW1 6857   0.805   8.749   2.239  0.5084 -0.2858  0.3695
  670SOL    HW2 6858   0.673   8.722   2.307  0.0161 -0.7691 -0.7700
  671SOL     OW 6859   1.382   9.909   4.596  0.0691 -0.0917 -0.0573
  671SOL    HW1 6860   1.448   9.893   4.663 -0.4140  1.8598  0.9444
  671SOL    HW2 6861   1.429   9.954   4.526  0.0827  0.0992  0.0721
  672SOL     OW 6862   1.799   9.986   3.523  0.6094 -0.1615  0.3407
  672SOL    HW1 6863   1.710   9.970   3.492  0.8447 -0.2501 -0.2934
  672SOL    HW2 6864   1.855   9.940   3.461  1.0757 -0.5840  1.0620
  673SOL     OW 6865   1.745   9.696   0.170  0.2475  0.1094  0.0967
  673SOL    HW1 6866   1.722   9.605   0.155  1.5342 -0.0266 -1.2494
  673SOL    HW2 6867   1.822   9.693   0.226  1.3988  0.2798 -1.4371
  674SOL     OW 6868   0.450   9.694   3.797 -0.0887 -0.4807 -0.4851
  674SOL    HW1 6869   0.455   9.789   3.808  0.1213 -0.3537 -1.6725
  674SOL    HW2 6870   0.356   9.676   3.788 -0.1150 -0.3638 -0.4526
  675SOL     OW 6871   9.933   1.092   2.595  0.3833 -0.1172 -0.8859
  675SOL    HW1 6872   9.950   1.064   2.505 -0.0949 -0.9567 -0.7175
  675SOL    HW2 6873   9.987   1.034   2.649 -0.7945 -0.9056 -0.5246
  676SOL     OW 6874   0.645   0.262   2.949  0.1896  0.6139  0.2254
  676SOL    HW1 6875   0.711   0.331   2.945  1.1254 -0.2963 -0.4000
  676SOL    HW2 6876   0.563   0.308   2.965  0.8328  1.8511  0.0374
  677SOL     OW 6877   1.684   1.121   2.513  0.6677 -0.9782 -0.3240
  677SOL    HW1 6878   1.740   1.186   2.555  1.4372 -1.7243 -0.1895
  677SOL    HW2 6879   1.649   1.068   2.584 -2.7282  1.3883 -0.0903
  678SOL     OW 6880   0.238   0.852   2.518  0.3333 -0.7209 -0.3389
  678SOL    HW1 6881   0.178   0.909   2.566  1.8562  0.7364 -0.1208
  678SOL    HW2 6882   0.181   0.794   2.468 -1.2779  1.9636 -1.7501
  679SOL     OW 6883   0.590   1.520   2.792  0.1356  0.3914 -0.4518
  679SOL    HW1 6884   0.614   1.501   2.883 -3.0548 -2.2879 -0.0405
  679SOL    HW2 6885   0.668   1.495   2.741  0.1359 -3.3432  1.1583
  680SOL     OW 6886   0.371   8.984   3.319 -0.1585 -0.3255 -0.4389
  680SOL    HW1 6887   0.411   8.897   3.323  2.8538  0.8905 -2.3094
  680SOL    HW2 6888   0.388   9.023   3.404  0.1744 -0.8620 -0.2593
  681SOL     OW 6889   0.586   0.795   2.856 -0.1028  0.3443 -0.3442
  681SOL    HW1 6890   0.521   0.865   2.859 -0.4481  0.0551 -1.1136
  681SOL    HW2 6891   0.567   0.747   2.776  0.8134  0.0154 -0.3702
  682SOL     OW 6892   1.284   3.025   5.082 -0.3416  0.1121 -0.4675
  682SOL    HW1 6893   1.288   3.095   5.017 -0.4699  0.2677 -0.3130
  682SOL    HW2 6894   1.193   3.026   5.112 -0.2196  0.2216 -0.0947
  683SOL     OW 6895   0.351   1.525   3.113  0.3586 -0.0717  0.3645
  683SOL    HW1 6896   0.283   1.481   3.163  0.0635  0.5603  0.5271
  683SOL    HW2 6897   0.307   1.601   3.074  1.0498  0.5492  0.7723
  684SOL     OW 6898   0.851   1.534   3.930  0.2005  0.3634 -0.3577
  684SOL    HW1 6899   0.925   1.473   3.938 -0.4948 -0.1412  2.7280
  684SOL    HW2 6900   0.856   1.565   3.839  3.1746 -0.9502 -0.7169
  685SOL     OW 6901   2.104   2.214   3.430 -0.1898 -0.2185  0.1781
  685SOL    HW1 6902   2.151   2.216   3.347 -2.0645 -1.5389 -0.9500
  685SOL    HW2 6903   2.039   2.284   3.424 -0.0333 -0.0172  0.7243
  686SOL     OW 6904   1.178   1.017   3.077 -0.3091 -0.3498 -0.4377
  686SOL    HW1 6905   1.232   0.938   3.084  1.9238  1.1984  0.4380
  686SOL    HW2 6906   1.189   1.046   2.987 -1.4614 -1.2301 -0.8790
  687SOL     OW 6907   9.377   0.608   3.132 -0.0042 -0.1510  0.1407
  687SOL    HW1 6908   9.329   0.690   3.139  2.3126  1.1598  1.2533
  687SOL    HW2 6909   9.407   0.606   3.041 -1.9642 -0.9135 -0.5258
  688SOL     OW 6910   0.746   0.435   3.905 -0.5154 -0.4914 -0.1091
  688SOL    HW1 6911   0.753   0.531   3.909  0.2837 -0.4259 -2.1662
  688SOL    HW2 6912   0.652   0.417   3.910 -0.5911  0.2810  1.8594
  689SOL     OW 6913   9.946   0.408   2.303 -0.0048  0.1927 -0.7037
  689SOL    HW1 6914   9.856   0.407   2.269  0.7868 -1.0081 -2.8416
  689SOL    HW2 6915   9.939   0.367   2.389 -1.8927  2.3209  0.2156
  690SOL     OW 6916   1.448   0.235   2.338 -0.1300 -0.0298  0.0307
  690SOL    HW1 6917   1.414   0.267   2.254 -0.5163 -0.6804 -0.0667
  690SOL    HW2 6918   1.448   0.312   2.395  1.5088  0.7459 -0.9887
  691SOL     OW 6919   0.366   0.685   4.447 -0.0814 -0.2553  0.1884
  691SOL    HW1 6920   0.414   0.719   4.372  0.8039 -2.9390 -0.5283
  691SOL    HW2 6921   0.389   0.744   4.519  0.1675  1.5226 -1.3188
  692SOL     OW 6922   1.682   0.850   5.552  0.1368 -0.4686 -0.4310
  692SOL    HW1 6923   1.691   0.794   5.475 -0.1723 -1.1902  0.0480
  692SOL    HW2 6924   1.603   0.818   5.596  0.4907 -0.2760  0.3521
  693SOL     OW 6925   9.927   0.316   2.649  0.2471  0.1012 -0.0579
  693SOL    HW1 6926   9.832   0.315   2.633 -0.0734  1.4007  1.6611
  693SOL    HW2 6927   9.959   0.239   2.601 -1.3433  0.8752 -2.4866
  694SOL     OW 6928   1.463   0.683   2.679  0.1375 -0.0659  0.1460
  694SOL    HW1 6929   1.513   0.737   2.618  0.0951  0.6181  0.7093
  694SOL    HW2 6930   1.443   0.742   2.752 -1.0959 -0.4758  0.1348
  695SOL     OW 6931   1.845   2.034   3.530 -0.6141  0.0334 -0.1712
  695SOL    HW1 6932   1.757   2.002   3.553 -0.3886 -0.1031  0.5174
  695SOL    HW2 6933   1.843   2.042   3.435 -0.6329 -2.1576 -0.3752
  696SOL     OW 6934   0.704   1.190   2.346  0.0768 -0.4641 -0.0391
  696SOL    HW1 6935   0.793   1.153   2.347  0.0870 -0.4384  0.0300
  696SOL    HW2 6936   0.686   1.208   2.254  0.1511 -0.4516 -0.0510
  697SOL     OW 6937   9.771   1.274   3.648  0.1980 -0.4989  0.0802
  697SOL    HW1 6938   9.729   1.296   3.731  0.2169 -1.6026  0.3891
  697SOL    HW2 6939   9.819   1.354   3.623 -2.8029  1.1378 -0.7610
  698SOL     OW 6940   9.914   0.181   3.506 -0.6647  0.5543  0.5241
  698SOL    HW1 6941   9.928   0.237   3.582  2.5352 -1.0252  1.1831
  698SOL    HW2 6942   9.996   0.186   3.457 -1.1703 -1.6622 -0.6101
  699SOL     OW 6943   0.999   2.300   2.473  0.3460  0.4006  0.1085
  699SOL    HW1 6944   0.972   2.332   2.386  0.5060  1.4599  0.4425
  699SOL    HW2 6945   0.926   2.323   2.530  0.5990  0.4540  0.4113
  700SOL     OW 6946   2.477   0.750   4.135 -0.1995  0.0604  0.1179
  700SOL    HW1 6947   2.420   0.678   4.160 -0.1881  0.2452  0.6809
  700SOL    HW2 6948   2.436   0.787   4.057 -0.4001 -0.3245  0.0390
  701SOL     OW 6949   0.701   1.298   3.894  0.5195 -0.7727 -0.0589
  701SOL    HW1 6950   0.695   1.254   3.979  2.1118  0.4640  0.7207
  701SOL    HW2 6951   0.764   1.369   3.908 -0.1247  0.2068 -1.9527
  702SOL     OW 6952   9.016   8.757   3.200  0.3596  0.5237 -0.1686
  702SOL    HW1 6953   9.089   8.817   3.183  0.7986 -0.0374 -0.2662
  702SOL    HW2 6954   9.057   8.671   3.206 -0.4371  0.0446 -1.4213
  703SOL     OW 6955   9.882   8.595   3.138 -0.0835 -0.0128 -0.2922
  703SOL    HW1 6956   9.900   8.538   3.063  1.5833  1.0539 -0.7479
  703SOL    HW2 6957   9.882   8.537   3.214  1.1212 -0.6883 -0.7971
  704SOL     OW 6958   9.675   1.889   3.031  0.9981  0.4220  0.4051
  704SOL    HW1 6959   9.682   1.802   2.992  2.0991  0.5678  0.2651
  704SOL    HW2 6960   9.747   1.893   3.094  0.6434  1.0453  0.7759
  705SOL     OW 6961   8.512   0.387   3.682  0.1890  0.7052  0.0597
  705SOL    HW1 6962   8.431   0.413   3.637 -0.3840 -0.7558  0.2025
  705SOL    HW2 6963   8.521   0.294   3.662 -0.4661 -0.1565  3.5836
  706SOL     OW 6964   1.807   9.111   3.612 -0.2174  0.4968  0.1296
  706SOL    HW1 6965   1.812   9.207   3.610 -0.1673  0.4955  0.1737
  706SOL    HW2 6966   1.851   9.087   3.694 -1.2529  0.4929  0.6827
  707SOL     OW 6967   9.333   1.248   3.449  0.2192  0.3742  0.6886
  707SOL    HW1 6968   9.362   1.204   3.529  1.5676 -0.0200  0.0014
  707SOL    HW2 6969   9.379   1.202   3.379 -0.7064  0.9196 -0.2860
  708SOL     OW 6970   1.919   9.441   2.701 -0.3239 -0.6398 -0.0163
  708SOL    HW1 6971   1.967   9.502   2.646  0.1789  0.7698  1.9038
  708SOL    HW2 6972   1.835   9.428   2.657 -0.5857  1.7347 -0.2749
  709SOL     OW 6973   0.898   0.851   1.798 -0.2533 -0.6872  0.2704
  709SOL    HW1 6974   0.885   0.812   1.711  1.2284  1.8057 -1.1309
  709SOL    HW2 6975   0.983   0.816   1.827 -1.0134 -1.9644  0.9830
  710SOL     OW 6976   9.837   0.863   4.136  0.1494 -0.2222 -0.4024
  710SOL    HW1 6977   9.788   0.787   4.107  3.0065 -1.6835 -1.6425
  710SOL    HW2 6978   9.773   0.917   4.184 -2.0573 -3.0825 -0.0099
  711SOL     OW 6979   2.402   2.386   3.729  0.6964  0.0510  0.4462
  711SOL    HW1 6980   2.371   2.468   3.691  2.6929  0.4980 -0.2685
  711SOL    HW2 6981   2.352   2.318   3.683  0.2913  0.7749 -0.1994
  712SOL     OW 6982   9.193   9.828   4.655  0.5284  0.5747  0.1120
  712SOL    HW1 6983   9.245   9.782   4.589  0.8571  0.8938  0.1422
  712SOL    HW2 6984   9.233   9.915   4.660  1.0096  0.3012  1.2952
  713SOL     OW 6985   2.027   7.591   2.850  0.0174  0.1121 -0.2040
  713SOL    HW1 6986   1.997   7.501   2.861 -0.5296  0.5478  2.0455
  713SOL    HW2 6987   2.011   7.610   2.757 -0.3660 -1.9053 -0.5777
  714SOL     OW 6988   0.437   9.698   2.621  0.1969  0.3190 -0.0876
  714SOL    HW1 6989   0.352   9.731   2.591  0.1542 -1.9707 -2.6048
  714SOL    HW2 6990   0.501   9.746   2.568  0.3411  0.0815 -0.1299
  715SOL     OW 6991   0.351   2.060   1.068 -0.1007 -0.6211  0.6128
  715SOL    HW1 6992   0.440   2.069   1.103  0.3541 -1.0692 -0.4086
  715SOL    HW2 6993   0.360   2.076   0.974 -1.5556  2.0633  0.8834
  716SOL     OW 6994   9.119   0.606   2.873 -1.3705  0.6744 -0.3242
  716SOL    HW1 6995   9.157   0.525   2.908 -0.9306  0.4061 -1.4068
  716SOL    HW2 6996   9.176   0.629   2.800 -1.6135  1.8552 -0.1445
  717SOL     OW 6997   9.568   0.706   3.647 -0.8329  0.5041  0.1782
  717SOL    HW1 6998   9.544   0.757   3.723  0.3947 -1.4357  1.9266
  717SOL    HW2 6999   9.509   0.631   3.648  1.2790 -1.1911  1.0943
  718SOL     OW 7000   2.169   1.270   3.413  0.1034  0.2324 -0.4171
  718SOL    HW1 7001   2.159   1.363   3.434  0.4558  0.0075  0.7512
  718SOL    HW2 7002   2.241   1.240   3.468 -2.1213 -1.5170  1.6791
  719SOL     OW 7003   0.064   0.398   3.237 -0.0664 -0.7802 -0.3548
  719SOL    HW1 7004   0.076   0.395   3.332  0.3718 -0.6826 -0.4037
  719SOL    HW2 7005   0.149   0.427   3.204 -1.0469  1.9463 -0.5820
  720SOL     OW 7006   9.649   1.172   2.574  0.2639 -0.2650 -0.2327
  720SOL    HW1 7007   9.644   1.210   2.662 -1.3307 -2.6682  0.7636
  720SOL    HW2 7008   9.742   1.155   2.561  0.6304  0.9937  0.5717
  721SOL     OW 7009   9.642   2.962   2.430  0.4397  0.2139  0.2767
  721SOL    HW1 7010   9.593   2.969   2.348  0.0266 -0.6385  0.4460
  721SOL    HW2 7011   9.697   3.041   2.431  1.5754 -0.5042 -1.5520
  722SOL     OW 7012   0.354   2.150   1.474  0.9398  0.4794 -0.5098
  722SOL    HW1 7013   0.267   2.176   1.444  0.2285 -1.1259  0.1201
  722SOL    HW2 7014   0.380   2.081   1.414  0.7570 -0.6880  0.7178
  723SOL     OW 7015   0.733   0.646   2.505  0.4398 -0.6108 -0.9668
  723SOL    HW1 7016   0.644   0.676   2.523  0.6705 -0.0090 -0.8102
  723SOL    HW2 7017   0.752   0.584   2.576  0.9206  0.8751  0.2211
  724SOL     OW 7018   9.703   0.437   3.135 -0.2018 -0.2079  0.2044
  724SOL    HW1 7019   9.774   0.400   3.083 -1.0150 -1.4954 -0.0090
  724SOL    HW2 7020   9.693   0.377   3.209 -1.2220 -0.1585  0.1136
  725SOL     OW 7021   0.996   0.859   3.549 -0.1298  0.1263  0.2611
  725SOL    HW1 7022   1.034   0.935   3.593  1.3899 -0.9442  0.8348
  725SOL    HW2 7023   1.012   0.786   3.609 -2.8238 -0.4236  0.3656
  726SOL     OW 7024   0.718   1.495   0.227  0.2704  0.5417  0.0732
  726SOL    HW1 7025   0.728   1.404   0.255  2.4697  0.3333 -1.2679
  726SOL    HW2 7026   0.643   1.527   0.276  1.6105 -0.9466  3.2331
  727SOL     OW 7027   1.008   8.919   3.007  0.4970 -0.1252 -0.3576
  727SOL    HW1 7028   1.065   8.888   3.077  0.0757 -1.8655 -0.7652
  727SOL    HW2 7029   0.978   9.005   3.036  1.8392 -0.0058  0.7084
  728SOL     OW 7030   1.048   8.543   4.573  0.1074  0.0515  0.1629
  728SOL    HW1 7031   1.137   8.572   4.554 -0.1054  1.0949  0.7204
  728SOL    HW2 7032   1.018   8.602   4.641 -0.6955 -0.8751  0.6184
  729SOL     OW 7033   1.780   1.962   2.995  0.8741  0.1540  0.2153
  729SOL    HW1 7034   1.757   1.907   2.920  1.9960  1.8529 -1.4289
  729SOL    HW2 7035   1.726   2.041   2.984  0.6441  0.1890  1.5113
  730SOL     OW 7036   0.269   0.588   3.764  0.4172  0.2772 -0.6677
  730SOL    HW1 7037   0.210   0.658   3.792  0.4254  0.3696 -0.8844
  730SOL    HW2 7038   0.233   0.557   3.681  0.4694  0.0890 -0.6217
  731SOL     OW 7039   1.041   1.023   1.430 -0.1115  0.1653  0.0607
  731SOL    HW1 7040   1.020   0.976   1.350 -0.4345 -0.1054  0.3052
  731SOL    HW2 7041   1.125   0.985   1.458  0.2699  0.6405 -0.4427
  732SOL     OW 7042   2.181   2.637   3.250 -0.4135 -0.2136  0.1616
  732SOL    HW1 7043   2.187   2.543   3.238 -0.3626  0.0374 -2.0032
  732SOL    HW2 7044   2.262   2.672   3.213 -1.0690  0.7722 -0.3974
  733SOL     OW 7045   2.342   1.029   4.595 -0.1632 -0.9778  0.3461
  733SOL    HW1 7046   2.392   0.964   4.646 -1.3782 -2.5389 -0.4044
  733SOL    HW2 7047   2.409   1.081   4.551  0.8758 -0.4966  2.4330
  734SOL     OW 7048   9.477   9.939   3.373 -0.0726  0.2656 -0.4662
  734SOL    HW1 7049   9.491   9.851   3.338 -0.4936 -0.0696  0.1978
  734SOL    HW2 7050   9.536   9.945   3.448  0.0902  0.6156 -0.6203
  735SOL     OW 7051   9.904   0.242   3.046 -0.1389  0.0806  0.2526
  735SOL    HW1 7052   9.883   0.154   3.077  1.1672 -0.9093 -1.5881
  735SOL    HW2 7053   9.964   0.277   3.113  0.7890 -1.1360  0.0759
  736SOL     OW 7054   9.810   9.975   3.122 -0.0133  0.3275  0.0319
  736SOL    HW1 7055   9.781   9.943   3.208 -0.7608 -0.2566 -0.4349
  736SOL    HW2 7056   9.871   9.907   3.091 -2.1947 -1.0854 -1.3052
  737SOL     OW 7057   2.428   1.693   2.058  0.1079 -0.4552 -0.4684
  737SOL    HW1 7058   2.384   1.609   2.047  0.4878 -1.1381  2.6697
  737SOL    HW2 7059   2.358   1.757   2.064 -0.2550 -0.8219 -0.7985
  738SOL     OW 7060   1.293   1.538   3.040  0.6728  0.1919  0.5296
  738SOL    HW1 7061   1.314   1.472   3.105  0.5632  0.5949  0.9774
  738SOL    HW2 7062   1.334   1.507   2.959 -0.6866 -1.1993  0.3581
  739SOL     OW 7063   0.712   1.682   4.115 -0.1295  0.3076 -0.2736
  739SOL    HW1 7064   0.747   1.628   4.045  0.3120  1.8052 -1.2217
  739SOL    HW2 7065   0.777   1.751   4.128 -0.0657 -0.0877  1.8007
  740SOL     OW 7066   8.838   0.430   2.846  0.1545 -0.2132  0.3077
  740SOL    HW1 7067   8.886   0.474   2.775  0.2350  0.7625  0.9456
  740SOL    HW2 7068   8.821   0.500   2.910 -1.0847 -0.7983  0.6364
  741SOL     OW 7069   9.768   2.445   2.361 -0.2478  0.3829  0.1312
  741SOL    HW1 7070   9.710   2.392   2.416 -0.4143  0.6822  0.2428
  741SOL    HW2 7071   9.804   2.383   2.297 -0.4053  0.1255  0.2940
  742SOL     OW 7072   1.320   9.654   2.632  0.0649 -0.4908  0.5535
  742SOL    HW1 7073   1.284   9.585   2.576 -2.7962 -0.1576  1.8999
  742SOL    HW2 7074   1.356   9.607   2.707 -0.3132 -0.6112  0.6573
  743SOL     OW 7075   3.255   0.434   1.404  0.2962  0.6498 -0.1166
  743SOL    HW1 7076   3.256   0.530   1.399  1.9512  0.6298 -0.4749
  743SOL    HW2 7077   3.290   0.415   1.491  0.1101  0.3616 -0.1060
  744SOL     OW 7078   0.820   9.408   0.378  0.1548 -0.3584  0.3657
  744SOL    HW1 7079   0.900   9.431   0.425  0.8223 -2.5523  0.3337
  744SOL    HW2 7080   0.833   9.443   0.289  0.6438  0.1635  0.6425
  745SOL     OW 7081   9.228   1.811   3.934  0.3564  0.0289 -0.0553
  745SOL    HW1 7082   9.265   1.841   3.851 -0.2644  1.3130  0.1047
  745SOL    HW2 7083   9.303   1.784   3.986  0.8914  0.6389 -0.4960
  746SOL     OW 7084   1.341   1.404   1.939  0.1052 -0.4280 -0.2197
  746SOL    HW1 7085   1.288   1.385   2.017  1.5454  0.2594  0.9348
  746SOL    HW2 7086   1.401   1.330   1.932  0.0193 -0.4583 -0.6412
  747SOL     OW 7087   1.024   1.025   2.492  0.6457 -0.2048  0.1333
  747SOL    HW1 7088   0.971   1.012   2.414 -0.0535 -0.4741  0.6549
  747SOL    HW2 7089   1.107   0.980   2.473  1.9975  2.9996 -2.0149
  748SOL     OW 7090   0.928   0.998   2.229 -0.7228 -0.4752 -0.5566
  748SOL    HW1 7091   0.888   0.949   2.157 -1.2960  0.6331 -1.0079
  748SOL    HW2 7092   1.015   1.020   2.197 -0.7169 -0.6043 -0.6310
  749SOL     OW 7093   8.004   0.855   3.506 -0.0133 -0.2267 -0.4963
  749SOL    HW1 7094   7.965   0.769   3.521  1.3303 -0.9787 -1.2272
  749SOL    HW2 7095   8.009   0.895   3.593 -1.7391 -0.3759 -0.2964
  750SOL     OW 7096   1.405   9.004   2.198 -0.0699 -0.2607 -0.4585
  750SOL    HW1 7097   1.490   9.036   2.167 -0.8075  1.6661 -0.5642
  750SOL    HW2 7098   1.425   8.954   2.277  1.1218  0.5505 -0.2412
  751SOL     OW 7099   2.110   0.791   2.960  0.3818 -0.6484  0.1096
  751SOL    HW1 7100   2.049   0.720   2.938 -0.7417  0.1830  0.4804
  751SOL    HW2 7101   2.194   0.762   2.925 -0.4826 -1.2657 -1.5263
  752SOL     OW 7102   0.822   1.394   2.732  0.6529  0.4878 -0.5255
  752SOL    HW1 7103   0.867   1.362   2.811  1.3361  1.2628 -0.6004
  752SOL    HW2 7104   0.811   1.316   2.678 -1.5062 -0.4333  1.1325
  753SOL     OW 7105   1.360   2.908   2.069 -0.1845  0.2702 -0.0321
  753SOL    HW1 7106   1.389   2.872   2.153 -0.7343  1.1315  0.5298
  753SOL    HW2 7107   1.287   2.966   2.092 -1.1893 -0.4959 -1.2337
  754SOL     OW 7108   2.528   9.883   2.434  0.7358  0.1898 -0.1618
  754SOL    HW1 7109   2.623   9.880   2.449  0.6823  0.8181  0.3841
  754SOL    HW2 7110   2.518   9.942   2.360  0.6569  1.9322  1.1868
  755SOL     OW 7111   9.693   1.464   2.483 -0.5574  0.1429  0.7009
  755SOL    HW1 7112   9.639   1.391   2.513 -0.0688 -0.5719 -0.1647
  755SOL    HW2 7113   9.756   1.478   2.554 -0.1467 -0.7881  0.5198
  756SOL     OW 7114   8.579   0.547   4.600 -0.2833 -0.5973 -1.3066
  756SOL    HW1 7115   8.604   0.634   4.568 -0.1092 -0.4448 -0.7623
  756SOL    HW2 7116   8.620   0.541   4.686 -0.3753 -1.1846 -1.3044
  757SOL     OW 7117   2.034   1.531   3.598  0.1223 -0.6845 -0.3657
  757SOL    HW1 7118   1.990   1.469   3.656 -0.1013  0.0851  0.3001
  757SOL    HW2 7119   1.974   1.606   3.593  0.7621 -0.1747 -0.4932
  758SOL     OW 7120   0.534   0.755   3.222  0.0508 -0.7244  0.1648
  758SOL    HW1 7121   0.557   0.663   3.229  1.4925 -0.5201 -1.5146
  758SOL    HW2 7122   0.472   0.759   3.149  1.0649 -0.1925 -0.6739
  759SOL     OW 7123   2.654   1.289   2.978  0.0474 -0.2482 -0.6435
  759SOL    HW1 7124   2.717   1.278   3.049 -0.9383  1.4065  0.5578
  759SOL    HW2 7125   2.587   1.223   2.995 -1.0159  1.1670  0.9820
  760SOL     OW 7126   8.841   0.716   3.831  0.5372 -0.1483  0.1324
  760SOL    HW1 7127   8.927   0.702   3.792  0.4264 -1.0765  0.2168
  760SOL    HW2 7128   8.847   0.676   3.917 -0.9506 -3.0353 -1.0338
  761SOL     OW 7129   9.991   1.027   3.959 -0.1112 -0.6640 -0.1775
  761SOL    HW1 7130   9.931   0.985   4.020  0.2597 -0.0867  0.6043
  761SOL    HW2 7131   9.944   1.104   3.928 -0.0528 -0.6037 -0.1170
  762SOL     OW 7132   9.994   1.865   2.060 -0.0591  0.1781 -0.0368
  762SOL    HW1 7133  10.070   1.878   2.116  0.6827  0.5423 -1.1237
  762SOL    HW2 7134   9.926   1.921   2.099  0.4182  0.3721  0.5295
  763SOL     OW 7135   0.571   9.944   1.583 -0.3547  0.6367 -0.1471
  763SOL    HW1 7136   0.488   9.987   1.604 -1.6928 -1.0737 -1.8096
  763SOL    HW2 7137   0.593   9.895   1.662  0.4824  3.1803  1.2653
  764SOL     OW 7138   0.569   1.400   3.318  0.2299 -0.0961  0.1296
  764SOL    HW1 7139   0.474   1.402   3.321  0.2094 -1.9404  1.7830
  764SOL    HW2 7140   0.596   1.491   3.330 -1.2906  0.3221  0.4767
  765SOL     OW 7141   0.649   9.334   2.615  0.5444  0.1733 -0.6404
  765SOL    HW1 7142   0.736   9.366   2.590  1.0773  0.0832  1.0393
  765SOL    HW2 7143   0.639   9.253   2.566  2.2496 -0.8486  0.6138
  766SOL     OW 7144   2.905   1.557   2.765 -0.1665  0.6449  0.4915
  766SOL    HW1 7145   2.822   1.575   2.809  0.3134  0.8405  1.3174
  766SOL    HW2 7146   2.880   1.500   2.692 -0.8226 -0.7043  1.7233
  767SOL     OW 7147   0.519   1.369   2.482 -0.6011 -0.0207 -0.6168
  767SOL    HW1 7148   0.499   1.425   2.407  0.9191  0.8725 -0.3846
  767SOL    HW2 7149   0.589   1.311   2.452 -3.0068 -2.7219 -1.2526
  768SOL     OW 7150   0.465   1.829   1.633 -0.7418 -0.6905  0.4565
  768SOL    HW1 7151   0.454   1.840   1.539  0.6085  0.7079  0.4281
  768SOL    HW2 7152   0.518   1.750   1.642 -0.0393 -0.2850 -0.0283
  769SOL     OW 7153   1.878   1.010   4.151 -0.2844 -0.3159 -0.2308
  769SOL    HW1 7154   1.922   1.023   4.067  0.2010  0.5052  0.1485
  769SOL    HW2 7155   1.802   1.067   4.148 -0.4057 -0.4744 -0.2087
  770SOL     OW 7156   9.439   1.024   2.745  0.1384  0.4396 -0.6801
  770SOL    HW1 7157   9.414   1.039   2.653 -1.2247  1.0773 -0.2154
  770SOL    HW2 7158   9.465   1.110   2.777  1.8566 -0.0131 -0.8227
  771SOL     OW 7159   1.136   0.457   2.736  0.0531  0.3829 -0.8354
  771SOL    HW1 7160   1.066   0.492   2.791 -0.0988 -1.2804  0.0499
  771SOL    HW2 7161   1.149   0.524   2.669 -1.1897  1.4909  0.0016
  772SOL     OW 7162   1.194   0.195   2.759 -0.1603  0.0164 -0.4917
  772SOL    HW1 7163   1.104   0.169   2.780 -0.2169  0.8282  0.3354
  772SOL    HW2 7164   1.186   0.285   2.728  0.2601 -0.2339 -1.3207
  773SOL     OW 7165   0.785   0.176   4.021 -0.1478  0.0735 -0.7399
  773SOL    HW1 7166   0.694   0.161   4.046  0.2395 -1.0375  0.0261
  773SOL    HW2 7167   0.796   0.271   4.027 -1.7552  0.4194 -2.6342
  774SOL     OW 7168   1.436   0.101   3.303  0.4180  0.4963 -0.0757
  774SOL    HW1 7169   1.443   0.195   3.286  0.0010  0.5304 -0.0587
  774SOL    HW2 7170   1.353   0.076   3.263  0.4330  0.1750  0.0965
  775SOL     OW 7171   8.199   1.030   2.651 -0.3585  0.0034  0.3203
  775SOL    HW1 7172   8.140   0.967   2.608  0.5609  0.9177 -2.3803
  775SOL    HW2 7173   8.277   0.978   2.673  0.2952  0.0853 -1.6703
  776SOL     OW 7174   1.170   1.195   4.405 -0.5313  0.0497 -0.2814
  776SOL    HW1 7175   1.074   1.188   4.400 -0.8310  3.8629 -4.5066
  776SOL    HW2 7176   1.200   1.162   4.320  1.6965  0.6837  0.2411
  777SOL     OW 7177   1.491   1.927   3.804  0.5242 -0.4382 -0.1399
  777SOL    HW1 7178   1.501   1.832   3.799 -1.7605 -0.7234  0.0379
  777SOL    HW2 7179   1.511   1.958   3.715  1.5579 -1.0417 -0.1258
  778SOL     OW 7180   0.863   9.798   2.246 -0.4295 -0.4242 -0.1319
  778SOL    HW1 7181   0.823   9.763   2.166  0.7980 -0.0221 -0.9361
  778SOL    HW2 7182   0.954   9.768   2.242 -0.0325  0.6848  0.4851
  779SOL     OW 7183   0.584   9.212   1.901  0.8774  0.7269  0.1481
  779SOL    HW1 7184   0.581   9.217   1.806 -1.6671 -2.7692 -0.0834
  779SOL    HW2 7185   0.643   9.139   1.920 -0.2655  0.0260  1.1356
  780SOL     OW 7186   0.736   1.047   1.354  0.1572  0.0865 -0.0033
  780SOL    HW1 7187   0.789   1.072   1.279  0.1602  0.4597  0.1243
  780SOL    HW2 7188   0.798   1.003   1.413  0.6347  1.7664  0.7763
  781SOL     OW 7189   1.372   1.108   2.451  0.1007  0.6062  0.6177
  781SOL    HW1 7190   1.466   1.106   2.470 -0.2482  0.3321  2.4324
  781SOL    HW2 7191   1.355   1.200   2.428  0.9366  0.4993 -0.5021
  782SOL     OW 7192   0.697   9.757   1.804 -0.2749 -0.0392 -0.1589
  782SOL    HW1 7193   0.677   9.668   1.775  2.3517 -0.8288  0.2750
  782SOL    HW2 7194   0.726   9.746   1.894 -0.6637  1.3663  0.1432
  783SOL     OW 7195   1.109   9.052   2.219 -0.0316 -0.2632  0.2175
  783SOL    HW1 7196   1.040   9.003   2.263 -0.6609  0.3577 -0.0757
  783SOL    HW2 7197   1.094   9.143   2.244  0.8768 -0.1637  0.4195
  784SOL     OW 7198   2.180   0.214   2.070  0.4251  0.1241  0.1853
  784SOL    HW1 7199   2.195   0.183   2.159 -1.6731  0.1961  0.5910
  784SOL    HW2 7200   2.268   0.228   2.034  1.3025 -1.1509  1.7875
  785SOL     OW 7201   0.020   0.768   1.799 -0.2676  0.2179 -0.1932
  785SOL    HW1 7202   0.106   0.785   1.759  0.0521 -0.0368  0.3822
  785SOL    HW2 7203  -0.043   0.790   1.731  0.3057 -1.2498 -1.2200
  786SOL     OW 7204   1.879   2.424   3.422  0.2462 -0.2279  0.5667
  786SOL    HW1 7205   1.813   2.408   3.355 -0.2352  1.3081  0.6721
  786SOL    HW2 7206   1.833   2.411   3.505  0.5719 -1.0345  0.6367
  787SOL     OW 7207   0.933   9.684   3.956 -0.1970 -0.1417  0.2244
  787SOL    HW1 7208   0.864   9.720   4.011  0.5699  0.3180  0.9085
  787SOL    HW2 7209   0.978   9.620   4.011  0.0675 -0.2577 -0.1237
  788SOL     OW 7210   1.820   8.740   4.552  0.3509  0.0078  0.0894
  788SOL    HW1 7211   1.821   8.828   4.591  0.1938 -0.4483  1.1478
  788SOL    HW2 7212   1.820   8.755   4.458 -0.3423  1.1481  0.2683
  789SOL     OW 7213   3.125   2.536   5.484  0.4686 -1.0573 -0.1906
  789SOL    HW1 7214   3.128   2.565   5.575  0.1369 -1.3409 -0.0884
  789SOL    HW2 7215   3.076   2.605   5.438  0.0124 -1.2587 -0.0175
  790SOL     OW 7216   0.874   0.444   4.298 -0.3596 -0.2949  0.4366
  790SOL    HW1 7217   0.784   0.463   4.324 -0.0047 -1.7136  2.8301
  790SOL    HW2 7218   0.895   0.362   4.342  2.1328  0.0469 -0.0386
  791SOL     OW 7219   2.438   1.433   3.073 -0.1810  0.1127  0.0930
  791SOL    HW1 7220   2.491   1.437   2.993  0.0278  1.8768  0.2850
  791SOL    HW2 7221   2.355   1.396   3.044  0.8917 -2.0143 -0.3502
  792SOL     OW 7222   0.276   0.918   3.858  0.1069 -0.0301 -0.0961
  792SOL    HW1 7223   0.349   0.969   3.823  0.5876 -0.0662  0.8517
  792SOL    HW2 7224   0.316   0.857   3.919 -0.6503 -0.4836 -0.0462
  793SOL     OW 7225   0.898   9.683   5.275  0.2762 -0.1703 -0.1193
  793SOL    HW1 7226   0.879   9.717   5.363 -1.1180  0.0458 -0.4933
  793SOL    HW2 7227   0.981   9.636   5.285  0.5021  0.4731  1.1500
  794SOL     OW 7228   1.713   2.029   3.953 -0.2909  0.4454  0.4275
  794SOL    HW1 7229   1.641   2.000   3.896  0.2595  0.7328 -0.4181
  794SOL    HW2 7230   1.725   2.121   3.932 -0.5686  0.7495  1.5440
  795SOL     OW 7231   1.723   1.293   7.213  0.4117 -0.5234  0.0331
  795SOL    HW1 7232   1.740   1.337   7.296  0.7867  1.4116 -1.0428
  795SOL    HW2 7233   1.761   1.350   7.147 -2.9619 -0.2457 -1.7714
  796SOL     OW 7234   0.868   0.176   5.662 -0.3798 -0.3996 -0.2437
  796SOL    HW1 7235   0.803   0.140   5.721 -1.1477 -0.1705 -0.9364
  796SOL    HW2 7236   0.817   0.216   5.591  0.4775  0.6507 -0.2965
  797SOL     OW 7237   0.895   8.704   5.009 -0.0148  0.4561 -0.0936
  797SOL    HW1 7238   0.806   8.684   4.979  0.1496  2.9271 -2.4483
  797SOL    HW2 7239   0.882   8.747   5.093 -0.8632 -1.5872  0.8472
  798SOL     OW 7240   0.520   0.901   6.403  0.3247  0.0316  0.8596
  798SOL    HW1 7241   0.600   0.901   6.350 -0.7385 -0.6821 -0.7902
  798SOL    HW2 7242   0.459   0.957   6.355 -0.0434  0.9180  2.3286
  799SOL     OW 7243   9.542   9.964   4.568 -0.1239 -0.3629 -0.3165
  799SOL    HW1 7244   9.621   9.943   4.617 -0.1658 -1.5084 -0.7160
  799SOL    HW2 7245   9.574  10.001   4.485 -0.0033 -0.5503 -0.3550
  800SOL     OW 7246   0.686   1.457   5.272  0.0128 -0.0154  0.2804
  800SOL    HW1 7247   0.597   1.467   5.305 -0.4544 -1.0360 -0.6396
  800SOL    HW2 7248   0.704   1.538   5.226 -0.6348 -0.0199  0.0169
  801SOL     OW 7249   9.557   1.910   2.565  0.5155 -0.0847  0.1048
  801SOL    HW1 7250   9.475   1.877   2.527 -0.1484 -0.1478  1.5732
  801SOL    HW2 7251   9.625   1.853   2.529  0.0457  0.5765 -1.8963
  802SOL     OW 7252   2.487   9.000   6.321 -0.1768  0.1586  0.1515
  802SOL    HW1 7253   2.461   8.961   6.238  1.8953 -1.1318  0.0862
  802SOL    HW2 7254   2.463   8.935   6.388  2.7384 -1.0394  0.0915
  803SOL     OW 7255   9.890   0.536   4.328  0.0135  0.2584  0.3731
  803SOL    HW1 7256   9.906   0.615   4.380 -0.1092  1.3597 -1.2313
  803SOL    HW2 7257   9.969   0.483   4.341  1.1027  1.6649 -0.3446
  804SOL     OW 7258   2.284   0.959   3.620 -0.1947  0.1877  0.0308
  804SOL    HW1 7259   2.211   0.898   3.616  0.7737 -0.9313 -0.8235
  804SOL    HW2 7260   2.242   1.045   3.630 -1.5656 -0.5825  1.1324
  805SOL     OW 7261   1.146   0.219   3.581 -0.4381 -0.0328 -0.2134
  805SOL    HW1 7262   1.096   0.207   3.662  0.5725 -1.4879  0.2122
  805SOL    HW2 7263   1.118   0.147   3.524 -0.0855  0.1521 -0.6248
  806SOL     OW 7264   9.470   0.574   5.548  0.5010 -0.3463 -0.1594
  806SOL    HW1 7265   9.464   0.541   5.638  0.3247  1.4188  0.5029
  806SOL    HW2 7266   9.559   0.609   5.541  0.2719  0.1772 -0.4458
  807SOL     OW 7267   1.058   9.771   5.037  0.0827 -0.8401  0.0791
  807SOL    HW1 7268   1.103   9.816   4.965 -1.5262  1.1407  0.2786
  807SOL    HW2 7269   1.064   9.833   5.110  2.2447 -3.0774  1.8912
  808SOL     OW 7270   0.710   1.594   6.771  0.6537 -0.0318 -0.1753
  808SOL    HW1 7271   0.701   1.593   6.676 -0.3149 -0.5990 -0.0841
  808SOL    HW2 7272   0.684   1.683   6.796 -0.0020 -0.1713 -0.3592
  809SOL     OW 7273   1.011   9.996   3.531  0.1888 -0.7784  0.4380
  809SOL    HW1 7274   0.925   9.984   3.571 -0.2146  1.9984  0.4968
  809SOL    HW2 7275   1.072   9.956   3.592 -1.1615 -4.3320 -0.4223
  810SOL     OW 7276   9.456   0.479   4.411 -0.0794 -0.2175  0.3086
  810SOL    HW1 7277   9.406   0.418   4.466  0.7176 -1.5258 -0.3826
  810SOL    HW2 7278   9.537   0.432   4.392  0.4559  0.9893 -0.4146
  811SOL     OW 7279   1.816   2.300   3.841  0.4245 -0.6514 -0.1449
  811SOL    HW1 7280   1.778   2.362   3.779 -0.9860 -0.6399  0.7181
  811SOL    HW2 7281   1.904   2.282   3.806 -0.6602 -1.3133 -2.6387
  812SOL     OW 7282   2.347   2.280   6.051  0.4800  0.3195 -0.4106
  812SOL    HW1 7283   2.254   2.300   6.053  0.3971 -0.0723 -0.1832
  812SOL    HW2 7284   2.353   2.190   6.085  1.0533  0.7658  0.6889
  813SOL     OW 7285   1.033   1.973   2.150  0.2144 -0.1605  0.0815
  813SOL    HW1 7286   1.075   2.050   2.189 -0.0754 -0.3794  0.8265
  813SOL    HW2 7287   1.085   1.955   2.071  1.2860 -0.1835  0.7750
  814SOL     OW 7288   2.424   2.102   3.670  0.1928  0.4134  0.2343
  814SOL    HW1 7289   2.390   2.082   3.757  0.7004  0.0032  0.3427
  814SOL    HW2 7290   2.348   2.094   3.612  0.0586 -0.2821  0.5013
  815SOL     OW 7291   9.988   9.627   1.955 -0.1542  0.4705  0.2997
  815SOL    HW1 7292   9.984   9.651   1.863  0.7764  1.6321  0.5491
  815SOL    HW2 7293  10.048   9.552   1.958  0.4884  0.9657  0.0523
  816SOL     OW 7294   0.468   1.626   4.249 -0.1642  0.4953 -0.3130
  816SOL    HW1 7295   0.460   1.591   4.338 -0.9022 -1.2260 -1.0360
  816SOL    HW2 7296   0.538   1.691   4.256  0.6994 -0.5469  1.2568
  817SOL     OW 7297   0.816   1.647   3.668 -0.1387  0.0847  0.5113
  817SOL    HW1 7298   0.731   1.684   3.644  0.9830  1.1404 -2.0752
  817SOL    HW2 7299   0.864   1.720   3.706  0.3707  0.0800 -0.1069
  818SOL     OW 7300   1.514   9.227   5.995 -0.1272 -0.2298 -0.0390
  818SOL    HW1 7301   1.446   9.225   5.927 -1.3556 -0.4446  1.1648
  818SOL    HW2 7302   1.512   9.139   6.033  0.9523 -0.2864 -0.1022
  819SOL     OW 7303   1.486   1.406   5.412  0.4562 -0.8406 -0.7739
  819SOL    HW1 7304   1.510   1.472   5.347 -1.0502  1.6167  1.0641
  819SOL    HW2 7305   1.404   1.369   5.381  0.7041 -1.0277 -1.2118
  820SOL     OW 7306   0.130   0.752   6.002  0.5962  0.3085 -0.5430
  820SOL    HW1 7307   0.094   0.841   5.999  0.7662  0.3686 -0.8185
  820SOL    HW2 7308   0.142   0.734   6.095 -3.0693 -0.9064 -0.2185
  821SOL     OW 7309   0.334   1.584   2.648  0.4736 -0.5594 -0.8750
  821SOL    HW1 7310   0.361   1.674   2.631 -1.5693  0.3933  0.6676
  821SOL    HW2 7311   0.246   1.579   2.610 -1.3373 -0.4449  3.0533
  822SOL     OW 7312   0.039   1.625   6.418  0.6331  0.2906  0.3882
  822SOL    HW1 7313   0.022   1.593   6.507 -2.8384  0.0699 -0.2504
  822SOL    HW2 7314   0.052   1.719   6.429 -1.7822  0.6039  0.9918
  823SOL     OW 7315   0.737   1.185   4.162 -0.0798  0.0472 -0.4420
  823SOL    HW1 7316   0.767   1.251   4.224  0.3968 -2.1348  1.7350
  823SOL    HW2 7317   0.642   1.180   4.177 -0.4524  1.5998 -2.0318
  824SOL     OW 7318   0.932   9.981   4.580 -0.0401  0.2419 -0.2279
  824SOL    HW1 7319   0.888   9.987   4.664 -0.4798 -1.6590 -0.3070
  824SOL    HW2 7320   0.915   9.892   4.550  0.1354  0.8724 -2.3107
  825SOL     OW 7321   1.084   9.795   5.717  0.0324 -0.2167  0.5321
  825SOL    HW1 7322   1.037   9.815   5.636  1.2880  1.3326  0.1611
  825SOL    HW2 7323   1.015   9.776   5.781 -0.9701 -1.6234 -0.9252
  826SOL     OW 7324   1.461   0.104   4.211 -0.0572 -0.4348 -0.5063
  826SOL    HW1 7325   1.517   0.063   4.276 -0.7535  1.8300  1.6168
  826SOL    HW2 7326   1.395   0.151   4.262 -0.8278  1.1393 -2.8510
  827SOL     OW 7327   1.076   0.734   3.270 -0.1339  0.3717  0.1482
  827SOL    HW1 7328   1.031   0.729   3.355  0.3050  1.6766  0.4652
  827SOL    HW2 7329   1.154   0.680   3.281 -1.8802 -2.3813 -0.5890
  828SOL     OW 7330   1.867   9.885   5.244  0.0430 -0.5584 -0.8858
  828SOL    HW1 7331   1.817   9.812   5.281 -0.9402  1.4409  1.8692
  828SOL    HW2 7332   1.958   9.858   5.252 -0.1631 -0.4972  2.4614
  829SOL     OW 7333   9.792   0.787   6.200 -0.0809  0.1487 -0.4545
  829SOL    HW1 7334   9.839   0.828   6.273 -0.4729 -0.7211  0.2890
  829SOL    HW2 7335   9.803   0.693   6.214  1.7928 -0.0078 -2.8065
  830SOL     OW 7336   0.708   0.700   4.427 -1.1534 -0.2578  0.1147
  830SOL    HW1 7337   0.691   0.728   4.337 -0.6762  1.1270  0.4303
  830SOL    HW2 7338   0.669   0.613   4.433 -3.2074  0.5496 -0.7696
  831SOL     OW 7339   1.735   0.327   4.865  0.4333  0.0227 -0.1416
  831SOL    HW1 7340   1.722   0.418   4.840 -0.1014  0.5497  1.9362
  831SOL    HW2 7341   1.651   0.285   4.846  0.3910  0.1694 -0.2779
  832SOL     OW 7342   9.937   3.228   6.323 -0.2538 -0.2922 -0.0870
  832SOL    HW1 7343   9.847   3.195   6.328  0.0615 -1.3714 -1.4325
  832SOL    HW2 7344   9.970   3.219   6.413 -1.3321 -0.2885  0.3271
  833SOL     OW 7345   0.439   1.864   2.958 -0.2773 -0.0024  0.2708
  833SOL    HW1 7346   0.507   1.814   2.913  1.0133  1.1790  0.8683
  833SOL    HW2 7347   0.455   1.955   2.934 -0.6745  0.4557  1.6704
  834SOL     OW 7348   1.622   0.469   4.192  0.3171 -0.0126  0.4576
  834SOL    HW1 7349   1.713   0.483   4.216  0.5051 -0.6337  0.1044
  834SOL    HW2 7350   1.572   0.512   4.262  0.8641 -1.0276  1.4892
  835SOL     OW 7351   0.607   0.445   4.776 -0.7331 -0.0293 -0.3812
  835SOL    HW1 7352   0.640   0.462   4.688 -1.7062 -0.0793 -0.7623
  835SOL    HW2 7353   0.624   0.352   4.791 -0.3407  0.0380 -0.4232
  836SOL     OW 7354   0.309   3.838   3.913 -0.5660  0.5114  0.7913
  836SOL    HW1 7355   0.234   3.784   3.937 -1.4051  1.2163 -0.2459
  836SOL    HW2 7356   0.372   3.776   3.875 -0.7788 -0.0113  1.2837
  837SOL     OW 7357   9.996   8.961   3.229 -0.2682 -0.8663 -0.0011
  837SOL    HW1 7358  10.025   8.957   3.320  0.4569 -0.8411 -0.2275
  837SOL    HW2 7359  10.076   8.979   3.179 -0.8954  0.5638 -0.5069
  838SOL     OW 7360   0.763   1.194   3.583 -0.0960  0.1911 -0.1055
  838SOL    HW1 7361   0.838   1.251   3.600  0.7938 -1.1896  0.6482
  838SOL    HW2 7362   0.690   1.238   3.626  0.6346  0.6302  0.7166
  839SOL     OW 7363   1.894   1.800   6.208 -0.8370  0.6272 -0.1652
  839SOL    HW1 7364   1.901   1.786   6.302  2.3755  0.3941 -0.3711
  839SOL    HW2 7365   1.959   1.868   6.189 -0.3804 -0.3813 -2.3945
  840SOL     OW 7366   0.632   0.202   5.016 -0.0473  0.2395 -0.5726
  840SOL    HW1 7367   0.588   0.171   4.937  1.6912  2.7849 -2.6243
  840SOL    HW2 7368   0.576   0.273   5.048  0.4989  0.8225 -0.9082
  841SOL     OW 7369   1.080   8.450   5.938  0.5308 -0.0340  0.0555
  841SOL    HW1 7370   1.036   8.449   5.853 -1.9334 -0.5937  1.2958
  841SOL    HW2 7371   1.169   8.482   5.918 -0.0959  0.1897 -2.6505
  842SOL     OW 7372   1.046   9.748   4.385 -0.1450  0.0859 -0.5360
  842SOL    HW1 7373   1.130   9.726   4.424 -0.9487 -0.6258  0.8346
  842SOL    HW2 7374   1.066   9.817   4.322  1.5405 -0.4918 -0.6424
  843SOL     OW 7375   1.369   0.332   3.167  0.7796 -0.3356  0.4720
  843SOL    HW1 7376   1.363   0.265   3.099  0.9229  0.7084 -0.5954
  843SOL    HW2 7377   1.365   0.415   3.119 -0.3241  0.4245  1.8557
  844SOL     OW 7378   0.475   9.444   4.263  0.0682  0.1722 -0.6682
  844SOL    HW1 7379   0.540   9.512   4.282  1.1095 -0.7668 -0.8304
  844SOL    HW2 7380   0.435   9.426   4.348 -0.0863  0.8545 -0.5919
  845SOL     OW 7381   0.154   1.134   3.638  0.4795 -0.3460 -0.4085
  845SOL    HW1 7382   0.215   1.152   3.567  0.7244  0.7966  0.0855
  845SOL    HW2 7383   0.098   1.211   3.643  0.5595 -0.3447  0.7424
  846SOL     OW 7384   0.465   1.097   3.471  0.2360 -0.2767  0.1054
  846SOL    HW1 7385   0.401   1.148   3.422  1.0926 -0.4353 -1.2094
  846SOL    HW2 7386   0.497   1.156   3.539  1.4364  1.0521 -1.5864
  847SOL     OW 7387   1.505   1.398   4.208 -0.8228  0.0835  0.3115
  847SOL    HW1 7388   1.563   1.433   4.276  2.3423 -0.4586 -2.0111
  847SOL    HW2 7389   1.424   1.377   4.255  0.8767  0.6953  3.7139
  848SOL     OW 7390   0.622   0.446   4.383  0.2396  0.5137  0.0699
  848SOL    HW1 7391   0.574   0.440   4.301 -0.3703  2.3442  0.2676
  848SOL    HW2 7392   0.580   0.382   4.440  0.2368 -0.2971 -0.8287
  849SOL     OW 7393   1.013   1.949   5.779 -0.1940  0.5297 -0.1453
  849SOL    HW1 7394   0.918   1.937   5.772 -0.1897 -2.5593  3.4700
  849SOL    HW2 7395   1.024   2.017   5.844  0.0809  0.6833 -0.3505
  850SOL     OW 7396   1.546   1.256   3.845 -0.0953 -0.0006  0.1167
  850SOL    HW1 7397   1.516   1.290   3.929  1.1675 -1.9447  1.4152
  850SOL    HW2 7398   1.468   1.217   3.806 -0.1272 -1.7474  1.7994
  851SOL     OW 7399   1.369   1.151   4.610  0.1370  0.5598 -0.0702
  851SOL    HW1 7400   1.304   1.186   4.550 -2.2722  0.9902  2.6894
  851SOL    HW2 7401   1.378   1.059   4.584 -0.3900  0.9079 -1.4996
  852SOL     OW 7402   1.425   1.146   3.550 -0.0236 -0.3645  0.3539
  852SOL    HW1 7403   1.485   1.072   3.558 -0.5100 -0.8808 -0.6884
  852SOL    HW2 7404   1.345   1.108   3.515 -0.5151  0.5432  0.4732
  853SOL     OW 7405   1.101   1.063   5.295 -0.0421  0.1996 -0.1343
  853SOL    HW1 7406   1.034   1.088   5.359 -0.4313 -1.1161 -0.0151
  853SOL    HW2 7407   1.172   1.125   5.309 -0.9564  1.1791  0.2098
  854SOL     OW 7408   0.181   1.402   4.214 -0.5417 -1.0285  0.5933
  854SOL    HW1 7409   0.130   1.323   4.197 -3.5269  0.7607  1.0259
  854SOL    HW2 7410   0.199   1.399   4.308 -0.9112 -1.0190  0.6632
  855SOL     OW 7411   0.543   9.716   4.051 -0.1261 -0.0514  0.7854
  855SOL    HW1 7412   0.467   9.775   4.048 -1.3457 -1.5773  0.8075
  855SOL    HW2 7413   0.528   9.655   3.979 -0.3927 -2.1129  2.5389
  856SOL     OW 7414   0.810   0.848   2.064  0.8316 -0.4448  0.4969
  856SOL    HW1 7415   0.810   0.839   1.968  0.6248  0.0736  0.4450
  856SOL    HW2 7416   0.801   0.759   2.096 -2.0391 -0.4027 -0.0027
  857SOL     OW 7417   1.971   9.434   4.631  0.4375  0.1483  0.3240
  857SOL    HW1 7418   2.040   9.394   4.684  0.3180 -1.1012 -0.4338
  857SOL    HW2 7419   1.890   9.403   4.671  0.3245  0.6725  0.5037
  858SOL     OW 7420   1.982   1.872   4.439 -0.0965 -0.3253  0.0520
  858SOL    HW1 7421   2.035   1.814   4.494  0.8157  1.1920  0.8006
  858SOL    HW2 7422   1.981   1.828   4.353  0.0717 -1.7414  0.7512
  859SOL     OW 7423   1.246   1.349   5.274  0.6083 -0.0637  0.6749
  859SOL    HW1 7424   1.244   1.291   5.198  1.0754 -1.4186  1.6789
  859SOL    HW2 7425   1.184   1.419   5.253 -0.1071 -1.0331 -0.4528
  860SOL     OW 7426   4.742   0.699   2.949 -0.3179  0.2655  0.0719
  860SOL    HW1 7427   4.692   0.658   3.019  0.5805  0.1336  0.6442
  860SOL    HW2 7428   4.761   0.787   2.980 -1.2280  0.7253 -0.6584
  861SOL     OW 7429   0.678   0.524   3.551 -0.1469 -0.0487  0.2325
  861SOL    HW1 7430   0.767   0.487   3.553 -0.4938 -0.9186  0.0596
  861SOL    HW2 7431   0.689   0.611   3.514  0.5641 -0.3915 -0.3789
  862SOL     OW 7432   1.082   8.988   5.398  0.3782  0.7118  0.4794
  862SOL    HW1 7433   1.060   8.953   5.485  1.8494 -0.0400  0.5537
  862SOL    HW2 7434   0.997   9.009   5.359 -0.3883 -0.4488  1.4795
  863SOL     OW 7435   9.546   2.191   6.316  0.5147  0.0157 -0.0471
  863SOL    HW1 7436   9.488   2.176   6.241  0.0959 -1.9629  0.6508
  863SOL    HW2 7437   9.614   2.248   6.281  0.4855 -1.0938 -2.0398
  864SOL     OW 7438   2.896   2.255   4.943 -0.3551  0.6106 -0.3166
  864SOL    HW1 7439   2.974   2.277   4.994  0.0095 -0.5564 -0.3455
  864SOL    HW2 7440   2.929   2.240   4.854 -0.3798 -1.3163 -0.0178
  865SOL     OW 7441   1.164   0.578   6.209  0.0842 -0.2784  0.0099
  865SOL    HW1 7442   1.185   0.582   6.116  0.1907  1.6901  0.1022
  865SOL    HW2 7443   1.137   0.487   6.223 -0.5838 -0.4412 -2.0827
  866SOL     OW 7444   1.653   0.839   3.813 -0.1033  0.6876  0.4559
  866SOL    HW1 7445   1.632   0.763   3.757 -0.2540  1.3217 -0.3658
  866SOL    HW2 7446   1.650   0.805   3.902 -2.1193  0.1437  0.2219
  867SOL     OW 7447   1.255   9.991   5.421 -0.3582  0.6093  0.3288
  867SOL    HW1 7448   1.314   9.921   5.449 -1.3786 -0.0452  0.8667
  867SOL    HW2 7449   1.223  10.029   5.503 -0.0693  1.4956  0.0407
  868SOL     OW 7450   1.939   9.606   6.259  0.1376  0.2495  0.7744
  868SOL    HW1 7451   1.871   9.663   6.222 -0.6636 -1.5310 -0.5731
  868SOL    HW2 7452   1.951   9.638   6.349 -1.4046  1.5252  0.5493
  869SOL     OW 7453   0.333   1.159   5.474 -0.3444  0.5309  0.1367
  869SOL    HW1 7454   0.274   1.234   5.483 -1.5581 -0.6344  2.2932
  869SOL    HW2 7455   0.275   1.083   5.479  0.4560 -0.5985 -5.1912
  870SOL     OW 7456   0.978   0.668   4.117 -0.3810  0.1351 -0.5328
  870SOL    HW1 7457   0.897   0.685   4.068 -1.0248  2.2014  1.1722
  870SOL    HW2 7458   0.948   0.634   4.201  0.6551 -1.5868 -0.8250
  871SOL     OW 7459   0.707   1.455   4.279 -0.6657 -0.6015 -0.1806
  871SOL    HW1 7460   0.644   1.461   4.351 -1.6233  1.4093 -1.1587
  871SOL    HW2 7461   0.694   1.535   4.229  1.2286 -1.1489 -1.5999
  872SOL     OW 7462   0.635   1.318   7.659 -0.2511  0.2275 -0.1890
  872SOL    HW1 7463   0.604   1.318   7.569  0.9393 -0.7369 -0.6058
  872SOL    HW2 7464   0.682   1.235   7.669  0.5325  0.7946  0.9987
  873SOL     OW 7465   0.235   0.514   4.742 -0.7877 -0.3393 -0.5992
  873SOL    HW1 7466   0.307   0.464   4.704 -0.7402  0.3320 -1.4066
  873SOL    HW2 7467   0.180   0.538   4.668 -1.7840 -0.7427 -0.0032
  874SOL     OW 7468   9.886   2.097   2.535 -0.4875 -0.5898  0.6628
  874SOL    HW1 7469   9.829   2.146   2.475 -0.7121 -1.2149  0.3580
  874SOL    HW2 7470   9.839   2.098   2.619 -0.2511  0.1443  0.7888
  875SOL     OW 7471   0.427   0.458   5.058 -0.5332  0.2083 -0.1931
  875SOL    HW1 7472   0.496   0.518   5.087  1.7294 -2.3506 -0.0439
  875SOL    HW2 7473   0.420   0.472   4.963 -0.4598  1.1418 -0.0570
  876SOL     OW 7474   0.645   1.659   3.360 -0.5085 -0.7177 -0.4613
  876SOL    HW1 7475   0.734   1.692   3.358 -0.1019 -1.5948  1.4429
  876SOL    HW2 7476   0.594   1.723   3.312  1.0162  0.2281 -0.8433
  877SOL     OW 7477   1.086   9.524   4.658 -0.1015  0.0408  0.2576
  877SOL    HW1 7478   1.006   9.528   4.605  1.3302 -0.2114 -1.9989
  877SOL    HW2 7479   1.099   9.613   4.689  0.5544  0.8263 -2.1911
  878SOL     OW 7480   1.232   1.727   5.848  0.2295  1.1402  0.5102
  878SOL    HW1 7481   1.172   1.656   5.870  1.3908  0.1273  0.4723
  878SOL    HW2 7482   1.185   1.780   5.784 -0.3564 -0.0347 -0.0525
  879SOL     OW 7483   0.896   8.390   6.424 -0.1130 -0.2354 -0.5632
  879SOL    HW1 7484   0.897   8.305   6.469 -1.4028 -0.7417 -1.4823
  879SOL    HW2 7485   0.878   8.454   6.493  1.0510 -0.6781  0.1667
  880SOL     OW 7486   0.576   0.057   5.474  0.2205  0.0077 -0.3821
  880SOL    HW1 7487   0.540   0.086   5.558  0.3868  0.3146 -0.4135
  880SOL    HW2 7488   0.633   0.129   5.447  0.3537 -0.1959 -0.6427
  881SOL     OW 7489   0.267   9.637   5.172  0.5726 -0.3221 -0.1273
  881SOL    HW1 7490   0.252   9.588   5.253 -0.1617  0.1162  0.0019
  881SOL    HW2 7491   0.350   9.683   5.187 -0.4381  1.1884  1.0972
  882SOL     OW 7492   9.162   0.998   5.958 -0.0851 -0.3507 -0.0470
  882SOL    HW1 7493   9.215   1.030   6.031 -0.8323 -0.7476  0.6807
  882SOL    HW2 7494   9.201   1.039   5.881  0.4300  0.4454  0.6178
  883SOL     OW 7495   1.175   0.101   4.540  0.7203  0.3220 -0.1157
  883SOL    HW1 7496   1.094   0.060   4.569  0.1895  0.9185 -0.7426
  883SOL    HW2 7497   1.244   0.045   4.576  0.0157 -1.0013 -0.7595
  884SOL     OW 7498   1.865   1.393   4.709  0.1904 -0.2499 -0.1272
  884SOL    HW1 7499   1.853   1.352   4.794 -3.4455 -2.8268 -1.7462
  884SOL    HW2 7500   1.892   1.321   4.651  1.6620  1.2621 -1.3694
  885SOL     OW 7501   9.924   0.201   4.574 -1.0334  0.6205 -0.5275
  885SOL    HW1 7502   9.984   0.251   4.519  0.2865  0.9663  1.1879
  885SOL    HW2 7503   9.945   0.227   4.663 -0.6066 -2.6205  0.4058
  886SOL     OW 7504   1.245   0.565   4.572 -0.1137 -0.5249  0.1113
  886SOL    HW1 7505   1.330   0.582   4.612  0.5372 -3.1228 -0.0632
  886SOL    HW2 7506   1.189   0.535   4.644 -0.7869  0.8093  0.1589
  887SOL     OW 7507   1.286   1.491   5.011  0.0993  0.0254 -0.1470
  887SOL    HW1 7508   1.219   1.435   5.050  0.8503 -1.1489 -0.5064
  887SOL    HW2 7509   1.325   1.438   4.942 -0.4599  1.6870 -1.7752
  888SOL     OW 7510   3.164   8.311   6.261  0.2127  0.1965 -0.4324
  888SOL    HW1 7511   3.072   8.287   6.267  0.2004  0.5438  1.0500
  888SOL    HW2 7512   3.164   8.407   6.268  0.6141  0.2847 -1.4981
  889SOL     OW 7513   1.163   9.374   4.158  0.3391  0.4316  0.0953
  889SOL    HW1 7514   1.078   9.418   4.166 -0.1026  0.0712 -2.3988
  889SOL    HW2 7515   1.227   9.443   4.179 -0.5540  0.6379  2.2294
  890SOL     OW 7516   1.247   1.449   4.688  0.8635 -0.7383 -0.1722
  890SOL    HW1 7517   1.220   1.360   4.667 -1.2870  0.2649 -1.9812
  890SOL    HW2 7518   1.306   1.474   4.616 -0.9537  0.2911 -1.3677
  891SOL     OW 7519   1.021   1.114   4.088  0.0108 -0.0914 -0.0412
  891SOL    HW1 7520   0.952   1.117   4.155 -0.4166  2.7183 -0.5173
  891SOL    HW2 7521   1.102   1.098   4.136 -0.4239  0.9481  1.0435
  892SOL     OW 7522   3.315   9.852   3.495 -0.1117  0.2206 -0.1622
  892SOL    HW1 7523   3.306   9.802   3.576 -0.5150 -1.7705 -1.3946
  892SOL    HW2 7524   3.278   9.938   3.515  0.6101  0.0374  2.0106
  893SOL     OW 7525   1.087   1.031   7.002 -0.3842 -0.1497 -0.0558
  893SOL    HW1 7526   1.014   1.072   6.956 -0.2048 -1.2556 -1.3309
  893SOL    HW2 7527   1.163   1.050   6.948  0.1363  0.1641  0.7737
  894SOL     OW 7528   2.880   9.866   5.453  0.1158 -0.4177 -0.4449
  894SOL    HW1 7529   2.946   9.859   5.384 -0.0729  0.5491 -0.7246
  894SOL    HW2 7530   2.808   9.913   5.413 -0.9204 -1.7937 -0.2473
  895SOL     OW 7531   1.050   1.226   2.668  0.3470  0.0185 -0.3806
  895SOL    HW1 7532   1.015   1.292   2.607 -0.7811 -0.5501 -0.3627
  895SOL    HW2 7533   1.075   1.153   2.612 -1.7568 -0.9652 -0.0814
  896SOL     OW 7534   0.996   1.446   4.873 -0.1374  0.5731  0.7320
  896SOL    HW1 7535   1.010   1.420   4.782 -2.1130 -0.4008  0.6841
  896SOL    HW2 7536   1.081   1.479   4.902  0.8766 -0.4338 -1.0296
  897SOL     OW 7537   9.895   1.151   4.828 -0.3781  0.2451  0.5039
  897SOL    HW1 7538   9.917   1.244   4.821  2.4305 -0.2758  1.9533
  897SOL    HW2 7539   9.946   1.119   4.902 -0.1407 -2.8145 -0.9039
  898SOL     OW 7540   0.305   9.565   4.064  0.0071  0.3507 -0.2132
  898SOL    HW1 7541   0.290   9.541   3.973  0.2599  1.7602 -0.6456
  898SOL    HW2 7542   0.386   9.519   4.088  1.2265  1.8086 -1.4404
  899SOL     OW 7543   2.173   8.843   5.510  0.4741  0.1355 -0.7695
  899SOL    HW1 7544   2.155   8.907   5.442  0.2632  0.7038 -0.1817
  899SOL    HW2 7545   2.112   8.864   5.580  2.3620  1.1402  0.6200
  900SOL     OW 7546   1.024   9.199   4.873 -0.1617  0.4755  0.2360
  900SOL    HW1 7547   0.986   9.286   4.864 -0.4498  0.4849  1.5198
  900SOL    HW2 7548   0.955   9.139   4.844  0.2394  0.6871 -1.2136
  901SOL     OW 7549   9.408   1.157   3.759  0.0113  0.0580 -0.1794
  901SOL    HW1 7550   9.404   1.118   3.846  0.8014  0.6502  0.1297
  901SOL    HW2 7551   9.481   1.112   3.716  1.0217  1.2874  0.2321
  902SOL     OW 7552   9.723   0.657   5.530  0.0275 -0.1294 -0.2587
  902SOL    HW1 7553   9.788   0.720   5.500 -0.0589 -0.8737 -2.0571
  902SOL    HW2 7554   9.772   0.595   5.584  0.2730  0.9528  0.7714
  903SOL     OW 7555   8.965   9.863   4.935 -0.6334 -0.1208  0.0704
  903SOL    HW1 7556   9.045   9.822   4.904  0.0428  1.5043 -0.3767
  903SOL    HW2 7557   8.896   9.799   4.917  0.3858 -1.0242 -0.6474
  904SOL     OW 7558   1.018   0.594   5.313  0.1189 -0.8377  0.0529
  904SOL    HW1 7559   0.926   0.607   5.288  0.0887  1.1794  1.0891
  904SOL    HW2 7560   1.018   0.512   5.362 -0.8025 -1.7833 -1.4848
  905SOL     OW 7561   9.857   0.973   3.651 -0.2570  0.3480 -0.4861
  905SOL    HW1 7562   9.838   0.900   3.593  0.8720 -1.4955  1.3944
  905SOL    HW2 7563   9.778   1.027   3.649 -1.8238 -1.9027 -0.4760
  906SOL     OW 7564   1.694   8.815   6.555 -0.3166 -0.2618  0.0910
  906SOL    HW1 7565   1.745   8.805   6.636 -0.0937  0.8295  0.1017
  906SOL    HW2 7566   1.744   8.878   6.503 -1.2095  0.1669 -0.2687
  907SOL     OW 7567   0.927   2.710   6.112  0.0541 -0.1888 -0.3467
  907SOL    HW1 7568   0.885   2.624   6.116  0.0549 -0.2583 -1.6828
  907SOL    HW2 7569   0.910   2.749   6.198  1.4572 -2.1570  0.8755
  908SOL     OW 7570   1.123   0.819   5.425  0.2105 -0.6903 -0.4680
  908SOL    HW1 7571   1.061   0.747   5.417  1.3557 -1.6826 -0.4796
  908SOL    HW2 7572   1.071   0.897   5.405 -1.0083 -1.5103 -0.5639
  909SOL     OW 7573   1.270   1.704   5.187  0.1629  0.2215 -0.4583
  909SOL    HW1 7574   1.263   1.626   5.132 -2.2198 -0.9993  1.4881
  909SOL    HW2 7575   1.181   1.738   5.192  0.9442  2.2679 -0.1305
  910SOL     OW 7576   2.217   9.791   5.336  0.2882 -0.4189  0.0680
  910SOL    HW1 7577   2.171   9.787   5.252  0.4907 -0.9347 -0.0166
  910SOL    HW2 7578   2.202   9.706   5.376  0.0792 -0.1295  0.6174
  911SOL     OW 7579   9.680   0.664   4.557  0.4662  0.0260 -0.3993
  911SOL    HW1 7580   9.662   0.574   4.531  1.6451 -0.0090 -1.1117
  911SOL    HW2 7581   9.771   0.679   4.531  0.2159  1.4780 -0.4551
  912SOL     OW 7582   1.900   1.098   4.587  0.2203 -0.0933  0.1258
  912SOL    HW1 7583   1.970   1.082   4.651  0.5930 -1.2108 -0.5329
  912SOL    HW2 7584   1.827   1.044   4.618  0.2408 -0.2628 -0.1154
  913SOL     OW 7585   0.778   0.711   3.910  0.1340 -0.0076  0.3683
  913SOL    HW1 7586   0.697   0.699   3.861 -0.1418  1.5296  0.4232
  913SOL    HW2 7587   0.775   0.802   3.940  1.8118  0.0330  0.4836
  914SOL     OW 7588   0.560   1.031   5.689 -0.3828  0.0066 -0.0433
  914SOL    HW1 7589   0.576   1.088   5.765  0.7870  1.3805 -1.2780
  914SOL    HW2 7590   0.518   0.953   5.726 -0.6224  1.0143  1.8967
  915SOL     OW 7591   8.984   1.487   4.408  0.3459  0.0170 -0.1176
  915SOL    HW1 7592   9.005   1.577   4.385 -0.6286  0.3637  0.3419
  915SOL    HW2 7593   9.069   1.442   4.407  0.7512  0.7839 -0.9861
  916SOL     OW 7594   1.286   0.601   3.904  0.5087  0.1274 -0.3072
  916SOL    HW1 7595   1.235   0.682   3.907  1.1329  0.5404 -0.7340
  916SOL    HW2 7596   1.221   0.532   3.888 -0.1127  0.4554  0.7644
  917SOL     OW 7597   1.229   1.163   5.653 -0.2741  0.3762 -0.7465
  917SOL    HW1 7598   1.141   1.133   5.677 -0.0900  2.0512  2.3360
  917SOL    HW2 7599   1.218   1.256   5.634  0.8377  0.6014 -0.3084
  918SOL     OW 7600   1.897   9.383   4.306 -0.5620 -0.2510 -0.5840
  918SOL    HW1 7601   1.980   9.403   4.350  0.4209  0.0695 -2.5531
  918SOL    HW2 7602   1.861   9.468   4.282 -0.2571 -0.4937 -1.9122
  919SOL     OW 7603   0.896   0.384   3.475  0.2103 -0.1583  0.1299
  919SOL    HW1 7604   0.961   0.429   3.421  0.1738  0.9697  1.0127
  919SOL    HW2 7605   0.946   0.346   3.547 -0.1282  0.9250  0.9474
  920SOL     OW 7606   0.280   2.411   5.863 -0.0654 -0.0476 -0.8138
  920SOL    HW1 7607   0.338   2.484   5.885 -1.0091  0.2220  0.8428
  920SOL    HW2 7608   0.196   2.452   5.843 -0.4538 -0.6387 -0.4044
  921SOL     OW 7609   2.478   1.600   6.221  0.4257 -0.3331 -0.2003
  921SOL    HW1 7610   2.506   1.688   6.244 -1.5778  0.0994  0.7150
  921SOL    HW2 7611   2.492   1.549   6.301 -0.8536 -0.2345  0.0934
  922SOL     OW 7612   9.624   0.415   5.376  0.2997 -0.0598  0.4499
  922SOL    HW1 7613   9.558   0.456   5.431 -0.5639 -0.2081 -0.4524
  922SOL    HW2 7614   9.622   0.466   5.295  0.8639 -0.4404  0.1955
  923SOL     OW 7615   0.378   1.288   4.621 -0.1290  0.1951  0.2971
  923SOL    HW1 7616   0.436   1.316   4.692 -0.2184  0.2337  0.3555
  923SOL    HW2 7617   0.387   1.357   4.555 -1.0704  0.8474  0.8459
  924SOL     OW 7618   1.016   2.410   3.732 -0.5164 -0.4637 -0.1219
  924SOL    HW1 7619   1.048   2.407   3.822  0.7470  1.9803 -0.4469
  924SOL    HW2 7620   0.924   2.435   3.740 -0.7341 -1.4261  0.5221
  925SOL     OW 7621   0.960   0.210   2.600  0.0849 -0.0894  0.2605
  925SOL    HW1 7622   1.023   0.260   2.549 -0.6389 -1.0776 -1.6261
  925SOL    HW2 7623   0.938   0.135   2.545 -1.6426 -0.5268  1.5040
  926SOL     OW 7624   9.937   1.602   4.156  0.0330 -0.0883  0.0180
  926SOL    HW1 7625   9.916   1.611   4.064  2.8209 -2.1090 -0.8872
  926SOL    HW2 7626   9.926   1.509   4.174 -0.1969  0.2357  1.6608
  927SOL     OW 7627   1.156   2.190   3.591  0.1188 -0.1970 -0.4805
  927SOL    HW1 7628   1.181   2.214   3.502  0.6040 -0.0181 -0.2981
  927SOL    HW2 7629   1.112   2.268   3.626 -1.9206 -0.9768 -1.2628
  928SOL     OW 7630   0.860   0.955   5.533 -0.3642 -0.3719 -0.0126
  928SOL    HW1 7631   0.835   1.016   5.602  0.2989 -0.3782  0.2326
  928SOL    HW2 7632   0.862   0.869   5.576  1.4569 -0.1791  0.2959
  929SOL     OW 7633   0.736   0.039   6.437  0.6112  0.0582 -0.2745
  929SOL    HW1 7634   0.682   0.068   6.363  1.7716  2.3272 -0.2607
  929SOL    HW2 7635   0.751  -0.054   6.421 -3.5048 -0.7224 -0.1465
  930SOL     OW 7636   0.966   9.560   4.184 -0.0769 -0.4629  0.2896
  930SOL    HW1 7637   0.874   9.551   4.207 -0.6686 -0.0249 -1.7958
  930SOL    HW2 7638   1.000   9.625   4.245 -1.0420 -0.8772  1.2985
  931SOL     OW 7639   0.430   9.620   5.656 -0.4574 -0.5343  0.2934
  931SOL    HW1 7640   0.427   9.674   5.577  0.6152 -0.4605  0.2822
  931SOL    HW2 7641   0.431   9.684   5.728 -0.8228 -0.5847  0.3410
  932SOL     OW 7642   0.207   9.603   4.448  0.4062  0.4657  0.6260
  932SOL    HW1 7643   0.199   9.574   4.357  0.9466  0.1799  0.6736
  932SOL    HW2 7644   0.169   9.532   4.499  0.1538  0.6017  0.6308
  933SOL     OW 7645   2.631   9.443   5.833 -0.5185 -0.2721  0.4824
  933SOL    HW1 7646   2.666   9.498   5.903 -0.2715  0.0166  0.1403
  933SOL    HW2 7647   2.547   9.412   5.866 -0.8376  0.6199  0.5355
  934SOL     OW 7648   0.538   0.930   5.151  0.9093  0.0596  0.4037
  934SOL    HW1 7649   0.579   0.844   5.159  2.0354  0.6246  0.7900
  934SOL    HW2 7650   0.598   0.989   5.196 -0.9136  0.7135  2.0541
  935SOL     OW 7651   0.552   0.686   5.711  0.0545  0.5413  0.1615
  935SOL    HW1 7652   0.492   0.618   5.682  0.7499  0.0899 -0.2358
  935SOL    HW2 7653   0.530   0.698   5.804  0.3671 -0.7007  0.4086
  936SOL     OW 7654   9.710   9.718   3.691 -0.4810  0.0840 -0.4465
  936SOL    HW1 7655   9.735   9.743   3.602  1.1223 -0.6000 -0.2072
  936SOL    HW2 7656   9.747   9.630   3.702 -1.0226  0.0042  0.7530
  937SOL     OW 7657   1.495   0.112   4.927  0.4556 -0.7096 -0.4049
  937SOL    HW1 7658   1.489   0.030   4.880  1.8075 -0.5266 -0.9095
  937SOL    HW2 7659   1.545   0.092   5.006 -1.9598 -1.0591  1.0984
  938SOL     OW 7660   0.530   1.326   3.636 -0.6915  0.1959 -0.2681
  938SOL    HW1 7661   0.447   1.374   3.628 -1.0327 -0.1855  0.8922
  938SOL    HW2 7662   0.558   1.341   3.727  0.0686 -0.3892 -0.3999
  939SOL     OW 7663   0.760   9.761   6.372 -0.2857  0.1338 -0.1211
  939SOL    HW1 7664   0.702   9.695   6.411  0.3545 -1.1920 -1.3743
  939SOL    HW2 7665   0.776   9.730   6.283  1.2663  1.1793 -0.2332
  940SOL     OW 7666   2.937   1.253   4.100  0.3039  0.4293 -0.2012
  940SOL    HW1 7667   2.961   1.237   4.009 -0.7190  0.5333 -0.4912
  940SOL    HW2 7668   3.021   1.262   4.146  0.8170  1.0327 -1.2467
  941SOL     OW 7669   1.097   0.971   5.041  0.1373 -0.1828 -0.6253
  941SOL    HW1 7670   1.131   0.885   5.061  0.8759  0.2161 -0.1633
  941SOL    HW2 7671   1.096   1.017   5.125  1.0095  0.6971 -1.0880
  942SOL     OW 7672   9.989   1.898   6.445 -0.2405  0.4695  0.2529
  942SOL    HW1 7673   9.994   1.974   6.388 -1.5046  0.0527 -0.4203
  942SOL    HW2 7674   9.983   1.934   6.534  4.0101  1.1254  0.3822
  943SOL     OW 7675   1.577   1.687   4.562 -0.6640  0.1997 -0.3155
  943SOL    HW1 7676   1.672   1.675   4.561 -0.8903 -1.6900 -1.2248
  943SOL    HW2 7677   1.563   1.763   4.618  1.5101  1.6346 -1.6167
  944SOL     OW 7678   0.231   0.693   3.266  0.0777 -1.2433 -0.0070
  944SOL    HW1 7679   0.268   0.609   3.239  0.8221 -1.6577  2.1921
  944SOL    HW2 7680   0.286   0.720   3.340 -0.0328  1.2714 -0.7993
  945SOL     OW 7681   0.868   0.883   4.713 -0.4926 -0.2351 -0.0206
  945SOL    HW1 7682   0.872   0.789   4.733 -0.1627 -0.3779 -0.7580
  945SOL    HW2 7683   0.782   0.910   4.744 -0.3398 -0.6435  0.7860
  946SOL     OW 7684   0.697   0.057   5.859  0.4510  0.3778 -0.0436
  946SOL    HW1 7685   0.625   0.070   5.798  1.6947 -0.2802 -1.6769
  946SOL    HW2 7686   0.677  -0.025   5.904 -0.4105  0.8161  0.4059
  947SOL     OW 7687   1.352   0.654   5.326 -0.0283 -0.1089  0.0133
  947SOL    HW1 7688   1.269   0.699   5.340  0.0774  0.1535 -0.2031
  947SOL    HW2 7689   1.331   0.561   5.334 -0.5857 -0.1007 -1.2651
  948SOL     OW 7690   0.591   0.676   4.166 -0.4551 -0.1135 -0.0104
  948SOL    HW1 7691   0.518   0.730   4.137 -0.6413 -0.5573 -0.3794
  948SOL    HW2 7692   0.553   0.589   4.178  0.6648 -1.1485 -3.4506
  949SOL     OW 7693   0.748   0.771   3.470  0.1958 -0.2255 -0.3290
  949SOL    HW1 7694   0.754   0.824   3.390  2.7794  0.8041  0.5050
  949SOL    HW2 7695   0.831   0.786   3.515 -0.3220 -2.5458  1.4745
  950SOL     OW 7696   1.577   0.903   3.532  0.3827  0.6293 -0.3862
  950SOL    HW1 7697   1.526   0.835   3.489 -1.3566  1.3341  0.5368
  950SOL    HW2 7698   1.639   0.932   3.465  0.1776 -0.8384 -1.2367
  951SOL     OW 7699   1.477   1.107   5.206 -0.2713  0.1453  0.0750
  951SOL    HW1 7700   1.462   1.035   5.145  3.7032 -0.1768 -0.6287
  951SOL    HW2 7701   1.435   1.079   5.288 -3.6889 -0.4101 -1.7680
  952SOL     OW 7702   1.528   9.564   6.082  0.2639  0.3099 -0.3937
  952SOL    HW1 7703   1.597   9.546   6.146 -1.3635 -2.2143  0.6921
  952SOL    HW2 7704   1.496   9.478   6.056  0.1981  1.3338 -3.8836
  953SOL     OW 7705   9.427   0.918   4.862 -0.4467 -0.0574  0.5624
  953SOL    HW1 7706   9.344   0.929   4.909  0.2051  0.7629  1.5281
  953SOL    HW2 7707   9.478   0.996   4.885  0.5822 -0.5464 -0.0511
  954SOL     OW 7708   0.859   1.273   5.056 -0.3701  0.8522 -0.4117
  954SOL    HW1 7709   0.800   1.324   5.001 -0.6615 -0.4630 -1.3426
  954SOL    HW2 7710   0.920   1.232   4.994 -1.3407 -1.4723  0.1337
  955SOL     OW 7711   1.225   9.995   5.135 -0.6021  0.3490 -0.2508
  955SOL    HW1 7712   1.258  10.025   5.219  1.6545  0.6119 -1.2108
  955SOL    HW2 7713   1.286   9.927   5.107 -0.8130  0.8925 -2.1000
  956SOL     OW 7714   0.921   1.091   4.358  0.4114 -0.3944 -0.4170
  956SOL    HW1 7715   0.921   0.999   4.383 -0.3487 -0.2290  0.1820
  956SOL    HW2 7716   0.830   1.111   4.337  0.2282  0.7473  1.3997
  957SOL     OW 7717   1.588   2.634   3.831 -0.2092 -0.2626 -0.1929
  957SOL    HW1 7718   1.501   2.595   3.823  0.2855 -1.2385 -0.8877
  957SOL    HW2 7719   1.598   2.650   3.925 -1.2441  0.1153 -0.1360
  958SOL     OW 7720   2.141   0.755   4.781  0.4269 -0.1476  0.1608
  958SOL    HW1 7721   2.228   0.715   4.773 -0.2228 -1.5142 -0.1514
  958SOL    HW2 7722   2.080   0.684   4.762 -0.8978 -0.1937  4.0989
  959SOL     OW 7723   2.256   9.350   5.663  0.0324 -0.8431  0.2112
  959SOL    HW1 7724   2.296   9.417   5.719 -0.5332 -0.1778 -0.1682
  959SOL    HW2 7725   2.249   9.392   5.577 -1.9905 -0.7421  0.4044
  960SOL     OW 7726   1.622   9.174   3.918  0.3308 -0.4962 -0.0004
  960SOL    HW1 7727   1.611   9.262   3.883 -1.0207  0.4370  2.6539
  960SOL    HW2 7728   1.702   9.179   3.971 -0.6162 -0.4109  1.4468
  961SOL     OW 7729   1.104   2.581   3.381  0.4772  0.0436  0.2528
  961SOL    HW1 7730   1.050   2.524   3.435  1.0380  1.3481  2.2192
  961SOL    HW2 7731   1.118   2.530   3.301  0.0548 -2.1255  1.5021
  962SOL     OW 7732   1.149   9.673   2.180  0.4856 -0.0513 -0.6633
  962SOL    HW1 7733   1.101   9.661   2.098 -0.5555 -1.8231  0.1610
  962SOL    HW2 7734   1.102   9.618   2.243  2.6887 -0.6302  0.5382
  963SOL     OW 7735   1.445   0.120   3.735  0.2376 -0.3284 -0.4199
  963SOL    HW1 7736   1.499   0.072   3.672  0.6471 -4.0927  2.6329
  963SOL    HW2 7737   1.366   0.067   3.744 -0.0280  0.4221  1.8406
  964SOL     OW 7738   2.224   9.582   4.637 -0.2304  0.2757 -0.0909
  964SOL    HW1 7739   2.131   9.564   4.622  0.1756 -1.2820 -0.8510
  964SOL    HW2 7740   2.251   9.635   4.562 -0.2803 -0.0799 -0.3601
  965SOL     OW 7741   9.477   1.605   3.657  0.6983 -0.1758 -0.4502
  965SOL    HW1 7742   9.525   1.522   3.660 -0.0776 -0.5954  0.4845
  965SOL    HW2 7743   9.403   1.588   3.598 -0.0948 -0.5029  0.6148
  966SOL     OW 7744   1.054   2.239   5.142  0.0689 -0.0710  0.5354
  966SOL    HW1 7745   1.015   2.269   5.060 -0.1869  0.8595  0.9955
  966SOL    HW2 7746   1.122   2.304   5.161  2.0259 -1.8066 -0.3858
  967SOL     OW 7747   9.571   0.422   6.613  0.4916  0.5786  0.5096
  967SOL    HW1 7748   9.539   0.346   6.662  1.2395 -0.3665 -0.4233
  967SOL    HW2 7749   9.598   0.484   6.680  2.6022 -1.1663  1.3780
  968SOL     OW 7750   1.240   0.001   5.877  0.4692 -0.0863  0.3292
  968SOL    HW1 7751   1.320  -0.026   5.923  0.5784  0.1909  0.3024
  968SOL    HW2 7752   1.201  -0.081   5.847  0.7295 -0.2247  0.3689
  969SOL     OW 7753   0.749   8.757   5.252  0.0448  0.6591  0.0218
  969SOL    HW1 7754   0.714   8.846   5.261 -0.6773  0.3597  0.1880
  969SOL    HW2 7755   0.673   8.700   5.260  0.5285  0.0117  0.0752
  970SOL     OW 7756   1.172   9.999   6.554 -0.2472 -0.1473  0.1969
  970SOL    HW1 7757   1.229  10.071   6.581 -1.6429  0.7665  0.8125
  970SOL    HW2 7758   1.094  10.008   6.610 -0.4974 -2.0618  0.1846
  971SOL     OW 7759   1.776   1.141   6.473  0.1256  0.1133  0.2425
  971SOL    HW1 7760   1.836   1.204   6.513  2.0558 -0.3342 -1.8095
  971SOL    HW2 7761   1.819   1.056   6.486 -1.2025 -0.4781  0.7811
  972SOL     OW 7762   1.691   0.283   5.790  0.2947 -0.0159  0.1041
  972SOL    HW1 7763   1.723   0.351   5.849  0.4723  1.3755 -1.5324
  972SOL    HW2 7764   1.596   0.284   5.802  0.1943  1.2930 -0.6708
  973SOL     OW 7765   0.485   0.938   7.158 -0.6961 -0.2245 -0.1214
  973SOL    HW1 7766   0.401   0.973   7.131 -0.6049 -0.7590 -1.1062
  973SOL    HW2 7767   0.547   0.972   7.094 -0.4726 -1.4520 -0.5601
  974SOL     OW 7768   1.388   1.448   6.470 -0.2928 -0.2112 -0.1638
  974SOL    HW1 7769   1.329   1.520   6.446 -0.5330  0.6450  2.7742
  974SOL    HW2 7770   1.442   1.485   6.540  0.7179 -2.3923  0.2230
  975SOL     OW 7771   0.964   1.285   7.600  0.2419 -0.0105 -0.3264
  975SOL    HW1 7772   0.897   1.217   7.593  1.0376 -0.8054 -0.3279
  975SOL    HW2 7773   1.044   1.245   7.566  1.0627  0.4421  0.9850
  976SOL     OW 7774   9.279   1.794   8.284  0.0029  0.1012 -0.0164
  976SOL    HW1 7775   9.351   1.755   8.333 -0.8637  0.5253  1.6136
  976SOL    HW2 7776   9.319   1.824   8.202  1.5932  0.0222  0.7222
  977SOL     OW 7777   2.517   9.484   6.273 -0.0675 -0.0968 -0.3873
  977SOL    HW1 7778   2.597   9.463   6.224 -0.1452  1.1757 -1.0764
  977SOL    HW2 7779   2.533   9.571   6.310 -0.7465 -0.2562  0.3064
  978SOL     OW 7780   0.838   0.621   6.445 -0.4738 -0.2087 -0.2633
  978SOL    HW1 7781   0.884   0.588   6.522 -1.2741  1.0283  0.7605
  978SOL    HW2 7782   0.848   0.552   6.379 -0.6798 -1.7362  1.2865
  979SOL     OW 7783   0.945   1.155   5.710 -0.7472 -0.1001  0.6721
  979SOL    HW1 7784   0.953   1.107   5.793 -1.8513  0.3282  1.0365
  979SOL    HW2 7785   0.882   1.225   5.729 -0.7490  0.2065 -0.4425
  980SOL     OW 7786   1.754   0.784   7.803 -0.0344  0.6052  0.2004
  980SOL    HW1 7787   1.708   0.857   7.844 -2.4357 -0.5499 -0.3308
  980SOL    HW2 7788   1.755   0.805   7.710  1.6093  1.1947  0.3411
  981SOL     OW 7789   8.728   0.242   7.891 -0.3107  0.2338 -0.2857
  981SOL    HW1 7790   8.664   0.299   7.849 -2.3522  0.2663  2.7332
  981SOL    HW2 7791   8.790   0.301   7.932  0.0752  0.2138 -0.8269
  982SOL     OW 7792   1.137   0.933   7.604 -0.3210 -0.0503 -0.1839
  982SOL    HW1 7793   1.111   0.852   7.648  0.8646 -1.0258 -1.2467
  982SOL    HW2 7794   1.057   0.963   7.560 -0.4877 -1.2114 -0.6731
  983SOL     OW 7795   8.962   0.377   8.240  0.1329  0.3892  0.1571
  983SOL    HW1 7796   8.991   0.428   8.315 -1.1477  1.1818  0.1229
  983SOL    HW2 7797   9.025   0.399   8.171  0.9620  0.1077  0.8148
  984SOL     OW 7798   9.878   1.203   6.005  0.0180 -0.0747  0.6728
  984SOL    HW1 7799   9.791   1.215   5.966 -0.3367 -1.4850  0.9973
  984SOL    HW2 7800   9.936   1.258   5.953 -1.1957  1.4343  0.9003
  985SOL     OW 7801   1.076   0.297   6.293 -0.0599  0.4911 -0.6713
  985SOL    HW1 7802   0.992   0.340   6.278 -0.1798  0.0150 -1.3911
  985SOL    HW2 7803   1.085   0.236   6.219  0.1695 -0.6161  0.2662
  986SOL     OW 7804   0.406   2.646   5.963  0.2364 -0.0029  0.0575
  986SOL    HW1 7805   0.421   2.684   5.876  1.8335  1.9509  1.1535
  986SOL    HW2 7806   0.461   2.698   6.022 -2.6904  0.3287  2.6210
  987SOL     OW 7807   0.807   1.035   5.928  0.2983 -0.4961 -0.1217
  987SOL    HW1 7808   0.801   0.943   5.955 -0.0620 -0.9847 -1.8533
  987SOL    HW2 7809   0.731   1.077   5.968  0.8072 -0.7913  1.2074
  988SOL     OW 7810   1.482   0.228   5.412 -0.0679 -0.0980  0.7179
  988SOL    HW1 7811   1.417   0.158   5.417  1.5209 -1.7896 -1.3008
  988SOL    HW2 7812   1.558   0.194   5.459  0.7844  0.1745 -0.4443
  989SOL     OW 7813   9.131   9.843   8.050  0.2022  0.5985  0.2053
  989SOL    HW1 7814   9.104   9.925   8.092 -0.5166 -0.4996  1.9304
  989SOL    HW2 7815   9.063   9.826   7.985 -0.2587  0.7937  0.6278
  990SOL     OW 7816   1.349   1.275   7.946  0.0553 -0.9212  0.1185
  990SOL    HW1 7817   1.441   1.258   7.965  0.2387  0.2802  0.3618
  990SOL    HW2 7818   1.325   1.209   7.882  0.8735 -1.7390  0.6471
  991SOL     OW 7819   0.619   0.362   5.789 -0.3511 -0.8998  0.0148
  991SOL    HW1 7820   0.686   0.379   5.724  0.1858 -2.2146  0.2020
  991SOL    HW2 7821   0.536   0.381   5.744  0.1166  0.3299 -0.3389
  992SOL     OW 7822   1.016   0.273   8.829  0.1161 -0.2940 -0.0374
  992SOL    HW1 7823   1.084   0.339   8.817  0.1274 -0.6577 -2.2022
  992SOL    HW2 7824   0.988   0.251   8.740 -0.5698 -2.5041  0.6946
  993SOL     OW 7825   0.982   0.337   5.840  0.2422  0.6104 -0.0830
  993SOL    HW1 7826   0.942   0.273   5.900 -0.1264  1.3849  0.5032
  993SOL    HW2 7827   0.927   0.333   5.762 -0.4115  0.9527  0.3474
  994SOL     OW 7828   0.456   0.719   6.212 -0.3491  0.4887  0.1858
  994SOL    HW1 7829   0.376   0.673   6.240 -0.6053  0.3947 -0.6803
  994SOL    HW2 7830   0.492   0.755   6.293 -0.6505 -0.4369  0.7484
  995SOL     OW 7831   2.773   1.776   5.878 -0.3619 -0.0435 -0.0330
  995SOL    HW1 7832   2.812   1.770   5.966 -0.0841 -0.1115 -0.1606
  995SOL    HW2 7833   2.796   1.694   5.836 -3.8075 -1.7250  1.1771
  996SOL     OW 7834   1.139   0.710   5.077  0.1096  0.1643 -0.2397
  996SOL    HW1 7835   1.233   0.710   5.091  0.2763  2.4941 -1.0751
  996SOL    HW2 7836   1.101   0.706   5.164  1.0099  1.7541  0.2347
  997SOL     OW 7837   0.540   9.595   6.120  0.0408 -0.3927 -0.1158
  997SOL    HW1 7838   0.448   9.576   6.104 -0.0259  1.8173 -2.6667
  997SOL    HW2 7839   0.587   9.520   6.083 -0.5622  0.4536 -2.6445
  998SOL     OW 7840   1.113   0.451   7.481 -0.1726  0.0968  0.2518
  998SOL    HW1 7841   1.167   0.400   7.420 -2.5427 -2.6188  0.3485
  998SOL    HW2 7842   1.036   0.397   7.496 -2.5429  3.4706  0.8562
  999SOL     OW 7843   0.541   0.163   4.126 -0.2809  0.0592 -0.6329
  999SOL    HW1 7844   0.474   0.147   4.059 -2.0663 -1.2314  1.4271
  999SOL    HW2 7845   0.510   0.240   4.173 -0.2643 -0.4689  0.2509
 1000SOL     OW 7846   1.386   9.767   7.856 -0.8689 -0.0195 -0.7995
 1000SOL    HW1 7847   1.465   9.722   7.885 -0.9268 -0.0921 -0.7541
 1000SOL    HW2 7848   1.338   9.785   7.937 -0.7814  0.2453 -0.8036
 1001SOL     OW 7849   0.714   0.777   6.998  0.2745 -0.7233  0.1409
 1001SOL    HW1 7850   0.793   0.767   6.945 -0.1789 -2.5996 -0.1988
 1001SOL    HW2 7851   0.675   0.859   6.967  2.0037  0.1467  0.2199
 1002SOL     OW 7852   1.310   9.303   9.704  0.7561  0.4161 -0.0940
 1002SOL    HW1 7853   1.337   9.365   9.636 -0.0942 -1.0192 -1.7853
 1002SOL    HW2 7854   1.217   9.319   9.716  0.7170  0.0657  0.0828
 1003SOL     OW 7855   0.048   1.134   6.702  0.4172 -0.0271  0.4358
 1003SOL    HW1 7856   0.075   1.208   6.647 -1.7867 -1.3321 -2.5528
 1003SOL    HW2 7857  -0.002   1.173   6.773 -0.2128  1.4125 -0.7847
 1004SOL     OW 7858   1.231   9.862   9.171  0.6280  0.1388  0.3846
 1004SOL    HW1 7859   1.245   9.905   9.256  0.3527 -1.1004  1.0582
 1004SOL    HW2 7860   1.297   9.901   9.114  0.2789  1.5804  0.9479
 1005SOL     OW 7861   0.945   0.668   7.328  0.0795 -0.9641 -0.1916
 1005SOL    HW1 7862   0.996   0.720   7.266 -1.1390  1.5786  0.8830
 1005SOL    HW2 7863   1.008   0.610   7.369  1.9923  1.6012  0.5754
 1006SOL     OW 7864   0.451   0.150   6.339  0.2112  0.0110 -0.0551
 1006SOL    HW1 7865   0.468   0.187   6.425 -2.3201 -0.4252  0.6819
 1006SOL    HW2 7866   0.396   0.215   6.294  1.5452  0.2611 -1.3838
 1007SOL     OW 7867   2.277   9.803   7.813  0.1841  0.4523 -1.0769
 1007SOL    HW1 7868   2.366   9.838   7.819  0.5870 -0.7525  0.2950
 1007SOL    HW2 7869   2.276   9.753   7.732  0.7508  0.4714 -1.0966
 1008SOL     OW 7870   0.856   0.198   5.191  0.6309 -0.2699  0.2336
 1008SOL    HW1 7871   0.795   0.199   5.117  0.9686 -0.7888 -0.0593
 1008SOL    HW2 7872   0.807   0.236   5.263 -0.1110 -0.8459  0.0482
 1009SOL     OW 7873   2.151   0.979   5.506 -0.1271 -0.3675  0.0189
 1009SOL    HW1 7874   2.157   1.000   5.599 -3.4894 -1.0462  0.4406
 1009SOL    HW2 7875   2.058   0.985   5.485 -0.0526 -4.7183 -2.2501
 1010SOL     OW 7876   1.220   1.693   6.629  0.0831 -0.1634  0.0080
 1010SOL    HW1 7877   1.134   1.679   6.669  0.8871  0.4599  1.9693
 1010SOL    HW2 7878   1.203   1.685   6.535 -2.2273  0.4538  0.3257
 1011SOL     OW 7879   0.820   1.173   7.268 -0.0597  0.2894  0.1011
 1011SOL    HW1 7880   0.750   1.238   7.271  1.3780  1.9976 -1.2320
 1011SOL    HW2 7881   0.845   1.170   7.176 -0.4658 -2.6242  0.0603
 1012SOL     OW 7882   9.336   9.865   6.531 -0.2959 -0.0553  0.1916
 1012SOL    HW1 7883   9.300   9.931   6.473 -5.1561 -0.3591  2.6604
 1012SOL    HW2 7884   9.312   9.782   6.490  0.0199 -0.2829  0.4667
 1013SOL     OW 7885   1.495   0.867   5.950 -0.7257  0.4468 -0.3953
 1013SOL    HW1 7886   1.425   0.805   5.968  0.6186 -0.9398  0.1856
 1013SOL    HW2 7887   1.492   0.881   5.856 -0.6614 -0.9925 -0.6260
 1014SOL     OW 7888   0.303   0.979   7.640 -0.8236  0.7950 -0.0883
 1014SOL    HW1 7889   0.292   0.944   7.552 -2.2871  1.0158 -0.0056
 1014SOL    HW2 7890   0.243   1.053   7.645 -1.0739  0.5271  1.2203
 1015SOL     OW 7891   0.677   0.394   6.065  0.4231  0.7713 -0.4705
 1015SOL    HW1 7892   0.595   0.439   6.087  0.8846  1.5879 -0.4114
 1015SOL    HW2 7893   0.664   0.366   5.974 -0.2559  0.1481 -0.1818
 1016SOL     OW 7894   0.377   0.123   7.690 -0.0145 -0.1172  0.0487
 1016SOL    HW1 7895   0.468   0.150   7.677 -0.7867  2.1755 -0.9124
 1016SOL    HW2 7896   0.327   0.204   7.685 -2.1639 -1.3863  0.1929
 1017SOL     OW 7897   0.979   0.364   4.679 -0.1263  0.0429 -0.7356
 1017SOL    HW1 7898   0.979   0.369   4.583  0.5699  0.6354 -0.7027
 1017SOL    HW2 7899   0.905   0.306   4.699 -1.1269  0.9916 -1.5679
 1018SOL     OW 7900   0.290   2.601   6.651  0.3035 -0.3374  0.0084
 1018SOL    HW1 7901   0.292   2.570   6.742 -0.3144 -0.3552  0.0191
 1018SOL    HW2 7902   0.345   2.540   6.603 -0.2426 -0.9672  0.1801
 1019SOL     OW 7903   0.251   9.829   6.520  0.6610 -0.2935 -0.0436
 1019SOL    HW1 7904   0.286   9.849   6.433 -0.0989 -0.4797 -0.3912
 1019SOL    HW2 7905   0.225   9.914   6.555 -1.8853 -0.5522 -1.2292
 1020SOL     OW 7906   8.948   1.508   6.891 -0.1053 -0.0692  0.5425
 1020SOL    HW1 7907   8.971   1.524   6.983 -0.2621 -1.1711  0.7908
 1020SOL    HW2 7908   9.029   1.476   6.851 -0.1950 -0.1864  0.4533
 1021SOL     OW 7909   0.263   2.458   6.251  0.7295 -0.1402  0.1857
 1021SOL    HW1 7910   0.301   2.488   6.334  1.6217 -0.4301 -0.1154
 1021SOL    HW2 7911   0.292   2.523   6.187 -0.3575  0.3476  0.1821
 1022SOL     OW 7912   0.048   2.502   5.750  0.5313  0.0574  0.1175
 1022SOL    HW1 7913   0.053   2.595   5.727  0.1900  0.5999  2.0847
 1022SOL    HW2 7914   0.025   2.458   5.669  0.7022  1.6941 -0.8464
 1023SOL     OW 7915   2.156   9.805   8.467 -0.3048  0.1307  0.7546
 1023SOL    HW1 7916   2.246   9.791   8.437 -2.0002 -0.2680 -4.6959
 1023SOL    HW2 7917   2.133   9.892   8.435 -2.4652 -0.5640  0.3508
 1024SOL     OW 7918   0.856   0.106   7.095 -0.4228 -0.3546 -0.2544
 1024SOL    HW1 7919   0.778   0.148   7.132 -0.3290 -0.8846  0.5493
 1024SOL    HW2 7920   0.879   0.161   7.020 -3.1312 -1.6594 -2.1244
 1025SOL     OW 7921   0.910   9.068   8.484 -0.6610 -0.4468  0.2208
 1025SOL    HW1 7922   0.891   9.143   8.427  0.1014  0.4379  1.1073
 1025SOL    HW2 7923   0.886   8.992   8.431  0.1192  0.3427 -1.3301
 1026SOL     OW 7924   0.477   1.832   7.791  0.2264  0.1911 -0.0011
 1026SOL    HW1 7925   0.568   1.806   7.784 -0.0135 -0.8746  0.7668
 1026SOL    HW2 7926   0.475   1.896   7.862 -0.0279 -1.7864  1.8138
 1027SOL     OW 7927   1.504   0.891   7.296  0.1136  0.2213 -0.7551
 1027SOL    HW1 7928   1.434   0.857   7.352 -0.0004  1.7996  0.0832
 1027SOL    HW2 7929   1.532   0.815   7.245 -0.2854 -1.0952  0.9074
 1028SOL     OW 7930   9.835   2.758   7.835  0.4272 -0.0250 -0.0619
 1028SOL    HW1 7931   9.895   2.801   7.774  0.9331 -0.1889  0.3246
 1028SOL    HW2 7932   9.849   2.665   7.820 -0.9535 -0.0833 -1.1820
 1029SOL     OW 7933   0.813   9.297   6.783 -0.6473  0.5531  0.6020
 1029SOL    HW1 7934   0.861   9.242   6.844  0.1020  0.4602 -0.0563
 1029SOL    HW2 7935   0.882   9.343   6.734 -1.2501  1.3384  0.4912
 1030SOL     OW 7936   0.826   9.095   6.979  0.2118 -0.2956  0.1966
 1030SOL    HW1 7937   0.801   9.012   6.937 -0.5678 -1.3525  2.6837
 1030SOL    HW2 7938   0.906   9.075   7.026  0.0407  0.3836  0.7865
 1031SOL     OW 7939   1.367   0.447   5.550  0.0996 -0.0984 -0.3421
 1031SOL    HW1 7940   1.282   0.408   5.571 -0.6721  0.2626 -2.6775
 1031SOL    HW2 7941   1.416   0.376   5.508 -0.0293  0.4328 -1.4105
 1032SOL     OW 7942   0.450   9.736   6.693  0.2149  0.1198 -0.3634
 1032SOL    HW1 7943   0.478   9.663   6.638 -0.5805 -1.3324  1.1007
 1032SOL    HW2 7944   0.376   9.774   6.647  0.5860 -0.0396 -1.0981
 1033SOL     OW 7945   0.963   9.734   6.546  0.4587 -0.4245 -0.2196
 1033SOL    HW1 7946   1.010   9.816   6.563 -1.9601  0.7011  1.3861
 1033SOL    HW2 7947   0.900   9.756   6.478  0.6416 -1.2953 -0.6740
 1034SOL     OW 7948   0.911   2.487   6.821  0.3419  0.0731  0.4502
 1034SOL    HW1 7949   0.951   2.443   6.896  0.2418 -0.8745 -0.0431
 1034SOL    HW2 7950   0.960   2.454   6.745 -2.3373 -2.3453 -0.3417
 1035SOL     OW 7951   1.907   2.506   7.562 -0.1636 -0.5360  0.2132
 1035SOL    HW1 7952   1.850   2.567   7.514  0.8202  0.4069  0.2355
 1035SOL    HW2 7953   1.878   2.513   7.653 -0.7646 -0.9082  0.0542
 1036SOL     OW 7954   0.382   9.179   5.440  0.0128  0.3553 -0.0895
 1036SOL    HW1 7955   0.460   9.209   5.487  1.6928 -1.5111 -1.5262
 1036SOL    HW2 7956   0.407   9.184   5.347 -1.5247 -0.4102 -0.5653
 1037SOL     OW 7957   0.080   0.858   7.233 -0.4235 -0.0163 -0.1478
 1037SOL    HW1 7958   0.112   0.936   7.188 -0.0428 -0.3284 -0.4195
 1037SOL    HW2 7959   0.030   0.892   7.307 -0.3621  0.4866 -0.3355
 1038SOL     OW 7960   9.749   0.276   6.124  0.2969  0.2385  0.1599
 1038SOL    HW1 7961   9.702   0.342   6.174 -0.0309  0.9213 -1.0264
 1038SOL    HW2 7962   9.795   0.223   6.190 -0.9544  0.4686  1.2224
 1039SOL     OW 7963   1.396   8.036   6.245 -0.1162 -0.2601  0.3410
 1039SOL    HW1 7964   1.330   8.039   6.315 -0.5981 -0.4954 -0.1035
 1039SOL    HW2 7965   1.456   8.108   6.266  0.8240 -1.4977  2.0666
 1040SOL     OW 7966   0.491   0.906   7.423 -0.1769  0.5646 -0.1225
 1040SOL    HW1 7967   0.499   1.000   7.441  0.0308  0.6747 -0.7588
 1040SOL    HW2 7968   0.503   0.899   7.328  1.3001 -0.2650  0.1074
 1041SOL     OW 7969   0.319   1.228   7.336 -0.1970  0.0171  0.0607
 1041SOL    HW1 7970   0.237   1.271   7.359 -1.4853 -3.1009  1.5579
 1041SOL    HW2 7971   0.303   1.191   7.249  0.7622  2.0825 -1.0371
 1042SOL     OW 7972   1.810   9.795   6.103  0.4842  0.4843  0.4633
 1042SOL    HW1 7973   1.833   9.781   6.011 -1.1277 -1.1033  0.2544
 1042SOL    HW2 7974   1.810   9.890   6.114  0.8359  0.6910 -1.1402
 1043SOL     OW 7975   1.978   1.333   6.585  0.3006  0.2387  0.0256
 1043SOL    HW1 7976   2.068   1.304   6.567  0.7277  2.0141 -0.8703
 1043SOL    HW2 7977   1.974   1.339   6.680  1.3604  0.7227  0.0612
 1044SOL     OW 7978   0.213   4.197   5.597 -0.0534  0.1532  0.3160
 1044SOL    HW1 7979   0.221   4.135   5.670  0.4451  0.4677  0.5289
 1044SOL    HW2 7980   0.209   4.283   5.639 -2.7913  0.1471  0.1315
 1045SOL     OW 7981   0.812   1.692   6.119  0.2440  0.4080 -0.7995
 1045SOL    HW1 7982   0.742   1.743   6.076 -0.7778  1.4489  1.9930
 1045SOL    HW2 7983   0.800   1.603   6.086 -1.4190  0.8776 -1.5360
 1046SOL     OW 7984   1.320   9.691   6.271 -0.2953  0.3639  0.4709
 1046SOL    HW1 7985   1.403   9.647   6.252 -0.7597 -0.4478  0.3466
 1046SOL    HW2 7986   1.325   9.712   6.364 -0.8314 -1.5363  0.9430
 1047SOL     OW 7987   9.801   0.247   5.842 -0.4671  0.2329 -0.3478
 1047SOL    HW1 7988   9.875   0.199   5.806 -0.3715  0.4605 -0.4511
 1047SOL    HW2 7989   9.820   0.254   5.936  0.1934  1.2800 -0.5505
 1048SOL     OW 7990   2.609   1.682   6.543  0.2031  0.1313  0.2437
 1048SOL    HW1 7991   2.539   1.620   6.521 -2.0542  2.5045  0.4762
 1048SOL    HW2 7992   2.686   1.627   6.559 -1.6647 -2.5720  0.2545
 1049SOL     OW 7993   0.432   0.212   6.955  0.0027 -0.0801 -0.5389
 1049SOL    HW1 7994   0.424   0.233   7.048  1.2069  1.1670 -0.6914
 1049SOL    HW2 7995   0.438   0.117   6.952  0.7881 -0.0817  0.7424
 1050SOL     OW 7996   1.536   1.102   6.694  0.0066 -0.0164  0.4067
 1050SOL    HW1 7997   1.606   1.041   6.716  0.5954  0.5582  0.1194
 1050SOL    HW2 7998   1.520   1.087   6.601 -1.9862 -1.9266  0.9972
 1051SOL     OW 7999   1.550   0.236   7.455  0.1275  0.4643 -0.3236
 1051SOL    HW1 8000   1.548   0.250   7.360  0.6662  0.9072 -0.2680
 1051SOL    HW2 8001   1.517   0.317   7.492  0.1457  0.3801 -0.1223
 1052SOL     OW 8002   1.184   0.332   6.555 -0.1758  0.1282  0.4922
 1052SOL    HW1 8003   1.256   0.271   6.568 -0.5953 -0.3079  0.8387
 1052SOL    HW2 8004   1.159   0.322   6.464  1.0138  1.1976  0.0395
 1053SOL     OW 8005   0.332   0.400   7.781 -0.3375 -0.6896 -0.0806
 1053SOL    HW1 8006   0.262   0.464   7.770  0.0883 -0.2813 -0.5129
 1053SOL    HW2 8007   0.333   0.380   7.874 -0.5079 -0.0919  0.0550
 1054SOL     OW 8008   0.866   0.810   6.682  0.4713  0.9887  0.4165
 1054SOL    HW1 8009   0.820   0.818   6.598  3.5389 -1.6122 -1.6396
 1054SOL    HW2 8010   0.913   0.893   6.691 -0.6710  1.6890  0.1139
 1055SOL     OW 8011   0.799   9.593   6.939 -0.0656  0.3642 -0.5871
 1055SOL    HW1 8012   0.865   9.570   6.874  0.6585  0.8560 -0.0451
 1055SOL    HW2 8013   0.829   9.677   6.975  0.7583 -0.9505  1.9599
 1056SOL     OW 8014   0.137   0.934   6.863 -0.2937 -0.2178 -0.4202
 1056SOL    HW1 8015   0.225   0.967   6.882 -0.6130  0.1295  0.4737
 1056SOL    HW2 8016   0.107   0.987   6.789  0.7336 -1.1975 -1.5688
 1057SOL     OW 8017   0.128   0.041   6.901 -0.1476 -0.3580  0.2913
 1057SOL    HW1 8018   0.210   0.061   6.855  0.3755  0.4930  1.5592
 1057SOL    HW2 8019   0.142  -0.047   6.937  0.1202 -0.3009  0.3293
 1058SOL     OW 8020   1.126   9.495   7.482  0.1126 -0.2447  0.2085
 1058SOL    HW1 8021   1.135   9.524   7.572  1.1368  1.8933 -0.5380
 1058SOL    HW2 8022   1.214   9.465   7.458  0.3712  1.2273 -0.7299
 1059SOL     OW 8023   8.750   0.211   5.623  0.2676  0.1250 -0.2421
 1059SOL    HW1 8024   8.748   0.117   5.605 -1.8777  0.2650 -0.8793
 1059SOL    HW2 8025   8.727   0.252   5.539 -2.7873  1.0467  0.9706
 1060SOL     OW 8026   1.036   0.367   5.492 -0.1230 -0.1490 -0.0281
 1060SOL    HW1 8027   1.069   0.287   5.532 -1.5285 -0.0965  1.3020
 1060SOL    HW2 8028   0.943   0.367   5.513  0.3219  3.1800  2.4439
 1061SOL     OW 8029   9.841   9.964   6.933  0.1248 -0.1959  0.3003
 1061SOL    HW1 8030   9.885   9.967   7.018 -1.3808 -0.4834  1.1025
 1061SOL    HW2 8031   9.819   9.872   6.921 -2.0470  0.2293  0.8489
 1062SOL     OW 8032   1.589   1.134   7.446  0.3608  0.6895  0.0356
 1062SOL    HW1 8033   1.677   1.104   7.467  0.8937  1.9312 -0.3709
 1062SOL    HW2 8034   1.543   1.134   7.530  0.3958 -1.0423  0.0751
 1063SOL     OW 8035   0.878   9.821   7.096 -0.4714  0.1513 -0.5368
 1063SOL    HW1 8036   0.939   9.807   7.168 -1.9343  0.0275  0.7091
 1063SOL    HW2 8037   0.863   9.916   7.095 -1.1557  0.0501 -0.0803
 1064SOL     OW 8038   2.167   9.616   6.755  0.2422  0.2044 -0.4684
 1064SOL    HW1 8039   2.121   9.700   6.761  0.1820  0.0413  1.9003
 1064SOL    HW2 8040   2.102   9.552   6.783  0.0870 -0.7450 -2.8943
 1065SOL     OW 8041   0.286   0.983   6.238 -0.1377 -0.5011 -0.7314
 1065SOL    HW1 8042   0.214   0.999   6.300  1.3883  0.5167  0.8429
 1065SOL    HW2 8043   0.298   0.888   6.240  0.6580 -0.3868  1.4813
 1066SOL     OW 8044   1.121   9.086   5.933 -0.1635  0.3654  0.4811
 1066SOL    HW1 8045   1.103   9.140   5.856 -1.8661 -0.0839  0.5362
 1066SOL    HW2 8046   1.090   8.999   5.909  0.2082 -0.0053  1.3224
 1067SOL     OW 8047   2.651   9.826   5.751 -0.6318 -0.0650  0.3717
 1067SOL    HW1 8048   2.700   9.772   5.689 -1.1940 -0.1290 -0.0238
 1067SOL    HW2 8049   2.607   9.763   5.808 -1.0129 -0.0269  0.1254
 1068SOL     OW 8050   2.335   9.149   6.549 -0.2111  1.0177 -0.0955
 1068SOL    HW1 8051   2.419   9.177   6.585 -0.7674 -0.5838  2.5745
 1068SOL    HW2 8052   2.345   9.159   6.454  3.1576  0.4290  0.1246
 1069SOL     OW 8053   9.535   9.524   6.316  0.0807 -0.3583 -0.2721
 1069SOL    HW1 8054   9.553   9.613   6.286  0.2300 -1.1521 -2.6727
 1069SOL    HW2 8055   9.445   9.507   6.288 -0.5928 -0.3372  1.8006
 1070SOL     OW 8056   1.475   0.479   8.113  0.0895  0.4918 -0.0184
 1070SOL    HW1 8057   1.386   0.470   8.081 -0.0698 -0.7606  0.7514
 1070SOL    HW2 8058   1.487   0.574   8.125 -0.8696  0.7228 -0.8192
 1071SOL     OW 8059   1.531   1.015   6.994  0.4428  0.1070  0.2532
 1071SOL    HW1 8060   1.462   1.009   6.928  0.6918  0.7263 -0.0614
 1071SOL    HW2 8061   1.608   0.975   6.953  0.8088  1.1889 -0.1163
 1072SOL     OW 8062   0.814   1.520   7.690 -0.3228  0.0741  0.0001
 1072SOL    HW1 8063   0.752   1.448   7.682 -0.0732 -0.0898 -0.4153
 1072SOL    HW2 8064   0.892   1.492   7.642  1.8622 -1.6771  4.2706
 1073SOL     OW 8065   0.500   9.295   6.006 -0.4313  0.3884 -0.3052
 1073SOL    HW1 8066   0.579   9.257   5.969  0.4400  0.3251  1.5481
 1073SOL    HW2 8067   0.481   9.242   6.083 -0.2931  2.4818  1.2195
 1074SOL     OW 8068   1.337   0.773   6.232 -0.1151  0.5299 -0.3179
 1074SOL    HW1 8069   1.384   0.730   6.161  0.2790 -0.2166  0.3862
 1074SOL    HW2 8070   1.263   0.715   6.250  1.2041 -0.6193  1.5856
 1075SOL     OW 8071   0.333   0.684   6.793 -0.3293 -0.3723 -0.0958
 1075SOL    HW1 8072   0.383   0.763   6.816  0.6323 -0.6743 -1.1168
 1075SOL    HW2 8073   0.390   0.612   6.817 -0.8220 -0.7530 -0.0608
 1076SOL     OW 8074   0.436   1.425   9.588 -0.0035  0.1165  0.1787
 1076SOL    HW1 8075   0.347   1.455   9.571 -0.0916 -0.9281 -1.4231
 1076SOL    HW2 8076   0.442   1.342   9.539  1.3487 -0.5963  1.5258
 1077SOL     OW 8077   2.385   1.177   6.905  0.0788  0.3213 -0.2653
 1077SOL    HW1 8078   2.292   1.196   6.900 -0.3130 -1.4925 -0.4324
 1077SOL    HW2 8079   2.389   1.083   6.927  1.8503  0.5989  0.6953
 1078SOL     OW 8080   0.433   0.487   6.004  0.6806 -0.8544 -0.0869
 1078SOL    HW1 8081   0.473   0.573   5.989  0.2433 -0.5508  0.4610
 1078SOL    HW2 8082   0.393   0.464   5.920 -0.4426  0.1373  0.1573
 1079SOL     OW 8083   1.545   2.333   5.932 -0.2369 -0.1496  0.2666
 1079SOL    HW1 8084   1.516   2.262   5.876  1.0893 -1.3693  1.1085
 1079SOL    HW2 8085   1.495   2.322   6.014  0.0677 -0.1744  0.4482
 1080SOL     OW 8086   0.976   8.873   6.623 -0.7881  0.2238 -0.1889
 1080SOL    HW1 8087   1.015   8.868   6.710 -2.1883  3.0959  0.6738
 1080SOL    HW2 8088   1.027   8.939   6.577 -0.6938 -0.5505 -1.2171
 1081SOL     OW 8089   2.023   9.724   7.927  0.2485  0.3192  0.3731
 1081SOL    HW1 8090   2.116   9.731   7.908  0.6803 -1.8551  1.4345
 1081SOL    HW2 8091   1.996   9.812   7.951  1.6760  1.2741 -1.4318
 1082SOL     OW 8092   0.512   1.417   5.617 -0.1798  0.5011 -0.5007
 1082SOL    HW1 8093   0.476   1.384   5.535 -0.8625 -0.6398  0.2434
 1082SOL    HW2 8094   0.461   1.496   5.636 -1.0363 -0.0757 -0.4070
 1083SOL     OW 8095   0.268   2.508   5.474 -0.0886  0.2582  0.4029
 1083SOL    HW1 8096   0.227   2.594   5.483  0.6477  0.4980  1.5544
 1083SOL    HW2 8097   0.197   2.446   5.487 -0.6727  0.6945 -0.6843
 1084SOL     OW 8098   0.004   1.422   7.107  0.4235 -0.1585  0.2058
 1084SOL    HW1 8099  -0.008   1.368   7.185 -0.4964 -2.0689 -1.2064
 1084SOL    HW2 8100   0.060   1.368   7.050  1.0444  1.1815 -0.4714
 1085SOL     OW 8101   0.278   9.600   6.032 -0.0993  0.5142  0.8942
 1085SOL    HW1 8102   0.264   9.509   6.007  0.2992  0.2475  1.6485
 1085SOL    HW2 8103   0.199   9.645   6.003 -1.0948 -0.3913  2.1869
 1086SOL     OW 8104   9.162   1.003   6.756 -1.1317 -0.2348 -0.2959
 1086SOL    HW1 8105   9.249   0.979   6.789 -1.0702  0.3066 -0.0671
 1086SOL    HW2 8106   9.101   0.957   6.815 -1.0010 -0.7643 -0.5717
 1087SOL     OW 8107   2.156   1.584   6.462 -0.1332  0.1910  0.1845
 1087SOL    HW1 8108   2.080   1.621   6.507  0.6133  1.4026  0.4628
 1087SOL    HW2 8109   2.227   1.645   6.480  1.2781 -1.6515  1.1360
 1088SOL     OW 8110   1.132   1.040   5.914 -0.2082 -0.3509  0.0855
 1088SOL    HW1 8111   1.117   0.993   5.996  2.9223  1.3656  1.7429
 1088SOL    HW2 8112   1.120   0.974   5.846 -2.2523 -1.9624  1.9094
 1089SOL     OW 8113   0.360   1.633   5.694  0.2836 -0.4636  0.4871
 1089SOL    HW1 8114   0.357   1.587   5.778 -1.0133 -1.0425  0.1424
 1089SOL    HW2 8115   0.420   1.706   5.709  0.6038 -0.9595  1.7153
 1090SOL     OW 8116   1.721   0.222   5.236  0.2253  0.2791 -0.0923
 1090SOL    HW1 8117   1.734   0.300   5.182 -0.0404  0.0294 -0.5173
 1090SOL    HW2 8118   1.640   0.239   5.283 -0.4611 -0.2505 -1.0770
 1091SOL     OW 8119   0.067   1.491   7.466  0.0019 -0.3158  0.5203
 1091SOL    HW1 8120   0.073   1.406   7.422  0.0521 -0.4990  0.8821
 1091SOL    HW2 8121   0.032   1.550   7.398 -1.0987 -0.8727  0.5857
 1092SOL     OW 8122   2.914   1.885   7.324 -0.4670  0.1937  0.2421
 1092SOL    HW1 8123   2.939   1.911   7.413  1.2103  1.0042 -0.4481
 1092SOL    HW2 8124   2.869   1.802   7.335  1.8871 -0.9552  1.6436
 1093SOL     OW 8125   1.542   0.349   4.467  0.2046  1.0201  0.1895
 1093SOL    HW1 8126   1.625   0.397   4.472 -0.4380  2.0111  1.6635
 1093SOL    HW2 8127   1.532   0.312   4.555 -1.0521  1.1182  0.0824
 1094SOL     OW 8128   0.241   1.790   8.916  0.3804  0.0989 -0.5600
 1094SOL    HW1 8129   0.147   1.774   8.909  0.2630 -0.3655  1.6728
 1094SOL    HW2 8130   0.280   1.728   8.854 -0.7844  0.5521 -1.7686
 1095SOL     OW 8131   0.537   9.921   8.921  0.3115  0.0584  0.6542
 1095SOL    HW1 8132   0.501   9.994   8.869  2.5754  0.1412 -0.8651
 1095SOL    HW2 8133   0.631   9.939   8.925  1.1663 -3.5847 -1.1397
 1096SOL     OW 8134   1.259   8.988   7.711 -0.5748 -0.3870  0.0818
 1096SOL    HW1 8135   1.234   9.042   7.636  2.2382 -1.2510 -1.5550
 1096SOL    HW2 8136   1.317   9.044   7.762 -1.7686 -0.1140  1.1558
 1097SOL     OW 8137   0.304   1.222   4.946 -0.3273 -0.5785  0.1906
 1097SOL    HW1 8138   0.330   1.310   4.921 -1.2690 -0.5363 -0.6883
 1097SOL    HW2 8139   0.326   1.168   4.870  0.2144 -1.1029  0.7112
 1098SOL     OW 8140   1.323   0.087   7.468 -0.1980 -0.0569  0.1234
 1098SOL    HW1 8141   1.316   0.176   7.432 -0.0249 -0.2739 -0.4511
 1098SOL    HW2 8142   1.330   0.101   7.562 -1.4120  0.4781  0.1477
 1099SOL     OW 8143   0.075   1.374   5.929 -0.2149  0.2755 -0.4037
 1099SOL    HW1 8144   0.049   1.379   5.837 -0.4200  0.2619 -0.3468
 1099SOL    HW2 8145   0.157   1.422   5.934  0.5393 -0.9278 -0.8786
 1100SOL     OW 8146   1.570   9.587   5.542 -0.1824 -0.1507  0.2258
 1100SOL    HW1 8147   1.630   9.614   5.472 -0.8110  1.0119  0.1184
 1100SOL    HW2 8148   1.627   9.552   5.610  0.3475 -2.5565 -1.4164
 1101SOL     OW 8149   2.109   9.962   5.625  0.3063 -0.0251 -0.6121
 1101SOL    HW1 8150   2.147  10.042   5.587 -1.0449  0.5661 -0.7363
 1101SOL    HW2 8151   2.023   9.955   5.585 -0.0850 -0.8532  0.3606
 1102SOL     OW 8152   0.412   9.933   6.951  0.1333  0.2267 -0.5349
 1102SOL    HW1 8153   0.349   9.873   6.991 -0.7609  1.3824 -0.1952
 1102SOL    HW2 8154   0.476   9.875   6.909 -0.8257 -0.9678 -0.3921
 1103SOL     OW 8155   2.054   9.667   5.146  0.4820  0.2069  0.6625
 1103SOL    HW1 8156   2.092   9.663   5.058  0.0249 -0.2462  0.4804
 1103SOL    HW2 8157   1.960   9.657   5.131  0.3537  0.6413  1.1654
 1104SOL     OW 8158   0.641   0.377   7.373 -0.1286 -0.1519  0.2374
 1104SOL    HW1 8159   0.573   0.351   7.311  1.4776 -2.0641 -0.7753
 1104SOL    HW2 8160   0.634   0.472   7.377 -1.7986 -0.1890 -1.1035
 1105SOL     OW 8161   0.272   1.922   6.279 -0.3459  0.4538 -0.2415
 1105SOL    HW1 8162   0.246   1.898   6.367  0.8685 -0.2557 -0.0675
 1105SOL    HW2 8163   0.294   2.015   6.285  0.4149  0.2383  0.3677
 1106SOL     OW 8164   2.058   1.942   4.825  0.2468 -0.5075  0.0245
 1106SOL    HW1 8165   1.993   1.994   4.871 -0.4916 -0.8236 -0.6528
 1106SOL    HW2 8166   2.036   1.852   4.846  0.6002 -0.6081 -0.0322
 1107SOL     OW 8167   0.507   1.786   6.142 -0.0699  0.3515 -0.6756
 1107SOL    HW1 8168   0.509   1.691   6.129  0.0136  0.2869 -0.2079
 1107SOL    HW2 8169   0.421   1.804   6.179  0.6537  0.1897  1.1671
 1108SOL     OW 8170   1.767   0.392   6.655 -0.2606 -0.5250 -0.0825
 1108SOL    HW1 8171   1.744   0.333   6.726 -0.1547  0.6977  0.9988
 1108SOL    HW2 8172   1.759   0.340   6.576 -0.1891 -1.9636  0.8499
 1109SOL     OW 8173   1.877   0.393   8.138  0.3259 -0.1962  0.4485
 1109SOL    HW1 8174   1.938   0.437   8.197 -0.3090  0.6125  0.5119
 1109SOL    HW2 8175   1.859   0.457   8.069  2.6226 -1.8604 -1.7460
 1110SOL     OW 8176   2.099   9.580   6.027 -0.0341 -0.2110  0.0294
 1110SOL    HW1 8177   2.026   9.569   6.088 -0.3050 -1.1815 -0.4643
 1110SOL    HW2 8178   2.154   9.647   6.068 -2.0942  1.8515 -0.4372
 1111SOL     OW 8179   1.164   0.605   6.883 -0.2516 -0.2827 -0.1815
 1111SOL    HW1 8180   1.097   0.620   6.949 -1.9606  0.7196 -2.1084
 1111SOL    HW2 8181   1.245   0.639   6.922 -1.4843  1.4846  0.8654
 1112SOL     OW 8182   0.100   0.561   7.707  0.2959  0.0472 -0.0286
 1112SOL    HW1 8183   0.090   0.656   7.719  1.7564  0.2857 -0.5513
 1112SOL    HW2 8184   0.090   0.548   7.612 -1.3924 -0.5313  0.2090
 1113SOL     OW 8185   1.574   9.250   5.624  0.0382 -0.0785  0.6801
 1113SOL    HW1 8186   1.528   9.268   5.542  1.5460 -2.5074 -0.7821
 1113SOL    HW2 8187   1.504   9.245   5.690 -1.4806 -0.6606 -0.9218
 1114SOL     OW 8188   1.110   0.807   7.153 -0.0546  0.5861  0.9499
 1114SOL    HW1 8189   1.203   0.786   7.150 -0.4256 -0.8178 -1.4125
 1114SOL    HW2 8190   1.104   0.892   7.109  0.0048  0.1945  0.1668
 1115SOL     OW 8191   2.043   1.825   6.975  0.0668 -0.6374  0.1811
 1115SOL    HW1 8192   2.016   1.777   6.897 -0.7182  0.5847 -0.3058
 1115SOL    HW2 8193   1.961   1.858   7.012  0.5833  0.1461  0.6256
 1116SOL     OW 8194   0.971   7.842   6.298  0.4774 -0.0965  0.0909
 1116SOL    HW1 8195   1.010   7.795   6.225  0.4974 -0.6189  0.4389
 1116SOL    HW2 8196   0.930   7.919   6.258  0.6920 -0.2553 -0.4362
 1117SOL     OW 8197   9.106   9.887   8.762  0.4340 -0.3297  0.5828
 1117SOL    HW1 8198   9.077   9.976   8.743 -2.6928 -1.6593 -1.3246
 1117SOL    HW2 8199   9.177   9.870   8.701  0.8516  0.7471  0.7656
 1118SOL     OW 8200   9.516   9.901   6.723 -0.1974 -0.0136 -0.1596
 1118SOL    HW1 8201   9.463   9.882   6.646 -0.2440 -0.3991 -0.0298
 1118SOL    HW2 8202   9.601   9.928   6.688 -0.4038  0.3749 -0.3610
 1119SOL     OW 8203   0.082   0.205   6.160 -0.0761 -0.0733 -0.0479
 1119SOL    HW1 8204   0.163   0.251   6.183  0.7957 -0.6714 -1.7964
 1119SOL    HW2 8205   0.037   0.266   6.101  0.2927 -0.7439 -1.0394
 1120SOL     OW 8206   9.015   1.655   6.291  0.0929  0.0025  0.4024
 1120SOL    HW1 8207   8.962   1.594   6.342  0.3772 -1.4604 -1.0018
 1120SOL    HW2 8208   8.951   1.710   6.246 -0.2099 -0.4897  0.2237
 1121SOL     OW 8209   0.330   0.339   6.209 -0.5400  0.4350 -0.2339
 1121SOL    HW1 8210   0.363   0.378   6.128  0.3054  0.2461  0.0205
 1121SOL    HW2 8211   0.336   0.409   6.273  0.4080  0.0684  0.0777
 1122SOL     OW 8212   1.984   0.925   7.048  0.2726 -0.2355 -0.0195
 1122SOL    HW1 8213   1.968   0.832   7.031 -2.6044 -0.1282  1.6860
 1122SOL    HW2 8214   1.949   0.969   6.971  0.8974 -0.5140 -0.4682
 1123SOL     OW 8215   9.722   1.391   5.516 -0.0682 -0.4595 -0.4353
 1123SOL    HW1 8216   9.777   1.317   5.492  1.2111  0.0713  0.7871
 1123SOL    HW2 8217   9.752   1.463   5.461 -2.0831 -1.1037 -2.4509
 1124SOL     OW 8218   0.914   0.550   7.009 -0.2628 -0.2508  0.1275
 1124SOL    HW1 8219   0.866   0.598   7.077 -1.3146 -0.7875 -0.2258
 1124SOL    HW2 8220   0.846   0.498   6.964  0.1039  1.5563 -2.5965
 1125SOL     OW 8221   1.301   1.426   7.489 -0.7768  0.2060 -0.3116
 1125SOL    HW1 8222   1.373   1.433   7.426 -0.0714  0.4556  0.5208
 1125SOL    HW2 8223   1.235   1.486   7.456  0.4193  1.8700  0.2894
 1126SOL     OW 8224   0.713   1.049   6.236  0.4067 -0.3619  0.0734
 1126SOL    HW1 8225   0.658   1.045   6.158  0.8937  2.4564 -0.4887
 1126SOL    HW2 8226   0.791   1.098   6.208  0.9405 -0.0012  2.0965
 1127SOL     OW 8227   3.646   0.714   5.109  0.1088 -0.4002 -0.1891
 1127SOL    HW1 8228   3.738   0.737   5.115  0.0867 -0.2354 -0.4890
 1127SOL    HW2 8229   3.637   0.637   5.165 -0.1743  1.3910  2.3352
 1128SOL     OW 8230   9.720   2.413   6.769 -0.2120 -0.4454 -0.2926
 1128SOL    HW1 8231   9.755   2.498   6.797 -1.5254 -0.7290  2.4330
 1128SOL    HW2 8232   9.748   2.404   6.678  2.9996  1.2944  0.4311
 1129SOL     OW 8233   1.722   0.502   6.995  0.4492 -0.3707  0.4361
 1129SOL    HW1 8234   1.643   0.469   6.952  1.0944 -1.6514  0.2046
 1129SOL    HW2 8235   1.774   0.423   7.013  1.5410  0.4321  0.8450
 1130SOL     OW 8236   9.181   1.560   6.098  0.4613  0.3044 -0.5423
 1130SOL    HW1 8237   9.129   1.576   6.176  1.2682  3.2577 -0.5376
 1130SOL    HW2 8238   9.266   1.530   6.131  0.8742  1.7589 -0.2370
 1131SOL     OW 8239   9.863   1.216   7.836 -0.1130  0.1373 -0.1704
 1131SOL    HW1 8240   9.942   1.176   7.798  1.2498  2.7790 -0.3126
 1131SOL    HW2 8241   9.791   1.180   7.785  1.1122 -1.4901 -0.7909
 1132SOL     OW 8242   0.684   1.217   6.480  0.3988 -0.3565  0.2108
 1132SOL    HW1 8243   0.686   1.137   6.428 -1.0074 -0.0601 -0.3193
 1132SOL    HW2 8244   0.665   1.286   6.416 -3.2505 -0.2138  1.3293
 1133SOL     OW 8245   2.528   9.762   7.604  0.3966 -0.0818 -0.2004
 1133SOL    HW1 8246   2.608   9.771   7.552  1.6159 -1.6287  1.3571
 1133SOL    HW2 8247   2.459   9.796   7.547  2.4244  3.4502 -0.7150
 1134SOL     OW 8248   0.112   0.989   8.057  0.0756 -0.3665  0.6385
 1134SOL    HW1 8249   0.018   0.990   8.069  0.1488 -0.1595  1.2063
 1134SOL    HW2 8250   0.128   1.051   7.985 -0.3443 -1.4828 -0.4307
 1135SOL     OW 8251   1.546   0.649   6.382  0.2062  0.3518  0.9517
 1135SOL    HW1 8252   1.569   0.691   6.465 -0.0005  0.7739  0.7948
 1135SOL    HW2 8253   1.474   0.701   6.348  1.4437  1.2355 -0.3539
 1136SOL     OW 8254   3.346   7.549   5.340 -0.2839  0.2915  0.1267
 1136SOL    HW1 8255   3.348   7.574   5.432  0.2517  1.1226 -0.1051
 1136SOL    HW2 8256   3.287   7.612   5.299 -0.1731  0.1976 -0.1814
 1137SOL     OW 8257   1.231   3.253   5.672  0.4155  0.0848  0.3997
 1137SOL    HW1 8258   1.228   3.348   5.667 -1.5865  0.0067 -0.1980
 1137SOL    HW2 8259   1.269   3.234   5.758 -0.0588  1.4036  0.9062
 1138SOL     OW 8260   1.626   9.918   6.517 -0.1916 -0.1007 -0.5170
 1138SOL    HW1 8261   1.605   9.935   6.609 -2.1780 -1.2526 -0.7407
 1138SOL    HW2 8262   1.568   9.977   6.468 -1.1125 -1.4650 -1.0839
 1139SOL     OW 8263   0.012   0.541   6.182 -0.4535 -0.3286 -0.7324
 1139SOL    HW1 8264   0.077   0.589   6.234 -0.4069 -0.4425 -0.6857
 1139SOL    HW2 8265   0.059   0.516   6.103 -0.3290 -0.7563 -0.5211
 1140SOL     OW 8266   0.494   0.642   7.168 -0.3380  0.1319  0.3729
 1140SOL    HW1 8267   0.499   0.687   7.084 -1.5917 -2.2553 -1.0123
 1140SOL    HW2 8268   0.575   0.666   7.213  0.2862  1.5132 -1.4584
 1141SOL     OW 8269   0.293   9.493   7.091  0.1092  0.6198  0.3382
 1141SOL    HW1 8270   0.385   9.519   7.099  0.9504 -1.9570 -0.3450
 1141SOL    HW2 8271   0.273   9.450   7.174 -0.0648 -0.0305 -0.0378
 1142SOL     OW 8272   0.215   0.654   9.636 -0.0126  0.1842  0.2063
 1142SOL    HW1 8273   0.232   0.656   9.730  2.4788 -0.1783 -0.1907
 1142SOL    HW2 8274   0.216   0.561   9.614  1.0386  0.3416 -0.4380
 1143SOL     OW 8275   9.456   0.380   7.014 -0.0012  0.2747  0.2954
 1143SOL    HW1 8276   9.405   0.359   7.092 -1.9311  0.9392 -0.7486
 1143SOL    HW2 8277   9.451   0.301   6.960 -0.8199  0.6911 -0.2561
 1144SOL     OW 8278   9.512   2.723   8.651 -0.0580  0.1475  0.5816
 1144SOL    HW1 8279   9.455   2.667   8.704 -0.8098  0.3165 -0.0288
 1144SOL    HW2 8280   9.514   2.681   8.565 -1.0069  1.2899 -0.0199
 1145SOL     OW 8281   0.782   0.527   8.328 -0.1574 -0.4526 -0.7777
 1145SOL    HW1 8282   0.714   0.535   8.262 -0.6120  0.0977 -0.2576
 1145SOL    HW2 8283   0.826   0.612   8.328  0.6825 -0.8821 -1.2740
 1146SOL     OW 8284   0.588   0.355   8.476 -0.0362 -0.0443 -0.3909
 1146SOL    HW1 8285   0.670   0.376   8.431 -0.1241  0.5528 -0.2785
 1146SOL    HW2 8286   0.521   0.403   8.427 -0.2491 -0.1047 -0.1588
 1147SOL     OW 8287   9.067   0.376   7.790 -0.7385 -0.3096  0.5590
 1147SOL    HW1 8288   9.160   0.399   7.798 -0.6688  0.6406 -2.4333
 1147SOL    HW2 8289   9.020   0.449   7.831 -0.2151 -0.2200  1.0051
 1148SOL     OW 8290   0.516   1.562   0.426  0.6224 -0.7219  0.4434
 1148SOL    HW1 8291   0.491   1.652   0.446  0.6033 -0.2585 -1.6052
 1148SOL    HW2 8292   0.435   1.521   0.396  1.5349 -0.1087 -3.0956
 1149SOL     OW 8293   9.772   1.506   7.754  0.9148 -0.0275 -0.2545
 1149SOL    HW1 8294   9.780   1.430   7.811 -0.0609  0.1689  0.1486
 1149SOL    HW2 8295   9.832   1.571   7.791 -1.0290  0.7554  1.6221
 1150SOL     OW 8296   9.873   9.473   9.537  0.1112 -0.1991 -0.1734
 1150SOL    HW1 8297   9.811   9.458   9.609  1.2358  1.0046  1.0761
 1150SOL    HW2 8298   9.914   9.387   9.522  2.2197  0.2047  2.8692
 1151SOL     OW 8299   8.859   2.306   8.978 -0.2140  0.7648 -0.2604
 1151SOL    HW1 8300   8.927   2.251   8.938 -1.2569 -0.8907  0.2114
 1151SOL    HW2 8301   8.894   2.328   9.064 -0.4746 -0.4975  0.1794
 1152SOL     OW 8302   0.532   0.968   0.315  0.1263 -0.4728 -0.0769
 1152SOL    HW1 8303   0.582   0.934   0.388 -0.1276  0.1605  0.4006
 1152SOL    HW2 8304   0.523   1.062   0.333 -1.2577 -0.5790 -0.1198
 1153SOL     OW 8305   1.555   9.343   8.612 -0.4710  0.4831 -0.5131
 1153SOL    HW1 8306   1.538   9.251   8.630 -0.7479  0.9124  1.4972
 1153SOL    HW2 8307   1.629   9.342   8.550  0.5193 -1.0402  0.6713
 1154SOL     OW 8308   0.708   0.923   8.616 -0.0313 -0.2219 -0.0328
 1154SOL    HW1 8309   0.688   0.866   8.542 -1.1211  0.2328 -0.1006
 1154SOL    HW2 8310   0.792   0.962   8.594 -0.3339 -0.1136 -1.0209
 1155SOL     OW 8311   9.032   9.759   8.462  0.0180 -0.3626  0.6776
 1155SOL    HW1 8312   8.974   9.833   8.444 -1.5890 -1.7577  0.0207
 1155SOL    HW2 8313   9.032   9.707   8.381 -1.3178 -2.7014  2.1213
 1156SOL     OW 8314   0.097   0.921   8.634 -0.0765  0.4689 -0.2305
 1156SOL    HW1 8315   0.047   0.884   8.561 -2.1260  1.5566  0.5816
 1156SOL    HW2 8316   0.034   0.926   8.706  0.5975  3.8059  0.2145
 1157SOL     OW 8317   8.752   1.870   8.068 -0.2884 -0.5830 -0.0556
 1157SOL    HW1 8318   8.742   1.897   7.977  2.0428  1.7369  0.3010
 1157SOL    HW2 8319   8.689   1.923   8.116  2.0059  1.9883  0.2401
 1158SOL     OW 8320   9.774   1.067   8.787 -0.0353  0.0958 -0.5646
 1158SOL    HW1 8321   9.831   0.995   8.816 -1.5197 -0.3708  1.3206
 1158SOL    HW2 8322   9.751   1.044   8.697 -1.1978 -2.2963  0.2998
 1159SOL     OW 8323   0.106   2.097   8.784 -0.4081 -0.3968  0.2387
 1159SOL    HW1 8324   0.057   2.088   8.866 -1.6411  0.9504 -0.3234
 1159SOL    HW2 8325   0.144   2.185   8.789  2.2492 -1.5409  0.8081
 1160SOL     OW 8326   0.078   0.564   8.471 -0.1450 -0.5226  0.4744
 1160SOL    HW1 8327   0.172   0.572   8.487  0.3142 -0.7056 -1.9972
 1160SOL    HW2 8328   0.069   0.576   8.376 -2.5603 -0.9913  0.6300
 1161SOL     OW 8329   1.057   3.101   8.638  0.2028  0.1796 -0.0457
 1161SOL    HW1 8330   1.044   3.166   8.706  0.1958  0.5428 -0.3905
 1161SOL    HW2 8331   1.100   3.149   8.567  1.1351 -0.4314  0.0996
 1162SOL     OW 8332   0.366   2.041   8.917 -0.2919  0.5949 -0.1416
 1162SOL    HW1 8333   0.341   1.949   8.913  2.0497 -0.2030  2.1744
 1162SOL    HW2 8334   0.308   2.078   8.984 -0.6276  0.5994 -0.4340
 1163SOL     OW 8335   8.979   1.021   7.947 -0.0809 -0.6867 -0.0763
 1163SOL    HW1 8336   9.070   1.049   7.952 -0.2072 -0.3821  0.5595
 1163SOL    HW2 8337   8.934   1.093   7.905 -0.5436  0.4355  2.2498
 1164SOL     OW 8338   0.746   1.187   9.737  0.2684  0.1793 -0.0310
 1164SOL    HW1 8339   0.827   1.141   9.759  0.4371  0.3916 -0.2153
 1164SOL    HW2 8340   0.717   1.148   9.655 -1.2989 -1.8578  1.4202
 1165SOL     OW 8341   2.178   8.480   8.048  0.6838 -0.0810  0.3055
 1165SOL    HW1 8342   2.200   8.554   8.103 -1.0782  0.8763 -0.2453
 1165SOL    HW2 8343   2.159   8.409   8.109 -0.1283  0.6445  0.9015
 1166SOL     OW 8344   0.186   1.522   8.808 -0.1479 -0.0256  0.0761
 1166SOL    HW1 8345   0.206   1.522   8.714 -2.7541 -0.8493 -0.5233
 1166SOL    HW2 8346   0.094   1.547   8.812  0.4411  1.9118  2.5725
 1167SOL     OW 8347   1.375   0.587   7.760  0.1736 -0.5379  0.1095
 1167SOL    HW1 8348   1.382   0.621   7.850  2.5974  1.0220 -0.6293
 1167SOL    HW2 8349   1.392   0.493   7.769  0.4947 -0.3758  1.2801
 1168SOL     OW 8350   1.981   0.940   9.739 -0.6876  0.0560  0.2667
 1168SOL    HW1 8351   1.992   0.859   9.789 -1.3715 -1.0077 -1.2459
 1168SOL    HW2 8352   1.888   0.962   9.749 -0.8563 -0.2235 -0.5838
 1169SOL     OW 8353   9.661   0.003   9.371 -0.4688  0.2450 -0.0846
 1169SOL    HW1 8354   9.612  -0.063   9.420 -0.2484  0.4252  0.3766
 1169SOL    HW2 8355   9.737   0.022   9.426  0.8323 -0.9953 -1.3984
 1170SOL     OW 8356   9.497   0.736   7.907 -0.5893  0.6557 -0.0267
 1170SOL    HW1 8357   9.567   0.711   7.847 -0.5683 -0.0681  0.3005
 1170SOL    HW2 8358   9.540   0.747   7.992 -1.0754 -1.0083  0.4434
 1171SOL     OW 8359   2.710   2.212   7.018  0.2056 -0.2438 -0.1529
 1171SOL    HW1 8360   2.762   2.132   7.031  0.3985 -0.0645  0.2001
 1171SOL    HW2 8361   2.652   2.192   6.945  1.7196  0.0172 -1.4509
 1172SOL     OW 8362   1.256   8.495   7.378 -0.1169 -0.1098  0.0406
 1172SOL    HW1 8363   1.303   8.523   7.456 -0.3788  2.5087 -0.6719
 1172SOL    HW2 8364   1.273   8.401   7.371  1.1351 -0.0885  2.3767
 1173SOL     OW 8365   1.132   9.037   9.771  0.0450 -0.5049  0.2008
 1173SOL    HW1 8366   1.196   9.087   9.720 -0.5111  0.6160  0.5834
 1173SOL    HW2 8367   1.060   9.098   9.785 -0.3992 -1.2410  1.1733
 1174SOL     OW 8368   2.487   2.698   9.006 -0.5076  0.2136  0.5826
 1174SOL    HW1 8369   2.480   2.752   9.086  1.3763 -1.6114  2.0273
 1174SOL    HW2 8370   2.417   2.633   9.015  0.7298 -1.0076  1.5840
 1175SOL     OW 8371   1.925   2.006   8.383 -0.7809 -0.0566 -0.1326
 1175SOL    HW1 8372   1.918   1.962   8.468 -3.1855 -0.8538 -0.7004
 1175SOL    HW2 8373   1.838   2.043   8.368 -0.5964 -0.5545 -2.5874
 1176SOL     OW 8374   0.509   9.843   8.363 -0.3000 -0.6015  0.0973
 1176SOL    HW1 8375   0.449   9.820   8.434  0.9925 -1.2027  1.0184
 1176SOL    HW2 8376   0.485   9.783   8.292  0.6608 -2.3876  1.2408
 1177SOL     OW 8377   1.215   0.485   8.010  0.3210 -0.2511  0.4528
 1177SOL    HW1 8378   1.146   0.548   8.030  2.2573  1.1445  3.1283
 1177SOL    HW2 8379   1.168   0.404   7.989 -2.1543  0.8047  1.6469
 1178SOL     OW 8380   9.588   1.150   9.526 -0.1843  0.5087 -0.0309
 1178SOL    HW1 8381   9.525   1.145   9.597  0.3889 -2.1165  0.3146
 1178SOL    HW2 8382   9.538   1.125   9.448  0.4988 -2.0467  0.3159
 1179SOL     OW 8383   1.911   9.899   7.705  0.6968  0.1019  0.0842
 1179SOL    HW1 8384   1.919   9.949   7.786  0.5788 -0.5195  0.4802
 1179SOL    HW2 8385   1.837   9.840   7.719 -1.0397  1.8488 -1.4687
 1180SOL     OW 8386   8.466   3.534   7.272  0.0146 -0.2725 -0.2620
 1180SOL    HW1 8387   8.420   3.504   7.351  1.7652 -0.5194  0.7009
 1180SOL    HW2 8388   8.511   3.456   7.240  1.9600  0.5442  0.4006
 1181SOL     OW 8389   9.244   0.331   0.199  0.7084  0.3400  0.2488
 1181SOL    HW1 8390   9.214   0.421   0.188  2.9256  0.7747 -2.7558
 1181SOL    HW2 8391   9.331   0.339   0.238  0.2965 -0.5861  1.4007
 1182SOL     OW 8392   1.191   9.579   7.737 -0.1126 -0.3292  0.4339
 1182SOL    HW1 8393   1.213   9.493   7.771  1.1379 -0.2610 -0.1736
 1182SOL    HW2 8394   1.268   9.633   7.756 -1.1285  0.8245  1.3752
 1183SOL     OW 8395   1.397   0.685   9.965 -0.2579 -0.0792 -0.2507
 1183SOL    HW1 8396   1.326   0.621   9.978 -1.7114  1.7374  1.0980
 1183SOL    HW2 8397   1.455   0.672  10.040  0.6288 -1.2407 -1.1062
 1184SOL     OW 8398   9.994   8.709   8.191 -0.2868 -0.0865 -0.7404
 1184SOL    HW1 8399  10.060   8.699   8.123 -1.0902 -0.1742 -1.5204
 1184SOL    HW2 8400   9.913   8.727   8.143 -0.4641  2.0137  0.2688
 1185SOL     OW 8401   0.057   0.893   9.296  0.1162 -0.6199  0.3427
 1185SOL    HW1 8402   0.146   0.872   9.322  1.0533  1.5418 -0.9773
 1185SOL    HW2 8403   0.067   0.945   9.216 -2.2628  0.5211  0.7413
 1186SOL     OW 8404   8.668   2.266   9.644 -0.2199  0.1300  0.2897
 1186SOL    HW1 8405   8.760   2.242   9.659 -0.2167  0.6106  1.0741
 1186SOL    HW2 8406   8.662   2.357   9.671 -0.8665  0.1793 -0.0190
 1187SOL     OW 8407   0.497   0.297   9.647 -0.2370  0.2776  0.2169
 1187SOL    HW1 8408   0.501   0.319   9.554 -1.4503  1.8010  0.5005
 1187SOL    HW2 8409   0.572   0.343   9.686  0.2309 -0.3057  0.0267
 1188SOL     OW 8410   0.064   0.541   8.217 -0.2608 -0.4442 -0.6449
 1188SOL    HW1 8411   0.061   0.613   8.154 -1.1667 -0.6539 -0.8520
 1188SOL    HW2 8412   0.010   0.472   8.177 -0.0053 -0.9614 -0.1069
 1189SOL     OW 8413   9.939   1.365   9.420  0.0779  0.2507 -0.1293
 1189SOL    HW1 8414  10.023   1.372   9.375 -0.4442 -1.3474 -1.4055
 1189SOL    HW2 8415   9.955   1.307   9.494 -0.0357 -0.5291 -0.7156
 1190SOL     OW 8416   0.280   0.764   8.273  0.1224 -0.1377  0.1712
 1190SOL    HW1 8417   0.261   0.817   8.351 -0.9386 -0.2089 -0.0238
 1190SOL    HW2 8418   0.351   0.811   8.229 -0.2739  0.7061  0.4160
 1191SOL     OW 8419   9.424   7.947   1.961 -0.0170 -0.2969 -0.7609
 1191SOL    HW1 8420   9.478   7.873   1.990  0.6431  0.3461 -0.3249
 1191SOL    HW2 8421   9.486   8.009   1.924 -0.5233  0.2291 -0.7373
 1192SOL     OW 8422   2.312   1.614   5.760 -0.0183  0.0195 -0.3657
 1192SOL    HW1 8423   2.384   1.602   5.821  1.0799 -0.5707 -1.7523
 1192SOL    HW2 8424   2.233   1.594   5.811  1.0842 -3.4224  0.0582
 1193SOL     OW 8425   0.013   2.126   6.274  0.4040  0.3952  0.4143
 1193SOL    HW1 8426  -0.005   2.214   6.241 -0.5408  0.5968  1.4108
 1193SOL    HW2 8427   0.012   2.070   6.197 -1.6972  0.8606  0.0616
 1194SOL     OW 8428   1.901   0.441   8.463 -0.1540 -0.1252  0.4047
 1194SOL    HW1 8429   1.956   0.489   8.525  2.6287 -2.4641 -0.1746
 1194SOL    HW2 8430   1.868   0.366   8.514 -1.1555  0.1281  0.1507
 1195SOL     OW 8431   9.202   2.892   8.186  0.0604 -0.1368  0.5941
 1195SOL    HW1 8432   9.183   2.845   8.105 -0.2207 -0.3193  0.7587
 1195SOL    HW2 8433   9.131   2.956   8.194 -0.5627 -0.8867  1.2692
 1196SOL     OW 8434   0.664   9.368   9.171 -0.5830 -0.4956 -0.0398
 1196SOL    HW1 8435   0.749   9.414   9.170 -0.0453 -1.4865 -0.3465
 1196SOL    HW2 8436   0.674   9.301   9.239 -1.1274 -0.6092 -0.0731
 1197SOL     OW 8437   0.052   1.222   0.160  0.1416 -0.4577 -0.2937
 1197SOL    HW1 8438   0.128   1.277   0.140  0.3182 -0.4140  0.4913
 1197SOL    HW2 8439  -0.023   1.275   0.132  0.1925  0.9771  2.0969
 1198SOL     OW 8440   0.389   9.097   0.104 -0.3941 -0.5279 -0.0374
 1198SOL    HW1 8441   0.472   9.128   0.068 -0.3329  1.9121  2.0892
 1198SOL    HW2 8442   0.324   9.160   0.074 -0.9172 -0.4758  1.1767
 1199SOL     OW 8443   0.574   9.938   7.982 -0.2855 -0.3795 -0.0896
 1199SOL    HW1 8444   0.545   9.854   8.019 -0.5536 -0.3034 -0.1282
 1199SOL    HW2 8445   0.499   9.996   7.992 -0.3980 -0.3899 -0.8433
 1200SOL     OW 8446   8.711   1.544   8.566 -0.5367  0.2799 -0.0739
 1200SOL    HW1 8447   8.796   1.516   8.598  0.4641  2.4344 -0.7894
 1200SOL    HW2 8448   8.718   1.540   8.471 -1.1627  0.5946 -0.1386
 1201SOL     OW 8449   9.579   2.644   8.120 -1.1873 -0.3494  0.0447
 1201SOL    HW1 8450   9.561   2.560   8.077  0.6897 -1.2930  1.0594
 1201SOL    HW2 8451   9.656   2.679   8.075  0.9683 -1.4737  2.7321
 1202SOL     OW 8452   1.126   0.000   0.043  0.3413 -0.1694 -0.0957
 1202SOL    HW1 8453   1.102   0.091   0.024  0.4155  0.2745  1.8143
 1202SOL    HW2 8454   1.194  -0.021  -0.021  2.3794  2.0858  1.2186
 1203SOL     OW 8455   2.523   1.648   9.479  0.3323  0.2953 -0.1833
 1203SOL    HW1 8456   2.475   1.575   9.440 -0.5851  0.0920  1.2572
 1203SOL    HW2 8457   2.454   1.710   9.506  0.9238  0.4510  1.0170
 1204SOL     OW 8458   0.184   0.041   8.625  0.2152  0.0301 -0.3802
 1204SOL    HW1 8459   0.273   0.057   8.657 -0.1388  2.2513 -0.4555
 1204SOL    HW2 8460   0.169   0.108   8.559 -1.4100 -0.5299 -0.6177
 1205SOL     OW 8461   0.900   9.367   8.609 -0.0716 -0.4633  0.1271
 1205SOL    HW1 8462   0.951   9.301   8.655 -0.2642 -2.1315 -1.9845
 1205SOL    HW2 8463   0.892   9.333   8.519 -1.1120  1.8927 -0.7092
 1206SOL     OW 8464   1.130   0.391   7.047  0.0867 -0.2112 -0.0302
 1206SOL    HW1 8465   1.170   0.457   6.991  1.8020 -0.8779  0.3897
 1206SOL    HW2 8466   1.036   0.401   7.032  0.5043 -0.5762 -3.2370
 1207SOL     OW 8467   9.995   9.805   9.057  0.0468  0.0653 -0.1378
 1207SOL    HW1 8468  10.026   9.718   9.034 -2.1057 -0.8056  0.1839
 1207SOL    HW2 8469   9.931   9.827   8.989 -2.5477 -0.3829  2.0762
 1208SOL     OW 8470   0.027   0.207   7.305 -0.3441 -0.1258 -0.2092
 1208SOL    HW1 8471  -0.025   0.173   7.233 -1.4149 -3.4251  1.9952
 1208SOL    HW2 8472  -0.036   0.252   7.361  0.1958  0.9524 -0.4572
 1209SOL     OW 8473   0.536   2.235   8.779 -0.2884 -0.5528  0.1555
 1209SOL    HW1 8474   0.449   2.274   8.783 -0.6268 -1.1784 -0.9759
 1209SOL    HW2 8475   0.589   2.290   8.836 -1.1530  0.5402 -0.0818
 1210SOL     OW 8476   1.621   0.671   9.689 -0.0452 -0.1807  0.0518
 1210SOL    HW1 8477   1.640   0.715   9.772  1.1109 -1.1839  0.3335
 1210SOL    HW2 8478   1.622   0.578   9.711 -1.6361 -0.3900 -0.7076
 1211SOL     OW 8479   1.256   1.032   9.925 -0.3932 -0.2945 -0.0539
 1211SOL    HW1 8480   1.216   1.094   9.866 -1.3923 -0.8603  0.0249
 1211SOL    HW2 8481   1.309   0.975   9.869  0.1893  0.3548 -0.1709
 1212SOL     OW 8482   0.832   9.737   7.522 -0.1878 -0.4097 -1.0889
 1212SOL    HW1 8483   0.754   9.754   7.470 -1.4511  1.0799  1.2022
 1212SOL    HW2 8484   0.810   9.660   7.574 -0.2356  0.1640 -0.2529
 1213SOL     OW 8485   0.485   0.230   6.596  0.2850  0.1623 -0.0426
 1213SOL    HW1 8486   0.529   0.196   6.674  0.5041  0.2465 -0.1302
 1213SOL    HW2 8487   0.496   0.325   6.602 -0.6448  0.2511  0.3965
 1214SOL     OW 8488   9.707   9.399   0.129 -0.2049  0.3933 -0.0901
 1214SOL    HW1 8489   9.779   9.345   0.159 -0.8274 -1.1539 -1.2983
 1214SOL    HW2 8490   9.747   9.462   0.070  0.2098 -0.3005 -0.5570
 1215SOL     OW 8491   9.568   1.549   9.859  0.1042 -0.2849  0.2161
 1215SOL    HW1 8492   9.602   1.509   9.939  0.2203 -0.0511  0.2853
 1215SOL    HW2 8493   9.581   1.483   9.791  2.6263  0.5434 -0.1832
 1216SOL     OW 8494   1.495   8.503   7.947  0.1645 -0.5500 -0.1237
 1216SOL    HW1 8495   1.557   8.574   7.965  0.3423 -0.9589  0.8706
 1216SOL    HW2 8496   1.448   8.490   8.029  0.9814 -2.4291  0.0636
 1217SOL     OW 8497   0.753   0.041   7.792  0.3036 -0.3238  0.5037
 1217SOL    HW1 8498   0.690  -0.031   7.795 -0.6617  0.4763 -0.2906
 1217SOL    HW2 8499   0.722   0.097   7.721  1.1490  0.7970  1.0071
 1218SOL     OW 8500   1.799   0.608   7.991 -0.4679 -0.0153  0.2528
 1218SOL    HW1 8501   1.755   0.652   7.918 -1.1052 -0.3402  0.4390
 1218SOL    HW2 8502   1.783   0.666   8.066 -1.1817 -0.4858  0.4674
 1219SOL     OW 8503   1.975   0.656   7.716 -0.3284 -0.1684  0.2242
 1219SOL    HW1 8504   1.918   0.715   7.766 -0.1134  1.0024 -0.8683
 1219SOL    HW2 8505   2.063   0.690   7.731 -0.3986  1.1832 -2.1854
 1220SOL     OW 8506   0.584   9.337   7.652  0.0399 -0.3338  0.0030
 1220SOL    HW1 8507   0.672   9.373   7.643  0.0136  0.0717  1.2705
 1220SOL    HW2 8508   0.533   9.408   7.690 -0.8359 -0.5747 -0.7073
 1221SOL     OW 8509   1.655   7.743   8.017 -0.0646  0.7155 -0.5879
 1221SOL    HW1 8510   1.721   7.764   7.951  1.3300  0.7995  0.7936
 1221SOL    HW2 8511   1.684   7.659   8.053 -0.0069  1.3598  0.8987
 1222SOL     OW 8512   9.741   1.361   8.083 -0.1730 -0.3404 -0.0763
 1222SOL    HW1 8513   9.649   1.335   8.085 -0.0526 -0.7401  1.3946
 1222SOL    HW2 8514   9.780   1.310   8.012 -0.7104 -1.5039  0.4564
 1223SOL     OW 8515   1.508   2.181   7.913 -0.6071  0.2228  0.2594
 1223SOL    HW1 8516   1.567   2.136   7.973 -1.0268  1.2006  1.4273
 1223SOL    HW2 8517   1.562   2.203   7.838 -0.0284 -0.8616  0.3480
 1224SOL     OW 8518   0.875   9.293   8.332  0.0261  0.4664 -0.5819
 1224SOL    HW1 8519   0.958   9.306   8.285 -0.6929 -0.3951 -2.1381
 1224SOL    HW2 8520   0.812   9.270   8.263 -1.1726 -0.3679  0.7665
 1225SOL     OW 8521   1.219   2.285   9.270  0.9065 -0.1489  0.4297
 1225SOL    HW1 8522   1.304   2.308   9.307  0.7973 -0.5608  0.9446
 1225SOL    HW2 8523   1.232   2.199   9.229  0.1779 -1.2920  2.5185
 1226SOL     OW 8524   9.321   9.157   8.049 -0.3405 -0.5589  0.7005
 1226SOL    HW1 8525   9.311   9.197   8.135 -0.4349  1.8240 -0.3515
 1226SOL    HW2 8526   9.394   9.205   8.009 -1.3416 -0.4951 -1.1308
 1227SOL     OW 8527   0.318   0.399   8.078  0.6189  0.2674  0.3103
 1227SOL    HW1 8528   0.264   0.396   8.157  0.9584  0.0951  0.5399
 1227SOL    HW2 8529   0.306   0.488   8.044  2.1000  1.0538  1.7318
 1228SOL     OW 8530   1.716   9.497   7.826 -0.0938 -0.1763 -0.2417
 1228SOL    HW1 8531   1.704   9.453   7.910  3.4457  0.5314  0.7335
 1228SOL    HW2 8532   1.694   9.589   7.843  0.1039 -0.1296 -0.2377
 1229SOL     OW 8533   0.496   1.487   9.987 -0.3887 -0.0126  0.1257
 1229SOL    HW1 8534   0.424   1.535   9.947  1.1350  3.8897  1.8056
 1229SOL    HW2 8535   0.454   1.424  10.046 -2.4149  0.6505 -0.5815
 1230SOL     OW 8536   1.018   8.961   0.438 -0.0204  0.3165  0.7935
 1230SOL    HW1 8537   1.087   8.897   0.421 -1.1804 -1.0624  1.1601
 1230SOL    HW2 8538   1.012   8.964   0.533 -0.9251 -0.0785  0.7494
 1231SOL     OW 8539   0.985   1.310   9.976  0.1742 -0.2597  0.1837
 1231SOL    HW1 8540   0.970   1.230   9.926  0.4412 -0.7951  0.9439
 1231SOL    HW2 8541   0.915   1.369   9.949  1.0541 -0.0836 -1.7601
 1232SOL     OW 8542   1.063   0.804   0.009 -0.1961 -0.0569  0.0039
 1232SOL    HW1 8543   1.003   0.798  -0.065 -0.6399  0.6551  0.3024
 1232SOL    HW2 8544   1.123   0.874  -0.015 -0.4924  0.3446  0.4240
 1233SOL     OW 8545   2.050   1.973   9.766 -0.0955  0.0056  0.7308
 1233SOL    HW1 8546   2.113   1.922   9.715  0.4192  1.3439 -0.0219
 1233SOL    HW2 8547   1.965   1.948   9.731  0.0589 -1.2486  1.2242
 1234SOL     OW 8548   8.851   1.086   9.327 -0.1401  0.8345 -0.3100
 1234SOL    HW1 8549   8.829   1.179   9.316 -2.0033  0.7862  2.5957
 1234SOL    HW2 8550   8.767   1.043   9.341  0.8864 -1.0172  0.2939
 1235SOL     OW 8551   9.035   1.065   6.526  0.3353  0.3054  0.4013
 1235SOL    HW1 8552   9.082   1.031   6.603 -0.1732 -1.1286  0.0827
 1235SOL    HW2 8553   8.950   1.093   6.560  0.1490 -0.2361  0.3922
 1236SOL     OW 8554   0.042   0.823   7.711 -0.1745 -0.1410 -0.3490
 1236SOL    HW1 8555   0.095   0.901   7.726  1.5357 -1.6227  1.5135
 1236SOL    HW2 8556   0.012   0.832   7.620 -0.3661  2.8551 -0.0395
 1237SOL     OW 8557   2.745   2.471   0.257 -0.4637  0.3140 -0.4053
 1237SOL    HW1 8558   2.683   2.437   0.322  0.9507 -3.4401 -0.9123
 1237SOL    HW2 8559   2.820   2.501   0.309 -0.4314 -0.2451 -0.1267
 1238SOL     OW 8560   2.196   0.219   7.041 -0.1673 -0.0219 -0.2732
 1238SOL    HW1 8561   2.137   0.212   7.115 -1.1090 -2.1798 -1.1719
 1238SOL    HW2 8562   2.145   0.262   6.972  0.6538  1.8368  0.2417
 1239SOL     OW 8563   9.558   1.379   9.324  0.1483  0.5498 -0.2384
 1239SOL    HW1 8564   9.552   1.391   9.419 -1.1814 -0.1903 -0.2200
 1239SOL    HW2 8565   9.518   1.294   9.308  1.4702  0.1237 -1.3447
 1240SOL     OW 8566   0.976   1.029   9.793 -0.2573  0.2868 -0.2495
 1240SOL    HW1 8567   0.935   0.943   9.795 -0.3414  0.3245 -0.3392
 1240SOL    HW2 8568   1.044   1.022   9.727 -0.2804  0.2962 -0.2741
 1241SOL     OW 8569   0.303   0.710   9.171 -0.1129  0.4874 -0.3839
 1241SOL    HW1 8570   0.236   0.697   9.238  0.4181  0.0607  0.0653
 1241SOL    HW2 8571   0.309   0.626   9.126  0.1034  0.5321 -0.4379
 1242SOL     OW 8572   1.179   9.471   0.404  0.0331 -0.0581  0.4208
 1242SOL    HW1 8573   1.152   9.383   0.377 -1.9397  1.1170 -1.7103
 1242SOL    HW2 8574   1.273   9.464   0.416  0.0181 -2.3169 -0.3966
 1243SOL     OW 8575   0.021   0.433   0.112  0.1146  0.2201 -0.1040
 1243SOL    HW1 8576   0.102   0.482   0.119  0.3633  0.0257 -1.4778
 1243SOL    HW2 8577   0.028   0.386   0.028 -1.0683 -0.4013  0.1290
 1244SOL     OW 8578   0.107   0.565   9.340  0.6665  0.6603 -0.4046
 1244SOL    HW1 8579   0.154   0.521   9.411  2.6881  3.2488 -0.0660
 1244SOL    HW2 8580   0.031   0.605   9.383  1.1549  1.0901  0.0673
 1245SOL     OW 8581   9.614   8.934   8.944  0.0022  0.4141 -0.5208
 1245SOL    HW1 8582   9.609   8.984   8.862  1.7877  1.7273  0.1443
 1245SOL    HW2 8583   9.602   9.000   9.012  0.8982 -0.2929  0.3308
 1246SOL     OW 8584   0.779   1.066   7.709  0.1778 -0.8084 -0.1541
 1246SOL    HW1 8585   0.764   1.057   7.803 -0.2209 -1.5670 -0.2890
 1246SOL    HW2 8586   0.737   0.989   7.670 -1.3914  0.4979 -1.1178
 1247SOL     OW 8587   1.304   9.381   9.095 -0.6008 -0.0487 -0.1251
 1247SOL    HW1 8588   1.369   9.388   9.026  1.1027 -0.6380  1.3813
 1247SOL    HW2 8589   1.231   9.434   9.065 -0.5891 -1.6669 -3.1467
 1248SOL     OW 8590   1.014   0.612   8.874 -0.3010 -0.1339  0.0703
 1248SOL    HW1 8591   1.046   0.701   8.860 -0.1060 -0.3699 -1.0741
 1248SOL    HW2 8592   1.074   0.557   8.822 -1.5185 -0.7464 -0.7167
 1249SOL     OW 8593   2.491   9.706   9.586 -0.0969  0.3026  0.4509
 1249SOL    HW1 8594   2.500   9.801   9.581  2.0564  0.0821 -0.9569
 1249SOL    HW2 8595   2.578   9.673   9.561 -0.7239 -2.0199  1.2067
 1250SOL     OW 8596   0.651   0.806   7.613  0.6714  0.2622  0.1754
 1250SOL    HW1 8597   0.578   0.815   7.552  0.7886 -1.6394 -0.2885
 1250SOL    HW2 8598   0.685   0.717   7.597  3.0697  1.0930  0.3731
 1251SOL     OW 8599   1.741   1.432   7.435 -0.0002  0.3660  0.1230
 1251SOL    HW1 8600   1.824   1.400   7.471 -0.8060 -0.1546  1.5402
 1251SOL    HW2 8601   1.674   1.382   7.481 -1.0901  0.0284 -1.7590
 1252SOL     OW 8602   1.946   9.675   8.323  0.5996 -0.2261  0.5619
 1252SOL    HW1 8603   1.874   9.681   8.387 -0.5124 -0.8681 -0.6058
 1252SOL    HW2 8604   2.012   9.737   8.356 -0.7797  0.9164  1.2779
 1253SOL     OW 8605   0.747   1.245   8.072 -0.2096  0.3222  0.3025
 1253SOL    HW1 8606   0.833   1.283   8.058 -0.0921  1.1437  2.9838
 1253SOL    HW2 8607   0.757   1.189   8.148 -2.2531  1.1881  1.2530
 1254SOL     OW 8608   3.428   1.040   8.671  0.7813  0.6582  0.5131
 1254SOL    HW1 8609   3.402   1.101   8.602  0.7529  0.0406 -0.0308
 1254SOL    HW2 8610   3.517   1.015   8.647  1.4110  1.7918  1.6692
 1255SOL     OW 8611   9.090   1.750   7.819  0.2458 -0.4001  0.3817
 1255SOL    HW1 8612   9.001   1.722   7.799  0.2256  0.7104 -1.1229
 1255SOL    HW2 8613   9.079   1.830   7.872  0.3536  0.0844 -0.3283
 1256SOL     OW 8614   1.641   9.363   8.073 -0.1993  0.0522 -0.0753
 1256SOL    HW1 8615   1.614   9.374   8.164  0.2947  1.5799 -0.1024
 1256SOL    HW2 8616   1.630   9.269   8.056 -1.9817  0.0487  1.0093
 1257SOL     OW 8617   0.009   9.845   7.554  1.0546  0.2108 -0.1627
 1257SOL    HW1 8618  -0.084   9.864   7.563  1.4653  2.4309 -0.3560
 1257SOL    HW2 8619   0.013   9.756   7.519 -0.9554 -0.5923  1.5648
 1258SOL     OW 8620   9.882   0.796   8.504  0.1482  0.3988 -0.4151
 1258SOL    HW1 8621   9.825   0.826   8.434  1.7983 -0.4460 -2.1754
 1258SOL    HW2 8622   9.915   0.711   8.475  0.9918  0.0906  1.3057
 1259SOL     OW 8623   2.011   0.038   8.785  0.3499  0.1158 -0.1235
 1259SOL    HW1 8624   1.968   0.069   8.865 -0.1160 -1.9288  0.4401
 1259SOL    HW2 8625   1.956   0.071   8.714 -2.0859 -2.2650  0.5740
 1260SOL     OW 8626   9.798   1.362   8.346 -0.7443  0.2574  0.0847
 1260SOL    HW1 8627   9.883   1.325   8.370 -0.5738  1.0365  0.7035
 1260SOL    HW2 8628   9.791   1.348   8.252 -1.0659 -2.1548  0.4322
 1261SOL     OW 8629   0.660   1.732   9.242  0.2039  0.6633 -0.4267
 1261SOL    HW1 8630   0.747   1.692   9.247 -1.2322 -2.6400  0.0263
 1261SOL    HW2 8631   0.617   1.686   9.169 -2.2276 -0.0802  1.4099
 1262SOL     OW 8632   1.855   9.957   9.280  0.3284  1.5139  0.2019
 1262SOL    HW1 8633   1.907   9.992   9.352  0.2605  0.9739  0.5201
 1262SOL    HW2 8634   1.906   9.975   9.201  0.7877  1.3730  0.4686
 1263SOL     OW 8635   9.139   0.413   6.353 -0.0593 -0.1361  0.2599
 1263SOL    HW1 8636   9.232   0.430   6.340  0.0241  0.0962  1.1362
 1263SOL    HW2 8637   9.114   0.358   6.279  1.9407 -4.3754  2.4833
 1264SOL     OW 8638   7.623   0.312   9.512  0.4250  0.0612 -0.7969
 1264SOL    HW1 8639   7.554   0.247   9.526  0.9293 -0.5499 -1.1082
 1264SOL    HW2 8640   7.592   0.364   9.437 -0.0122  0.2269 -0.5025
 1265SOL     OW 8641   0.259   1.462   9.059  0.2172  0.3428 -0.5224
 1265SOL    HW1 8642   0.311   1.383   9.051 -0.6235 -0.1795 -0.8242
 1265SOL    HW2 8643   0.220   1.475   8.973 -0.8891  0.2202 -0.0416
 1266SOL     OW 8644   0.795   0.585   8.646  0.1029  0.2524 -0.1777
 1266SOL    HW1 8645   0.740   0.588   8.568 -1.5629 -0.0786  0.9680
 1266SOL    HW2 8646   0.856   0.513   8.629 -1.4737 -1.0663 -0.3894
 1267SOL     OW 8647   9.883   9.426   9.200  0.0890 -0.4571 -0.1621
 1267SOL    HW1 8648   9.793   9.441   9.226 -0.4749  1.6079 -2.9757
 1267SOL    HW2 8649   9.935   9.483   9.258 -0.7232  0.7548 -0.6077
 1268SOL     OW 8650   0.065   2.090   1.088  0.1359 -0.5421  0.0329
 1268SOL    HW1 8651   0.084   2.175   1.048  0.4409 -0.8063 -0.3964
 1268SOL    HW2 8652   0.149   2.045   1.089 -0.1093 -1.0086 -0.1580
 1269SOL     OW 8653   2.173   1.779   0.185 -0.0394 -0.0527 -0.6848
 1269SOL    HW1 8654   2.209   1.752   0.269 -2.0607  2.1971  0.9536
 1269SOL    HW2 8655   2.124   1.702   0.154 -0.5200 -0.4085  0.9085
 1270SOL     OW 8656   1.912   8.412   8.081  0.2944 -0.7561 -0.1956
 1270SOL    HW1 8657   1.986   8.472   8.082  1.1206 -1.7615  2.1681
 1270SOL    HW2 8658   1.850   8.448   8.144 -1.6332  0.5066 -2.7305
 1271SOL     OW 8659   1.417   0.543   8.534  0.2796 -0.2695  0.0402
 1271SOL    HW1 8660   1.493   0.558   8.478 -0.3004  1.9894 -0.2159
 1271SOL    HW2 8661   1.452   0.501   8.613  1.3677 -1.7371 -1.1980
 1272SOL     OW 8662   8.711   2.485   7.766  0.4254  0.1938 -0.0150
 1272SOL    HW1 8663   8.749   2.516   7.683  0.1332 -2.3893 -1.1611
 1272SOL    HW2 8664   8.776   2.509   7.832 -0.0192  3.6426 -0.7362
 1273SOL     OW 8665   2.980   9.721   9.818  0.0658 -0.0902  0.1376
 1273SOL    HW1 8666   2.886   9.716   9.835  0.0516 -0.1030  0.0539
 1273SOL    HW2 8667   3.019   9.735   9.905 -0.1619  2.1010 -0.0922
 1274SOL     OW 8668   1.240   0.968   7.881 -0.1402 -0.0851  0.2093
 1274SOL    HW1 8669   1.307   0.901   7.884 -0.3677 -0.2837  1.3858
 1274SOL    HW2 8670   1.227   0.986   7.788  0.3712 -1.2106 -0.0879
 1275SOL     OW 8671   9.590   0.381   7.505  0.6095 -0.0118 -0.2880
 1275SOL    HW1 8672   9.608   0.373   7.598  1.8788 -0.9025 -0.5967
 1275SOL    HW2 8673   9.570   0.474   7.492 -0.4547 -0.0482  1.0062
 1276SOL     OW 8674   0.244   0.672   8.682  0.5186  0.3589  0.4892
 1276SOL    HW1 8675   0.335   0.691   8.659  0.2830  0.7936 -0.0652
 1276SOL    HW2 8676   0.197   0.753   8.664 -0.5128 -0.7477 -2.0354
 1277SOL     OW 8677   9.818   2.491   8.543 -1.0442  0.0872 -0.3909
 1277SOL    HW1 8678   9.771   2.529   8.617 -0.6507  1.8883 -1.0477
 1277SOL    HW2 8679   9.783   2.536   8.467  0.9462  0.6589 -0.9919
 1278SOL     OW 8680   9.771   9.660   6.583 -0.0388  0.4105  0.3580
 1278SOL    HW1 8681   9.848   9.608   6.607  0.0518  0.6737  0.6222
 1278SOL    HW2 8682   9.716   9.598   6.534 -0.6645 -0.3983  2.0378
 1279SOL     OW 8683   0.928   1.400   8.524 -0.0569 -0.2235  0.5970
 1279SOL    HW1 8684   1.014   1.372   8.557 -1.8288 -2.2471  3.8684
 1279SOL    HW2 8685   0.900   1.467   8.586 -2.3110 -2.1324  1.7289
 1280SOL     OW 8686   1.615   2.674   9.917  0.3224  0.0083  0.4039
 1280SOL    HW1 8687   1.561   2.659   9.995 -1.7043  3.3672 -0.2371
 1280SOL    HW2 8688   1.575   2.621   9.849  0.0213 -0.2907  0.8090
 1281SOL     OW 8689   1.604   9.523   7.564 -0.0004 -0.3862  0.0001
 1281SOL    HW1 8690   1.644   9.552   7.482  0.2830  1.4273  0.7640
 1281SOL    HW2 8691   1.673   9.535   7.630 -0.0964 -2.1841  0.4586
 1282SOL     OW 8692   9.291   2.694   7.634  0.4741  0.2856 -0.3718
 1282SOL    HW1 8693   9.203   2.722   7.657 -0.7943 -1.0404 -3.3544
 1282SOL    HW2 8694   9.334   2.676   7.718 -1.4460  2.7935  1.1811
 1283SOL     OW 8695   3.126   0.176   7.959  0.7484 -1.0920  0.0623
 1283SOL    HW1 8696   3.089   0.123   8.029 -1.3089 -1.1663 -1.0485
 1283SOL    HW2 8697   3.069   0.253   7.955  2.1182 -0.0726 -0.1187
 1284SOL     OW 8698   2.390   0.697   7.883  0.3030 -0.1143  0.1671
 1284SOL    HW1 8699   2.352   0.641   7.950 -1.0479  1.0919  0.4098
 1284SOL    HW2 8700   2.316   0.743   7.844  1.3413  1.1360 -0.3799
 1285SOL     OW 8701   9.772   2.465   9.503  0.3273  0.6992  0.0639
 1285SOL    HW1 8702   9.737   2.379   9.526 -2.3997  1.7620  0.1130
 1285SOL    HW2 8703   9.867   2.454   9.504  0.0012 -2.6476 -1.3251
 1286SOL     OW 8704   1.248   0.633   6.562  0.3809 -0.1406 -0.4964
 1286SOL    HW1 8705   1.286   0.664   6.644 -1.7917  0.7666  0.1960
 1286SOL    HW2 8706   1.273   0.541   6.557 -0.1834 -0.4244  1.6073
 1287SOL     OW 8707   0.218   9.981   0.078 -0.4346  0.3613 -0.0909
 1287SOL    HW1 8708   0.141  10.029   0.109 -1.8416 -1.8671  0.0059
 1287SOL    HW2 8709   0.231   9.912   0.143  1.2255  0.2859 -0.4896
 1288SOL     OW 8710   2.233   0.737   7.119 -0.1856  0.1028  0.0734
 1288SOL    HW1 8711   2.138   0.741   7.110 -0.2418 -2.2264 -0.6944
 1288SOL    HW2 8712   2.253   0.643   7.121  2.1850  0.5518 -0.9491
 1289SOL     OW 8713   1.661   1.748   8.339  0.0080 -0.4435  0.2088
 1289SOL    HW1 8714   1.569   1.725   8.350 -0.2996 -0.0581 -1.4624
 1289SOL    HW2 8715   1.705   1.707   8.414 -1.4603 -0.9664  0.7979
 1290SOL     OW 8716   0.315   0.937   8.479  0.0027 -0.4546  0.3172
 1290SOL    HW1 8717   0.375   1.010   8.468 -0.7297  0.0797 -0.2616
 1290SOL    HW2 8718   0.263   0.959   8.556 -0.5224 -0.1411 -0.1225
 1291SOL     OW 8719   1.358   0.067   7.745  0.2932 -0.2072 -0.1128
 1291SOL    HW1 8720   1.424  -0.002   7.746  1.2070  0.6544 -0.2277
 1291SOL    HW2 8721   1.285   0.031   7.795  0.9723 -1.0411  0.2880
 1292SOL     OW 8722   1.288   0.966   6.812 -0.0042  0.3084  0.1465
 1292SOL    HW1 8723   1.317   0.875   6.809 -0.4627  0.1532  0.3722
 1292SOL    HW2 8724   1.296   0.996   6.721  0.9125  0.2892  0.2098
 1293SOL     OW 8725   1.124   1.602   7.372 -0.8183 -0.2388 -0.1205
 1293SOL    HW1 8726   1.183   1.655   7.318 -1.0023  0.3962  0.3074
 1293SOL    HW2 8727   1.042   1.600   7.322 -0.1342 -1.9792 -1.2207
 1294SOL     OW 8728   1.396   0.223   9.157  0.3149 -0.2871 -0.7660
 1294SOL    HW1 8729   1.447   0.153   9.117 -0.6531 -0.9180 -0.9043
 1294SOL    HW2 8730   1.426   0.227   9.247  0.4866 -0.7691 -0.8030
 1295SOL     OW 8731   2.031   2.333   7.839 -0.0532 -0.6639  0.0811
 1295SOL    HW1 8732   1.937   2.337   7.861 -1.0927 -0.1674 -4.0013
 1295SOL    HW2 8733   2.058   2.245   7.865 -1.6464 -0.8196  1.3046
 1296SOL     OW 8734   1.045   9.838   7.694 -0.2894  0.0291  0.5616
 1296SOL    HW1 8735   1.084   9.751   7.699  0.7510  0.3148 -2.0958
 1296SOL    HW2 8736   0.987   9.834   7.618 -0.1705  1.6874  0.3697
 1297SOL     OW 8737   9.108   1.034   7.341  0.3492  0.3752 -0.1554
 1297SOL    HW1 8738   9.125   1.125   7.365 -0.1038  0.1339  1.1052
 1297SOL    HW2 8739   9.013   1.032   7.326  0.4397  0.2300 -0.7083
 1298SOL     OW 8740   9.250   0.829   7.902 -0.0070  0.1406  0.1233
 1298SOL    HW1 8741   9.254   0.917   7.864 -0.6579  0.1743  0.1290
 1298SOL    HW2 8742   9.335   0.789   7.880 -0.3037  0.2239 -1.2014
 1299SOL     OW 8743   2.864   2.069   9.812  0.2865 -0.3976  0.4855
 1299SOL    HW1 8744   2.850   1.975   9.823 -0.5050 -0.5979 -1.9058
 1299SOL    HW2 8745   2.781   2.102   9.778  1.1684  0.8389 -0.5121
 1300SOL     OW 8746   9.459   2.581   6.920 -0.1736 -0.1079  0.0977
 1300SOL    HW1 8747   9.448   2.490   6.945  0.2259 -0.4374 -0.8871
 1300SOL    HW2 8748   9.538   2.582   6.866  1.0301  1.1727  1.8335
 1301SOL     OW 8749   9.157   9.588   9.475  0.4411 -0.0104 -0.3486
 1301SOL    HW1 8750   9.131   9.636   9.396 -0.9777 -0.0384  0.0942
 1301SOL    HW2 8751   9.086   9.604   9.537 -0.4054 -3.2140 -0.4224
 1302SOL     OW 8752   1.934   1.075   0.322  0.3287 -0.3671 -0.0293
 1302SOL    HW1 8753   1.933   1.138   0.250 -0.9739 -1.6696 -1.1876
 1302SOL    HW2 8754   2.009   1.019   0.303  2.1242  1.4027  1.5607
 1303SOL     OW 8755   9.795   9.433   7.099  0.2072  0.3172  0.0204
 1303SOL    HW1 8756   9.873   9.458   7.149 -0.5027 -1.4069  2.0685
 1303SOL    HW2 8757   9.826   9.365   7.040  0.5553  0.6824 -0.2248
 1304SOL     OW 8758   1.519   1.104   7.728  0.2038  0.1285  0.2285
 1304SOL    HW1 8759   1.558   1.109   7.815  0.6030  0.3127  0.0385
 1304SOL    HW2 8760   1.528   1.013   7.702  1.6051  0.4064 -0.3169
 1305SOL     OW 8761   1.647   0.222   6.804  0.4766 -0.3510  0.0326
 1305SOL    HW1 8762   1.630   0.207   6.897 -1.8659 -0.6739 -0.4122
 1305SOL    HW2 8763   1.633   0.137   6.762  1.4885 -0.2051 -0.6308
 1306SOL     OW 8764   0.205   1.237   9.420 -0.2044 -0.2565  0.2677
 1306SOL    HW1 8765   0.258   1.313   9.395 -1.7030  0.1915 -1.6389
 1306SOL    HW2 8766   0.252   1.162   9.382  0.0747 -0.0552  0.2157
 1307SOL     OW 8767   0.194   8.962   0.229 -0.5318  0.5368 -0.4234
 1307SOL    HW1 8768   0.273   9.015   0.221 -0.7454  0.5559 -2.7808
 1307SOL    HW2 8769   0.147   9.000   0.303  1.5250  0.6734  0.8624
 1308SOL     OW 8770   1.840   1.435   8.430  0.2653 -0.1021  0.1302
 1308SOL    HW1 8771   1.830   1.524   8.465 -0.4348 -0.2631  0.3496
 1308SOL    HW2 8772   1.807   1.441   8.341  1.0208  0.0514 -0.1462
 1309SOL     OW 8773   0.730   1.329   9.204  0.4709 -0.1354 -0.3509
 1309SOL    HW1 8774   0.821   1.336   9.176  0.8611 -0.5362  0.7875
 1309SOL    HW2 8775   0.683   1.394   9.152  1.7053  1.3404  0.3422
 1310SOL     OW 8776   0.846   0.231   9.514  0.3593  0.1979 -0.2971
 1310SOL    HW1 8777   0.874   0.248   9.424  1.8052  0.8784  0.2642
 1310SOL    HW2 8778   0.786   0.156   9.507 -0.7145  1.1760 -1.9911
 1311SOL     OW 8779   0.412   1.212   0.428  0.3137  0.0158  0.1153
 1311SOL    HW1 8780   0.375   1.257   0.352  1.0327  0.4162  0.0051
 1311SOL    HW2 8781   0.489   1.263   0.452  1.4939 -1.4820 -0.3650
 1312SOL     OW 8782   1.579   9.505   8.339 -0.0626 -0.1128  0.3184
 1312SOL    HW1 8783   1.527   9.506   8.419  0.3445 -1.2073  0.6132
 1312SOL    HW2 8784   1.670   9.506   8.370  0.0984  0.2970 -0.1563
 1313SOL     OW 8785   3.040   0.478   7.942 -0.4160  0.6430  0.4385
 1313SOL    HW1 8786   3.100   0.543   7.977  1.6100 -1.0976  0.3149
 1313SOL    HW2 8787   2.983   0.455   8.015  0.7746  0.4211  1.3099
 1314SOL     OW 8788   8.233   0.451   8.291 -0.3987  0.3479  0.3886
 1314SOL    HW1 8789   8.257   0.526   8.236 -0.3214 -0.2499 -0.4052
 1314SOL    HW2 8790   8.194   0.490   8.369  0.6671  1.2504  0.4874
 1315SOL     OW 8791   2.491   1.094   9.102  0.1144  0.5659 -0.3505
 1315SOL    HW1 8792   2.522   1.020   9.049 -2.5053 -1.6698  1.0687
 1315SOL    HW2 8793   2.569   1.146   9.119  2.0698 -1.9176 -1.3506
 1316SOL     OW 8794   0.843   1.043   9.401 -0.6406 -0.0081 -0.2314
 1316SOL    HW1 8795   0.888   0.959   9.390 -1.5889 -0.3935 -1.2633
 1316SOL    HW2 8796   0.779   1.045   9.330 -1.1321  1.2598  0.2409
 1317SOL     OW 8797   0.620   0.999   6.859  0.2505 -0.3330  0.0772
 1317SOL    HW1 8798   0.558   0.973   6.790 -0.4910  0.4562  0.4364
 1317SOL    HW2 8799   0.654   1.083   6.829  0.0631 -0.0765  0.5834
 1318SOL     OW 8800   9.790   1.757   9.871 -0.2519 -0.0781 -0.3064
 1318SOL    HW1 8801   9.856   1.703   9.828  0.1714  0.9419 -0.9768
 1318SOL    HW2 8802   9.717   1.698   9.888  0.3333 -0.9284 -0.7157
 1319SOL     OW 8803   1.404   0.684   9.219  0.0748  0.0584 -0.1030
 1319SOL    HW1 8804   1.492   0.648   9.210  0.2042  0.3899 -0.1553
 1319SOL    HW2 8805   1.347   0.614   9.186  0.3795  0.2135 -0.9921
 1320SOL     OW 8806   9.173   9.702   7.748  0.3622 -0.3117  0.3065
 1320SOL    HW1 8807   9.200   9.667   7.833  1.5027 -1.0974 -0.3559
 1320SOL    HW2 8808   9.237   9.771   7.729 -0.3041  0.3319  0.4125
 1321SOL     OW 8809   2.521   1.718   9.030 -0.1109  0.3748  0.6526
 1321SOL    HW1 8810   2.458   1.657   9.069  0.0326 -0.2409 -0.0742
 1321SOL    HW2 8811   2.583   1.736   9.101 -0.0008 -0.5377  0.7975
 1322SOL     OW 8812   9.286   9.714   9.945 -0.2522 -0.0650 -0.7328
 1322SOL    HW1 8813   9.202   9.692   9.985 -0.1551  1.2079  0.2266
 1322SOL    HW2 8814   9.278   9.684   9.854 -1.4670 -0.6085 -0.4579
 1323SOL     OW 8815   0.479   0.365   9.240 -0.0380 -0.9278 -0.4865
 1323SOL    HW1 8816   0.527   0.444   9.266 -0.9183 -0.4010 -0.4469
 1323SOL    HW2 8817   0.543   0.295   9.250  1.0855 -0.0898 -1.5507
 1324SOL     OW 8818   9.710   0.753   0.483 -0.0052 -0.0483  0.1638
 1324SOL    HW1 8819   9.793   0.721   0.446  0.2416 -0.2816  0.8947
 1324SOL    HW2 8820   9.687   0.687   0.548  0.7827  1.5146  2.0790
 1325SOL     OW 8821   9.856   0.653   7.338  0.5873  0.4862  0.2531
 1325SOL    HW1 8822   9.897   0.734   7.369 -1.3493  0.5024  2.9747
 1325SOL    HW2 8823   9.774   0.648   7.387  0.5102 -2.9498 -0.1414
 1326SOL     OW 8824   1.486   0.909   8.570 -1.0638  0.4927 -0.1321
 1326SOL    HW1 8825   1.484   0.835   8.631  1.3677  0.0504 -0.5274
 1326SOL    HW2 8826   1.429   0.882   8.498 -0.5807 -0.8048 -0.0414
 1327SOL     OW 8827   9.731   0.012   0.032 -0.2674  0.2651 -0.3172
 1327SOL    HW1 8828   9.646  -0.008  -0.006 -0.6577  0.0303  0.6831
 1327SOL    HW2 8829   9.771   0.073  -0.030 -0.6844 -0.5277 -1.3787
 1328SOL     OW 8830   2.670   1.250   9.243  0.1039  0.6122 -0.2706
 1328SOL    HW1 8831   2.753   1.225   9.283  0.5824  0.3551 -1.4212
 1328SOL    HW2 8832   2.661   1.343   9.263 -0.3505  0.1656  1.6464
 1329SOL     OW 8833   2.075   0.857   9.505  0.1625  0.3622 -0.1770
 1329SOL    HW1 8834   2.017   0.783   9.522 -2.7851  2.1347 -2.0688
 1329SOL    HW2 8835   2.047   0.923   9.569  2.1233  0.2307  0.8528
 1330SOL     OW 8836   0.704   9.132   9.349  0.4720  0.4741  0.6743
 1330SOL    HW1 8837   0.767   9.066   9.379  0.2175 -0.1149 -0.0615
 1330SOL    HW2 8838   0.619   9.091   9.361  0.2753  0.9263  0.8261
 1331SOL     OW 8839   0.383   0.659   7.484 -0.1056  0.4628  0.1065
 1331SOL    HW1 8840   0.303   0.620   7.449 -0.2957  0.0686  0.9623
 1331SOL    HW2 8841   0.400   0.735   7.428 -1.0425  0.5094 -0.1183
 1332SOL     OW 8842   0.857   1.873   8.577  0.0893  0.1682 -0.2589
 1332SOL    HW1 8843   0.804   1.905   8.650  2.3647 -1.1112  2.0326
 1332SOL    HW2 8844   0.926   1.940   8.568 -0.9333  0.9873 -2.1204
 1333SOL     OW 8845   1.382   9.081   6.731  0.0115 -0.2388 -0.1221
 1333SOL    HW1 8846   1.410   8.991   6.718 -0.5118 -0.1388 -2.0479
 1333SOL    HW2 8847   1.450   9.134   6.690 -0.9222  0.1477 -1.2068
 1334SOL     OW 8848   0.342   9.221   6.886 -0.5343 -0.8626  0.4910
 1334SOL    HW1 8849   0.410   9.172   6.840  0.1587 -0.2679  0.8749
 1334SOL    HW2 8850   0.372   9.312   6.885  0.0889 -0.9974  3.1215
 1335SOL     OW 8851   9.267   1.326   7.044 -0.0669 -0.1014 -0.5304
 1335SOL    HW1 8852   9.234   1.296   6.959  0.0789  0.8655 -0.9303
 1335SOL    HW2 8853   9.238   1.258   7.106  1.3325 -1.7325 -1.6064
 1336SOL     OW 8854   1.308   0.873   8.842  1.0006 -0.0133  0.0997
 1336SOL    HW1 8855   1.384   0.906   8.890  1.5879  1.2256 -1.6696
 1336SOL    HW2 8856   1.240   0.864   8.909  1.7373  1.9014  1.1413
 1337SOL     OW 8857   9.982   0.430   0.644 -0.1435  0.4693 -0.3101
 1337SOL    HW1 8858  10.063   0.466   0.680  0.5350 -1.3154  0.0119
 1337SOL    HW2 8859  10.008   0.390   0.561 -0.6098 -0.4816 -0.0092
 1338SOL     OW 8860   3.633   0.879   8.004 -0.4487 -0.2111  0.1490
 1338SOL    HW1 8861   3.725   0.859   7.988 -0.0772  1.8232 -0.4375
 1338SOL    HW2 8862   3.613   0.834   8.086  1.9302  1.7542  1.9086
 1339SOL     OW 8863   0.082   1.057   1.129 -0.1172 -0.1125  0.8420
 1339SOL    HW1 8864   0.145   1.002   1.082 -0.3975 -0.3119  0.6991
 1339SOL    HW2 8865   0.050   1.119   1.063 -0.4640 -0.3523  0.7862
 1340SOL     OW 8866   1.077   1.575   9.258 -0.2401 -0.1254  0.5522
 1340SOL    HW1 8867   1.108   1.515   9.325 -0.0459  0.0493  0.6171
 1340SOL    HW2 8868   1.015   1.523   9.206  0.9585 -0.7879 -0.2300
 1341SOL     OW 8869   1.911   1.851   9.206 -0.2902 -0.1469  0.0787
 1341SOL    HW1 8870   1.829   1.812   9.238 -1.4216  0.8727 -1.5508
 1341SOL    HW2 8871   1.949   1.784   9.149 -0.4046 -0.2676  0.1435
 1342SOL     OW 8872   1.507   1.061   9.328 -0.5049 -0.5549  0.2669
 1342SOL    HW1 8873   1.529   0.991   9.389 -1.8954 -2.4937 -1.3907
 1342SOL    HW2 8874   1.461   1.126   9.382  0.6637 -0.9537  1.7872
 1343SOL     OW 8875   0.507   0.724   8.504  0.2205  0.2932  0.4427
 1343SOL    HW1 8876   0.575   0.727   8.436  0.0539 -1.2639  0.1883
 1343SOL    HW2 8877   0.447   0.795   8.480  0.2710 -0.1087 -0.9521
 1344SOL     OW 8878   1.029   0.260   1.405 -0.6822 -0.2718 -0.2419
 1344SOL    HW1 8879   0.952   0.207   1.426 -1.7892  1.3359 -0.1780
 1344SOL    HW2 8880   0.995   0.331   1.352  0.5526  1.2502  0.9757
 1345SOL     OW 8881   1.752   2.888   9.804 -0.6023 -0.5952  0.2663
 1345SOL    HW1 8882   1.845   2.893   9.783 -0.4219  0.9444  1.3313
 1345SOL    HW2 8883   1.735   2.795   9.815  0.2980 -1.0692 -2.1009
 1346SOL     OW 8884   1.540   2.061   2.213  0.0271 -0.2740 -0.5391
 1346SOL    HW1 8885   1.491   2.039   2.292  0.0963  2.7074  0.3998
 1346SOL    HW2 8886   1.632   2.044   2.236  0.1335  1.4457  0.3619
 1347SOL     OW 8887   1.611   0.124   0.182  0.3976 -0.4048  0.2618
 1347SOL    HW1 8888   1.682   0.113   0.118  0.0985 -2.2595  0.2259
 1347SOL    HW2 8889   1.657   0.135   0.266  0.7417 -0.6045  0.1019
 1348SOL     OW 8890   0.781   0.296   0.246  0.3012  0.6285  0.2563
 1348SOL    HW1 8891   0.761   0.377   0.199 -0.5124 -0.4388 -1.2979
 1348SOL    HW2 8892   0.699   0.274   0.291  0.6197  0.8373  0.9422
 1349SOL     OW 8893   0.918   2.666   0.674  0.2626  0.5541 -0.0283
 1349SOL    HW1 8894   0.858   2.739   0.654  1.4395  1.9708  1.4806
 1349SOL    HW2 8895   0.869   2.611   0.735  0.7909  2.2165  1.9568
 1350SOL     OW 8896   9.754   1.092   0.182 -0.3495 -0.6644 -0.5225
 1350SOL    HW1 8897   9.759   1.000   0.158  1.2727 -0.9137  0.6681
 1350SOL    HW2 8898   9.733   1.091   0.276 -1.3525  0.1968 -0.7246
 1351SOL     OW 8899   0.142   9.067   8.208 -0.1962 -0.6448  0.4173
 1351SOL    HW1 8900   0.047   9.067   8.201 -0.1282  1.3429 -1.1233
 1351SOL    HW2 8901   0.172   9.038   8.121  0.6317 -3.9064  1.7073
 1352SOL     OW 8902   1.725   2.064   9.213  0.4583  0.2225 -0.3532
 1352SOL    HW1 8903   1.649   2.011   9.236 -1.0261  1.9499 -1.1995
 1352SOL    HW2 8904   1.794   2.034   9.273 -0.5941 -1.9987 -0.1999
 1353SOL     OW 8905   9.972   0.365   9.594  0.1732  0.0101 -0.0508
 1353SOL    HW1 8906   9.928   0.441   9.631  0.0141  0.3545 -0.9334
 1353SOL    HW2 8907  10.046   0.349   9.653  2.2091  2.9208 -1.6548
 1354SOL     OW 8908   0.273   0.382   9.475  0.5775 -0.1051  0.3386
 1354SOL    HW1 8909   0.304   0.340   9.556 -0.2275  0.0192  0.7186
 1354SOL    HW2 8910   0.272   0.312   9.410  3.1979  0.2308 -0.1128
 1355SOL     OW 8911   9.855   0.783   0.847  0.2293 -0.1791 -0.7562
 1355SOL    HW1 8912   9.939   0.736   0.850 -0.0808 -0.7789 -1.6398
 1355SOL    HW2 8913   9.844   0.816   0.937  1.5708  0.1892 -0.7043
 1356SOL     OW 8914   2.471   2.309   9.454  0.3834 -0.5197  1.0417
 1356SOL    HW1 8915   2.519   2.379   9.409 -1.5647  1.0741  1.3959
 1356SOL    HW2 8916   2.486   2.325   9.547 -1.1798  0.2515  1.1697
 1357SOL     OW 8917   1.675   1.185   9.142 -0.5172 -0.5179 -0.0743
 1357SOL    HW1 8918   1.613   1.131   9.192  0.3918  0.3039  1.9912
 1357SOL    HW2 8919   1.761   1.164   9.179  0.1691  0.1548 -1.2617
 1358SOL     OW 8920   0.299   2.301   8.518 -0.3302  0.4658  0.1877
 1358SOL    HW1 8921   0.214   2.300   8.562  0.0985 -1.5967  1.0201
 1358SOL    HW2 8922   0.325   2.393   8.519 -1.5321  0.8174  1.9264
 1359SOL     OW 8923   1.860   9.152   9.550  0.3588  0.3507 -0.7430
 1359SOL    HW1 8924   1.908   9.175   9.470  0.5193  0.5376 -0.5927
 1359SOL    HW2 8925   1.922   9.166   9.621  0.4170 -0.4345 -0.6382
 1360SOL     OW 8926   2.596   9.061   0.437  0.6089  0.2783  0.5458
 1360SOL    HW1 8927   2.646   8.980   0.446 -0.3246 -0.3838 -0.1454
 1360SOL    HW2 8928   2.541   9.064   0.515  1.7980  1.0757  1.3766
 1361SOL     OW 8929   9.333   8.446   9.071  0.9195  0.4437 -0.1077
 1361SOL    HW1 8930   9.338   8.427   9.165  0.9182 -0.1813 -0.2329
 1361SOL    HW2 8931   9.408   8.502   9.053  0.8709  0.6342  0.2828
 1362SOL     OW 8932   0.812   1.625   8.698 -0.3810 -0.0444 -0.1952
 1362SOL    HW1 8933   0.750   1.664   8.636 -0.3891 -1.7413 -1.2617
 1362SOL    HW2 8934   0.881   1.691   8.706 -2.0256  1.6651  0.6354
 1363SOL     OW 8935   1.739   1.952   1.297  0.7061  0.2836 -1.1066
 1363SOL    HW1 8936   1.669   1.955   1.232 -1.9219  0.5371  1.6017
 1363SOL    HW2 8937   1.731   1.865   1.337  1.6085  0.4984 -0.4348
 1364SOL     OW 8938   1.217   1.315   0.489 -0.2385  0.0507  0.1510
 1364SOL    HW1 8939   1.159   1.336   0.563 -0.5466 -0.1687 -0.0237
 1364SOL    HW2 8940   1.223   1.396   0.440 -0.1773  0.1491  0.3199
 1365SOL     OW 8941   1.554   0.506   8.760 -0.1973 -0.3049  0.0274
 1365SOL    HW1 8942   1.640   0.466   8.751 -0.3323 -0.5602 -0.1287
 1365SOL    HW2 8943   1.571   0.600   8.761  0.2273 -0.3862  1.5556
 1366SOL     OW 8944   0.798   2.464   0.451 -0.1782  0.1125 -0.1175
 1366SOL    HW1 8945   0.713   2.422   0.436 -0.9190  0.6345  2.4349
 1366SOL    HW2 8946   0.776   2.556   0.467  0.9023  0.2819  0.3786
 1367SOL     OW 8947   1.499   1.960   8.844 -0.5130 -0.0688 -0.1122
 1367SOL    HW1 8948   1.441   1.886   8.827  1.2649 -1.2199 -1.2340
 1367SOL    HW2 8949   1.560   1.929   8.910  0.1706  0.4342 -0.5010
 1368SOL     OW 8950   0.677   0.706   9.342 -0.2398  0.2821  0.1962
 1368SOL    HW1 8951   0.749   0.722   9.403  0.5933 -1.2451 -0.3333
 1368SOL    HW2 8952   0.617   0.649   9.391 -0.9340  1.3056  0.5321
 1369SOL     OW 8953   0.358   1.727   8.664  0.8256 -0.2408  0.5063
 1369SOL    HW1 8954   0.383   1.819   8.667 -0.8455  0.2222  1.2105
 1369SOL    HW2 8955   0.321   1.715   8.577 -0.6363  0.2463  1.0373
 1370SOL     OW 8956   9.977   1.576   9.738 -0.2418  0.2587  0.4273
 1370SOL    HW1 8957   9.943   1.545   9.654  1.1636 -1.5986  0.5056
 1370SOL    HW2 8958  10.068   1.601   9.719  0.0004  0.0850  1.3356
 1371SOL     OW 8959   9.680   0.630   8.788  0.3561 -1.0525  0.5346
 1371SOL    HW1 8960   9.648   0.605   8.874 -0.1979  0.5069  0.7870
 1371SOL    HW2 8961   9.775   0.623   8.794  0.5555  2.4724  2.3813
 1372SOL     OW 8962   0.302   1.421   0.755  0.1875 -0.7330 -0.1925
 1372SOL    HW1 8963   0.229   1.436   0.815  0.1241  0.2644 -0.5220
 1372SOL    HW2 8964   0.367   1.488   0.777  0.2686 -0.5095 -1.0673
 1373SOL     OW 8965   0.821   1.120   1.860 -0.1968 -0.0570 -0.0966
 1373SOL    HW1 8966   0.895   1.147   1.806 -1.1705  2.2623 -0.2904
 1373SOL    HW2 8967   0.812   1.026   1.843  1.0679  0.1546 -2.0262
 1374SOL     OW 8968   0.780   1.197   0.612 -0.3356 -0.2135  0.1776
 1374SOL    HW1 8969   0.689   1.201   0.641 -1.2802  0.1802 -2.6705
 1374SOL    HW2 8970   0.814   1.285   0.628 -0.2148 -0.5453  1.8756
 1375SOL     OW 8971   9.789   0.536   9.718 -0.3069  0.5488 -0.0893
 1375SOL    HW1 8972   9.784   0.600   9.647 -0.3750  1.0901  0.4092
 1375SOL    HW2 8973   9.844   0.577   9.784 -0.7949  0.3140  0.4648
 1376SOL     OW 8974   1.113   1.767   9.598 -0.7782 -0.0835  0.1219
 1376SOL    HW1 8975   1.088   1.677   9.621  0.4274 -0.6980 -0.8692
 1376SOL    HW2 8976   1.106   1.770   9.503 -0.2733  0.7005  0.1061
 1377SOL     OW 8977   9.762   1.849   8.965  0.0088  0.4992 -0.4578
 1377SOL    HW1 8978   9.793   1.869   9.053 -0.5564  2.8761 -0.7442
 1377SOL    HW2 8979   9.680   1.899   8.957 -0.2399 -0.1372 -2.1164
 1378SOL     OW 8980   0.266   2.385   8.805 -0.1127  0.5247  0.1704
 1378SOL    HW1 8981   0.257   2.425   8.719  0.9784  0.7575  0.1493
 1378SOL    HW2 8982   0.330   2.440   8.850  0.0773 -0.1764  0.7686
 1379SOL     OW 8983   2.387   2.259   0.140 -0.3004 -0.1665  0.3066
 1379SOL    HW1 8984   2.480   2.243   0.122 -0.3941 -0.7359  0.3191
 1379SOL    HW2 8985   2.349   2.172   0.145 -1.0314  0.0910 -0.6837
 1380SOL     OW 8986   1.950   1.275   9.237 -0.3507  0.1466  0.4355
 1380SOL    HW1 8987   1.993   1.221   9.170 -2.3884  0.5961 -1.2540
 1380SOL    HW2 8988   1.953   1.220   9.316  1.6258 -0.5913 -0.1101
 1381SOL     OW 8989   1.593   1.688   9.772 -0.4362  0.4842  0.2164
 1381SOL    HW1 8990   1.513   1.704   9.821  0.4579  1.0917  1.4965
 1381SOL    HW2 8991   1.664   1.702   9.835  0.7479  1.5763 -1.2965
 1382SOL     OW 8992   0.366   2.006   8.627  0.2385 -0.1272  0.0452
 1382SOL    HW1 8993   0.303   2.064   8.583 -1.2984 -0.7060  1.4302
 1382SOL    HW2 8994   0.415   2.064   8.685 -0.4674 -0.0006  0.5225
 1383SOL     OW 8995   1.768   9.157   9.859 -0.2100 -0.2084 -0.3272
 1383SOL    HW1 8996   1.743   9.075   9.902 -0.3918  1.0457  2.0717
 1383SOL    HW2 8997   1.686   9.204   9.847  0.1176  0.5036  0.2141
 1384SOL     OW 8998   3.342   2.470   9.655 -0.3197  0.1524  0.2046
 1384SOL    HW1 8999   3.327   2.406   9.585 -1.7572  1.4572 -0.7040
 1384SOL    HW2 9000   3.275   2.450   9.720 -0.8094  0.7427 -0.1079
 1385SOL     OW 9001   2.396   2.457   0.570  0.4044  0.7925 -0.3714
 1385SOL    HW1 9002   2.346   2.383   0.536  1.4043 -1.0004  1.9121
 1385SOL    HW2 9003   2.345   2.534   0.546 -1.9283 -0.8008 -0.6722
 1386SOL     OW 9004   9.152   1.118   9.356 -0.0409 -0.1248  0.1356
 1386SOL    HW1 9005   9.059   1.102   9.339  0.1079  0.5429 -1.4452
 1386SOL    HW2 9006   9.158   1.213   9.367  0.5320 -0.0879 -0.4082
 1387SOL     OW 9007   9.284   9.826   8.542  0.3152 -0.1850 -0.0872
 1387SOL    HW1 9008   9.345   9.754   8.561 -0.9040 -0.9236  1.1108
 1387SOL    HW2 9009   9.207   9.782   8.506  0.4080  0.7349 -1.4328
 1388SOL     OW 9010   1.074   0.261   7.967  0.1563 -0.6106  0.0114
 1388SOL    HW1 9011   1.104   0.178   7.930  0.1741  0.3567 -2.2101
 1388SOL    HW2 9012   1.017   0.299   7.899 -1.5602  0.2266  1.8472
 1389SOL     OW 9013   1.643   2.664   8.230  0.2095  0.1326  0.6666
 1389SOL    HW1 9014   1.575   2.671   8.296 -0.3576 -0.1009  0.1160
 1389SOL    HW2 9015   1.717   2.625   8.276  0.1671  0.9204  1.4082
 1390SOL     OW 9016   9.673   0.319   0.904  0.0297  0.0876 -1.1359
 1390SOL    HW1 9017   9.757   0.274   0.906  0.6894  1.3005  1.2548
 1390SOL    HW2 9018   9.689   0.402   0.949 -1.7861  1.5520 -3.1095
 1391SOL     OW 9019   1.419   0.276   8.846 -0.2061  0.0935 -0.8365
 1391SOL    HW1 9020   1.456   0.364   8.840  1.6296 -0.4898  1.2874
 1391SOL    HW2 9021   1.392   0.256   8.757  0.0328  2.5128 -1.4932
 1392SOL     OW 9022   1.768   1.967   9.793  0.2825 -0.2218 -0.6177
 1392SOL    HW1 9023   1.685   1.935   9.829  0.8357 -0.3348  0.5793
 1392SOL    HW2 9024   1.777   2.055   9.828  1.7785 -1.0456  1.1514
 1393SOL     OW 9025   8.556   1.078   0.058 -0.3929 -0.2481 -0.3881
 1393SOL    HW1 9026   8.490   1.022   0.097 -0.1573  0.3465  0.9313
 1393SOL    HW2 9027   8.508   1.154   0.026 -0.6310 -0.9047 -1.5698
 1394SOL     OW 9028   1.816   1.459   9.660  0.3987  0.0773 -0.4141
 1394SOL    HW1 9029   1.751   1.460   9.730  2.4079 -1.1733  1.4973
 1394SOL    HW2 9030   1.830   1.551   9.639  2.6084  0.7716  3.5581
 1395SOL     OW 9031   0.329   9.777   9.016  0.0797 -0.0782  0.9580
 1395SOL    HW1 9032   0.393   9.841   8.985  1.0798 -0.7311  1.6486
 1395SOL    HW2 9033   0.381   9.710   9.060 -0.8798 -1.7606 -0.4071
 1396SOL     OW 9034   9.668   9.718   0.039 -1.0492 -0.6101  0.0351
 1396SOL    HW1 9035   9.705   9.804   0.060 -1.8616  0.0310 -1.0587
 1396SOL    HW2 9036   9.724   9.685  -0.031 -1.2771 -0.5645 -0.1701
 1397SOL     OW 9037   2.176   1.749   9.308 -0.3081  0.3495 -0.5061
 1397SOL    HW1 9038   2.100   1.796   9.272 -0.1235  0.1850 -1.1187
 1397SOL    HW2 9039   2.176   1.665   9.263  0.6001  0.5896 -0.9649
 1398SOL     OW 9040   0.157   1.473   0.061 -0.5404  0.6011 -0.1710
 1398SOL    HW1 9041   0.206   1.519  -0.007 -0.1463  0.8676  0.2863
 1398SOL    HW2 9042   0.092   1.536   0.091  1.6424  1.8345  2.2487
 1399SOL     OW 9043   1.048   1.597   1.302  0.6571 -0.1461 -0.5822
 1399SOL    HW1 9044   1.023   1.507   1.324  0.9303  0.0963  0.7804
 1399SOL    HW2 9045   1.080   1.592   1.212  0.7810 -1.4341 -0.4798
 1400SOL     OW 9046   1.124   3.049   0.390 -0.4435  0.1758  0.3762
 1400SOL    HW1 9047   1.106   2.994   0.313 -1.0048  0.2971  0.4179
 1400SOL    HW2 9048   1.045   3.041   0.443 -0.4162  0.8226  0.5077
 1401SOL     OW 9049   0.635   3.149   0.252  0.4024  0.0242  0.1409
 1401SOL    HW1 9050   0.706   3.173   0.312 -0.3720  0.7940  0.7527
 1401SOL    HW2 9051   0.602   3.066   0.286 -0.6289  0.9031  1.3244
 1402SOL     OW 9052   2.452   1.321   1.329 -0.6785 -0.0860 -0.0696
 1402SOL    HW1 9053   2.440   1.227   1.320  0.0180 -0.5357  3.2281
 1402SOL    HW2 9054   2.533   1.331   1.380 -0.6586  2.3035 -0.4819
 1403SOL     OW 9055   0.002   3.107   9.353  0.8068  0.1220 -0.3180
 1403SOL    HW1 9056   0.051   3.172   9.402  0.5862 -1.9710  2.7774
 1403SOL    HW2 9057  -0.077   3.092   9.405  0.4204 -1.9432 -1.4504
 1404SOL     OW 9058   0.959   1.870   0.496 -0.2732  0.0042  0.2958
 1404SOL    HW1 9059   0.865   1.852   0.497 -0.3878  0.6285  0.9904
 1404SOL    HW2 9060   0.999   1.783   0.496 -0.8495 -0.2828  2.1536
 1405SOL     OW 9061   1.091   2.460   2.058 -0.1561  0.0308  0.0660
 1405SOL    HW1 9062   1.172   2.480   2.104 -1.3303  0.3054  2.1057
 1405SOL    HW2 9063   1.023   2.471   2.125 -1.8975  0.1497 -1.6901
 1406SOL     OW 9064   0.536   2.664   1.973  0.5999  0.4112 -0.8191
 1406SOL    HW1 9065   0.561   2.757   1.976 -0.7515  0.7270  1.8876
 1406SOL    HW2 9066   0.453   2.664   1.925  0.2974  0.6633 -0.2939
 1407SOL     OW 9067   2.257   2.762   1.429  0.4119 -0.1285 -0.6270
 1407SOL    HW1 9068   2.257   2.691   1.492  1.3571  0.4281  0.0208
 1407SOL    HW2 9069   2.212   2.727   1.352  0.1294 -1.1345 -0.0023
 1408SOL     OW 9070   9.819   0.118   0.500  0.2072 -0.5824  0.0171
 1408SOL    HW1 9071   9.825   0.193   0.441  0.2400 -1.1406 -0.7060
 1408SOL    HW2 9072   9.909   0.102   0.529  0.3247 -0.8549 -0.4897
 1409SOL     OW 9073   1.234   1.675   1.773 -0.0926 -0.2827  0.0335
 1409SOL    HW1 9074   1.266   1.612   1.838 -1.7108  0.1687  1.3150
 1409SOL    HW2 9075   1.181   1.623   1.713 -1.5079 -0.1818  1.1465
 1410SOL     OW 9076   1.716   2.968   0.325 -0.1767 -0.1959  0.2566
 1410SOL    HW1 9077   1.688   3.004   0.409 -0.9587 -0.8018  0.2579
 1410SOL    HW2 9078   1.712   3.043   0.265 -1.4951 -0.1897  0.3293
 1411SOL     OW 9079   2.524   0.879   0.778 -0.4834 -0.1506  0.7759
 1411SOL    HW1 9080   2.583   0.899   0.850  1.2844  1.0051 -0.9308
 1411SOL    HW2 9081   2.437   0.901   0.811  0.3314  0.6470  2.4504
 1412SOL     OW 9082   1.013   3.306   9.357 -0.5705  0.1657 -0.5642
 1412SOL    HW1 9083   0.959   3.265   9.289  1.2114  1.8922 -3.1395
 1412SOL    HW2 9084   1.096   3.257   9.354 -0.2389  0.6989 -0.1008
 1413SOL     OW 9085   0.463   1.882   1.344  0.0450  0.0923  0.0474
 1413SOL    HW1 9086   0.534   1.919   1.291 -1.8363  1.6403 -1.4672
 1413SOL    HW2 9087   0.447   1.795   1.307  0.5429  0.0971 -0.1811
 1414SOL     OW 9088   0.600   5.301   2.919 -0.2115  0.0259  0.5796
 1414SOL    HW1 9089   0.541   5.372   2.945  1.1557  0.8636  1.4555
 1414SOL    HW2 9090   0.585   5.233   2.985  0.5221  0.6385  1.3808
 1415SOL     OW 9091   0.553   2.347   0.461  0.1055 -0.6694 -0.1950
 1415SOL    HW1 9092   0.558   2.288   0.536  0.9561 -0.5633 -0.1675
 1415SOL    HW2 9093   0.550   2.288   0.385  2.3682 -0.7638 -0.2556
 1416SOL     OW 9094   0.591   0.189   2.300 -0.4790  0.1881 -0.2557
 1416SOL    HW1 9095   0.667   0.146   2.259  0.7891 -0.1985  2.3834
 1416SOL    HW2 9096   0.521   0.124   2.293  0.5212 -1.0227  0.7449
 1417SOL     OW 9097   0.744   2.117   9.448  0.0860 -0.6333  0.6625
 1417SOL    HW1 9098   0.655   2.115   9.481  0.1272  1.4236  0.9752
 1417SOL    HW2 9099   0.786   2.187   9.497  1.5913 -0.9142 -0.1877
 1418SOL     OW 9100   0.597   3.568   0.079 -0.1016  0.6768  0.0489
 1418SOL    HW1 9101   0.666   3.519   0.034 -0.7878  1.1038 -1.4938
 1418SOL    HW2 9102   0.631   3.657   0.086 -0.1608  0.7021  0.0135
 1419SOL     OW 9103   9.915   2.159   8.223 -0.8173  0.0592 -0.8682
 1419SOL    HW1 9104   9.918   2.105   8.144 -0.2367 -0.1172 -0.7262
 1419SOL    HW2 9105   9.980   2.228   8.208 -0.1375 -0.4298 -0.2157
 1420SOL     OW 9106   2.502   3.064   0.756  0.1897 -0.7387 -0.4466
 1420SOL    HW1 9107   2.407   3.073   0.743  0.5726  2.4638 -1.5258
 1420SOL    HW2 9108   2.539   3.079   0.669  1.7463 -0.8204  0.1918
 1421SOL     OW 9109   0.590   2.179   1.144 -0.4352  0.0166 -0.3084
 1421SOL    HW1 9110   0.661   2.243   1.146  0.1848 -0.5522 -2.5203
 1421SOL    HW2 9111   0.632   2.095   1.163 -0.7739 -0.0952 -0.0548
 1422SOL     OW 9112   9.677   3.683   0.788 -0.2129  0.4489 -0.0337
 1422SOL    HW1 9113   9.717   3.754   0.738 -0.8179  0.3737 -0.6451
 1422SOL    HW2 9114   9.636   3.726   0.863  1.4138  0.4655  0.8537
 1423SOL     OW 9115   0.972   3.452   9.788 -0.2371 -0.0099  0.4036
 1423SOL    HW1 9116   0.933   3.374   9.827  0.8102 -1.0993 -0.7085
 1423SOL    HW2 9117   0.898   3.499   9.749 -0.7319 -0.9455  0.2137
 1424SOL     OW 9118   9.588   9.173   9.974  0.0840 -0.0868 -0.2926
 1424SOL    HW1 9119   9.625   9.088   9.950  1.0687 -0.1855  1.5211
 1424SOL    HW2 9120   9.650   9.209  10.037 -2.2011  0.3699  1.7558
 1425SOL     OW 9121   9.191   2.851   1.081  0.4272 -0.0348 -0.2665
 1425SOL    HW1 9122   9.173   2.822   1.171  0.5977  2.0824  0.4663
 1425SOL    HW2 9123   9.275   2.810   1.059  1.2348  0.7832  1.1845
 1426SOL     OW 9124   1.325   2.871   9.603  0.4877  0.4977 -0.1784
 1426SOL    HW1 9125   1.271   2.907   9.532 -0.6859 -1.4550 -0.3238
 1426SOL    HW2 9126   1.348   2.783   9.572  3.3017  1.0923  0.1402
 1427SOL     OW 9127   0.855   3.113   1.554  0.0943 -0.4276  0.0936
 1427SOL    HW1 9128   0.776   3.088   1.506 -1.6386  2.4086  1.3097
 1427SOL    HW2 9129   0.867   3.042   1.617 -1.2267 -1.1408 -0.4273
 1428SOL     OW 9130   0.144   0.618   2.220 -0.0117 -0.2633 -0.4497
 1428SOL    HW1 9131   0.106   0.539   2.259  0.3949 -0.1479  0.1980
 1428SOL    HW2 9132   0.069   0.670   2.192 -0.3521  0.0312  0.9509
 1429SOL     OW 9133   3.166   3.310   2.116 -0.2518 -0.2126 -0.0730
 1429SOL    HW1 9134   3.216   3.266   2.185  2.7554  1.2015 -1.2335
 1429SOL    HW2 9135   3.150   3.242   2.051  0.6965 -0.5794  0.0590
 1430SOL     OW 9136   1.286   2.001   9.609 -0.1328 -0.6502  0.2208
 1430SOL    HW1 9137   1.272   1.907   9.621 -0.0390 -0.9085 -1.5560
 1430SOL    HW2 9138   1.217   2.028   9.549  1.3102 -0.0945 -1.2387
 1431SOL     OW 9139   1.412   3.527   1.599  0.2537 -0.2911 -0.0916
 1431SOL    HW1 9140   1.483   3.479   1.641  1.6095  0.7951 -1.0896
 1431SOL    HW2 9141   1.445   3.617   1.591 -1.8037  0.5862  0.7604
 1432SOL     OW 9142   0.132   4.450   2.447  0.6875 -0.1933  0.1814
 1432SOL    HW1 9143   0.215   4.405   2.436  0.2176 -1.1314  0.4383
 1432SOL    HW2 9144   0.093   4.411   2.526  0.3577  0.7803  0.5169
 1433SOL     OW 9145   1.543   1.237   9.912  0.2749  0.0742  0.4953
 1433SOL    HW1 9146   1.588   1.321   9.919  1.3333 -0.4961  0.6818
 1433SOL    HW2 9147   1.580   1.184   9.982  0.1700 -0.7942 -0.0944
 1434SOL     OW 9148   2.057   1.762   9.559  0.3647  0.0642 -0.1260
 1434SOL    HW1 9149   2.091   1.705   9.628 -1.4578 -1.1672 -0.1792
 1434SOL    HW2 9150   2.112   1.744   9.483  0.5015 -0.8330  0.1763
 1435SOL     OW 9151   1.142   2.617   9.347  0.7667  0.9968 -0.0463
 1435SOL    HW1 9152   1.095   2.679   9.402 -0.6345 -0.1094  0.0505
 1435SOL    HW2 9153   1.130   2.650   9.258 -1.4682 -0.0135 -0.1753
 1436SOL     OW 9154   0.371   3.126   0.514  0.4864 -0.0978 -0.3797
 1436SOL    HW1 9155   0.381   3.108   0.420 -0.8812  0.3210 -0.6057
 1436SOL    HW2 9156   0.443   3.077   0.555 -0.3113 -2.1982 -1.4207
 1437SOL     OW 9157   1.444   1.793   0.162 -0.1186  0.4694 -0.2750
 1437SOL    HW1 9158   1.501   1.807   0.237  0.7537  0.7223 -0.9890
 1437SOL    HW2 9159   1.356   1.814   0.194  0.0387 -0.9640  1.1290
 1438SOL     OW 9160   2.264   1.145   1.091 -0.2817  0.2598  0.0404
 1438SOL    HW1 9161   2.338   1.093   1.125  0.3065  1.0204 -0.0652
 1438SOL    HW2 9162   2.233   1.195   1.166  0.4022  1.2182 -0.3132
 1439SOL     OW 9163   0.194   5.604   0.067  0.0328  0.4926  0.0724
 1439SOL    HW1 9164   0.123   5.561   0.021  0.2183  1.0779 -0.7692
 1439SOL    HW2 9165   0.258   5.534   0.083  0.2194  0.3913 -1.0588
 1440SOL     OW 9166   0.296   4.097   2.190 -0.8853 -0.0032 -0.9039
 1440SOL    HW1 9167   0.339   4.163   2.243 -1.4885  0.0951 -0.5313
 1440SOL    HW2 9168   0.248   4.147   2.123 -2.0297 -0.0220 -0.1041
 1441SOL     OW 9169   1.753   1.410   9.943 -0.1478 -0.3613  0.4384
 1441SOL    HW1 9170   1.829   1.355   9.966  1.4221  1.6743  0.2418
 1441SOL    HW2 9171   1.759   1.485  10.002 -1.9178 -0.0694  0.2769
 1442SOL     OW 9172   0.111   3.506   0.642 -0.2749 -0.6317  0.0659
 1442SOL    HW1 9173   0.099   3.580   0.701 -0.4248 -2.3919  2.2795
 1442SOL    HW2 9174   0.184   3.533   0.585  1.2869  0.2459  2.4308
 1443SOL     OW 9175   0.054   2.412   0.030 -0.4426 -0.0061 -0.7053
 1443SOL    HW1 9176   0.032   2.484  -0.030  0.9786  0.4637 -0.7009
 1443SOL    HW2 9177   0.148   2.424   0.046 -0.0012 -2.3897 -1.3928
 1444SOL     OW 9178   9.420   3.783   0.308 -0.1837 -0.2845  0.3832
 1444SOL    HW1 9179   9.337   3.746   0.339  0.3300 -3.0422 -1.3740
 1444SOL    HW2 9180   9.479   3.708   0.302  1.6941  1.2454 -0.7761
 1445SOL     OW 9181   8.724   2.889   0.996  0.2495  0.0741  0.2076
 1445SOL    HW1 9182   8.693   2.956   1.057  0.8407  1.7262 -1.2787
 1445SOL    HW2 9183   8.803   2.926   0.958  0.4896 -1.4049 -0.7577
 1446SOL     OW 9184   0.562   3.503   0.456  0.3448  0.0568  0.0225
 1446SOL    HW1 9185   0.629   3.571   0.456  1.2098 -0.7816 -0.7734
 1446SOL    HW2 9186   0.611   3.421   0.450 -0.8119 -0.4984 -2.3921
 1447SOL     OW 9187   9.999   2.510   0.445  0.0618 -0.2883 -0.0771
 1447SOL    HW1 9188  10.060   2.544   0.511  1.8034 -1.9284 -0.7833
 1447SOL    HW2 9189   9.917   2.497   0.492  0.1095  2.3075  0.8121
 1448SOL     OW 9190   0.643   2.426   1.434 -0.3872 -0.0109  0.3112
 1448SOL    HW1 9191   0.734   2.454   1.441  0.0103 -1.3132  0.5083
 1448SOL    HW2 9192   0.627   2.420   1.339 -0.3504  0.4640  0.2738
 1449SOL     OW 9193   1.694   0.515   2.205  0.1855 -0.0196 -0.4809
 1449SOL    HW1 9194   1.611   0.563   2.203 -0.7046 -1.4282  1.6223
 1449SOL    HW2 9195   1.738   0.541   2.123 -0.9464  3.1115 -0.1731
 1450SOL     OW 9196   0.042   2.810   1.181  0.1151 -0.0511  0.1138
 1450SOL    HW1 9197   0.109   2.869   1.147  1.1480 -1.4744 -0.4049
 1450SOL    HW2 9198   0.088   2.727   1.193 -1.4981 -0.9844  0.0146
 1451SOL     OW 9199   0.461   4.663   9.692  0.3645 -0.0074 -0.0815
 1451SOL    HW1 9200   0.526   4.725   9.659 -0.3342  0.4128 -0.6535
 1451SOL    HW2 9201   0.395   4.717   9.735 -0.4075 -0.3267 -0.8512
 1452SOL     OW 9202   1.531   1.210   1.922 -0.0389  0.0552  0.0931
 1452SOL    HW1 9203   1.572   1.158   1.991 -0.7422 -0.0417  0.4398
 1452SOL    HW2 9204   1.526   1.150   1.848  0.5877  0.1159 -0.0021
 1453SOL     OW 9205   0.688   1.985   8.763  0.7596 -0.1392 -0.1795
 1453SOL    HW1 9206   0.633   2.063   8.756  2.4914  1.0560 -1.0313
 1453SOL    HW2 9207   0.679   1.957   8.854 -3.1107 -1.4087 -0.8768
 1454SOL     OW 9208   0.373   0.780   0.707  0.0144  0.1512  0.5246
 1454SOL    HW1 9209   0.377   0.874   0.689  1.4630 -0.0844 -0.5429
 1454SOL    HW2 9210   0.305   0.747   0.648  0.6503  0.2983 -0.3120
 1455SOL     OW 9211   8.114   3.347   2.704  0.4199 -0.6059 -0.5584
 1455SOL    HW1 9212   8.198   3.387   2.727  0.6508 -1.2181 -0.3155
 1455SOL    HW2 9213   8.055   3.371   2.775  0.6539 -0.9861 -0.2285
 1456SOL     OW 9214   1.117   1.082   2.029 -0.3536  0.2207  0.1324
 1456SOL    HW1 9215   1.052   1.057   1.963  0.8298  1.3287 -1.4739
 1456SOL    HW2 9216   1.199   1.047   1.996 -0.2237 -1.9893  2.6168
 1457SOL     OW 9217   9.620   4.118   9.549  0.1711 -0.2790 -0.4999
 1457SOL    HW1 9218   9.634   4.092   9.640  0.8785  0.7468 -0.3043
 1457SOL    HW2 9219   9.671   4.055   9.497  0.4961 -0.3165 -0.1338
 1458SOL     OW 9220   0.605   2.523   1.153 -0.0660 -0.0227  0.4377
 1458SOL    HW1 9221   0.612   2.595   1.091 -1.9933 -0.7021 -0.6164
 1458SOL    HW2 9222   0.682   2.468   1.135  0.2176  0.6018 -0.2671
 1459SOL     OW 9223   2.001   2.303   0.990 -0.4213  0.3889 -0.3234
 1459SOL    HW1 9224   2.007   2.331   1.081 -1.0698 -0.7953  0.0960
 1459SOL    HW2 9225   1.908   2.286   0.976 -0.0651 -1.3936 -0.6020
 1460SOL     OW 9226   1.838   2.713   0.240  0.0553  0.3130  0.6618
 1460SOL    HW1 9227   1.768   2.775   0.262 -2.1666 -1.7431 -0.2824
 1460SOL    HW2 9228   1.905   2.728   0.306 -1.2367  2.4212  1.5720
 1461SOL     OW 9229   1.018   2.943   1.355 -0.2816  0.4896 -0.2861
 1461SOL    HW1 9230   0.981   3.031   1.352 -1.7495 -0.0082  2.1996
 1461SOL    HW2 9231   0.952   2.887   1.314 -0.9288  0.0611  1.3031
 1462SOL     OW 9232   1.938   3.280   0.021  0.5892 -0.1974  0.2225
 1462SOL    HW1 9233   1.903   3.291   0.110  0.4872  0.5632  0.0915
 1462SOL    HW2 9234   1.864   3.302  -0.036  0.4398 -1.4057 -0.0458
 1463SOL     OW 9235   0.253   2.715   0.002  0.0687  0.1813  0.1108
 1463SOL    HW1 9236   0.183   2.710  -0.064  0.1420 -1.1250  0.1221
 1463SOL    HW2 9237   0.211   2.756   0.077 -0.2896  0.7630 -0.3962
 1464SOL     OW 9238   0.845   2.289   2.026  0.0786 -0.2118  0.4927
 1464SOL    HW1 9239   0.876   2.305   2.115  3.2642  0.9089 -0.7478
 1464SOL    HW2 9240   0.824   2.376   1.991 -1.1433 -0.6425  0.1357
 1465SOL     OW 9241   9.899   2.414   1.139 -0.2907 -0.1534  0.0169
 1465SOL    HW1 9242   9.977   2.410   1.196 -1.2032 -0.6875  1.2567
 1465SOL    HW2 9243   9.847   2.337   1.165 -1.4572  0.4620 -0.4743
 1466SOL     OW 9244   1.174   1.791   1.488  0.0816 -0.3922 -0.2780
 1466SOL    HW1 9245   1.098   1.843   1.514  0.7971  0.0982  0.8655
 1466SOL    HW2 9246   1.138   1.705   1.466 -0.9653  0.2394 -1.1030
 1467SOL     OW 9247   2.831   2.589   1.462  0.3553 -0.3283  0.1111
 1467SOL    HW1 9248   2.851   2.504   1.502  0.5609 -0.7286 -0.8224
 1467SOL    HW2 9249   2.738   2.584   1.439  0.5144 -0.5336 -0.4948
 1468SOL     OW 9250   0.675   2.648   1.637  0.4480 -0.1554  0.5951
 1468SOL    HW1 9251   0.721   2.591   1.698  1.2175  0.8491  0.9744
 1468SOL    HW2 9252   0.707   2.621   1.551  1.1885  0.0285  0.8059
 1469SOL     OW 9253   1.601   2.329   0.205 -0.0011 -0.2539  0.0037
 1469SOL    HW1 9254   1.612   2.282   0.288 -0.8733 -1.2748 -0.4551
 1469SOL    HW2 9255   1.612   2.262   0.138 -1.2313  0.1947 -0.6631
 1470SOL     OW 9256   0.481   3.881   0.527 -0.1520 -0.2345 -0.0591
 1470SOL    HW1 9257   0.524   3.818   0.469 -1.4966 -1.1635 -0.0899
 1470SOL    HW2 9258   0.390   3.883   0.497 -0.6124  0.1220  1.2948
 1471SOL     OW 9259   2.750   2.487   1.845 -0.5842  0.0622 -0.5624
 1471SOL    HW1 9260   2.677   2.458   1.899  0.1593  0.8808  0.9125
 1471SOL    HW2 9261   2.794   2.407   1.817 -0.8523 -0.3633  0.2385
 1472SOL     OW 9262   0.913   2.888   0.887  0.5192 -0.2977  0.0347
 1472SOL    HW1 9263   0.833   2.837   0.870  1.6732 -1.8884 -0.7246
 1472SOL    HW2 9264   0.881   2.978   0.901 -1.5127 -1.1367  1.0316
 1473SOL     OW 9265   8.201   2.277   0.478  0.6026 -0.3810 -0.2747
 1473SOL    HW1 9266   8.270   2.342   0.469 -0.5029  0.7118 -0.9918
 1473SOL    HW2 9267   8.151   2.306   0.554  1.9143 -2.1148  1.2953
 1474SOL     OW 9268   0.871   1.790   1.327  0.2703  0.2209  0.1173
 1474SOL    HW1 9269   0.909   1.843   1.257 -1.7967 -1.0361 -2.0277
 1474SOL    HW2 9270   0.928   1.714   1.334  0.2992  0.1944 -0.4127
 1475SOL     OW 9271   1.038   3.702   1.274 -0.2806  0.5557  0.1007
 1475SOL    HW1 9272   0.995   3.631   1.323 -0.1528  0.4146  0.0084
 1475SOL    HW2 9273   1.131   3.687   1.287 -0.2358  0.2931 -0.5029
 1476SOL     OW 9274   0.367   2.011   0.756  0.2319  0.1675 -0.4220
 1476SOL    HW1 9275   0.344   1.925   0.790  1.4368 -0.7922 -2.0008
 1476SOL    HW2 9276   0.310   2.023   0.680 -0.7030  1.2451  0.4285
 1477SOL     OW 9277   2.121   3.501   1.396  0.1898  0.2452  0.1673
 1477SOL    HW1 9278   2.207   3.482   1.357  0.3767 -0.2126  0.7898
 1477SOL    HW2 9279   2.078   3.416   1.401 -1.1654  0.7617 -2.1274
 1478SOL     OW 9280   1.431   1.859   1.690  0.7454 -0.3446  0.3668
 1478SOL    HW1 9281   1.442   1.890   1.780  1.5345 -0.3791  0.2866
 1478SOL    HW2 9282   1.365   1.790   1.696 -0.6057  0.9467  0.6318
 1479SOL     OW 9283   0.978   2.848   2.171  0.2232 -0.0837 -0.0573
 1479SOL    HW1 9284   0.965   2.822   2.080 -1.8137 -1.1239  0.5045
 1479SOL    HW2 9285   0.955   2.770   2.222  1.0721  0.5739  1.3697
 1480SOL     OW 9286   1.210   4.707   1.193 -0.6561  0.5996  0.2654
 1480SOL    HW1 9287   1.287   4.669   1.149 -1.1419 -1.3956  1.1175
 1480SOL    HW2 9288   1.246   4.747   1.273 -0.6340 -1.1699  1.1463
 1481SOL     OW 9289   2.421   2.585   1.693 -0.3780 -0.3573 -0.9207
 1481SOL    HW1 9290   2.347   2.640   1.721  0.3139  0.1039  0.0411
 1481SOL    HW2 9291   2.432   2.522   1.765  0.3318 -0.2544 -0.9389
 1482SOL     OW 9292   9.931   3.197   1.272 -0.7962 -0.1869 -0.6450
 1482SOL    HW1 9293   9.932   3.286   1.306 -2.5949 -0.6883  0.7639
 1482SOL    HW2 9294   9.860   3.153   1.319 -0.9679 -1.9250 -2.4336
 1483SOL     OW 9295   1.230   3.878   9.641 -0.1396 -0.8250  0.7715
 1483SOL    HW1 9296   1.169   3.842   9.705 -0.8523 -0.1570  0.4822
 1483SOL    HW2 9297   1.313   3.885   9.687 -0.5654 -0.6672  1.5184
 1484SOL     OW 9298   0.778   0.573   2.049  0.0697 -0.3438 -0.5730
 1484SOL    HW1 9299   0.729   0.548   2.127 -0.8130  0.3849 -0.8839
 1484SOL    HW2 9300   0.776   0.495   1.993 -0.1808 -0.5277 -0.3092
 1485SOL     OW 9301   0.391   2.709   9.418 -0.0143 -0.2757 -0.2424
 1485SOL    HW1 9302   0.323   2.764   9.457 -0.9949 -0.8171 -1.1653
 1485SOL    HW2 9303   0.401   2.743   9.329  1.5245  0.3266  0.1339
 1486SOL     OW 9304   1.169   3.315   0.721 -0.3714  0.3295 -0.4094
 1486SOL    HW1 9305   1.238   3.334   0.785 -1.1322 -0.0748  0.5536
 1486SOL    HW2 9306   1.168   3.219   0.716 -2.0325  0.2704  0.8956
 1487SOL     OW 9307   2.137   2.122   9.981  0.2294 -0.0715 -0.4059
 1487SOL    HW1 9308   2.226   2.092  10.000  0.5373  0.4370 -1.0046
 1487SOL    HW2 9309   2.104   2.059   9.917 -0.2455 -0.8979  0.6527
 1488SOL     OW 9310   0.620   4.959   1.693 -0.5394  0.3089  0.5529
 1488SOL    HW1 9311   0.591   5.039   1.650 -1.6980 -0.3706  0.0207
 1488SOL    HW2 9312   0.539   4.921   1.729  0.0610 -0.3732  1.2058
 1489SOL     OW 9313   0.663   2.055   2.207  0.0574 -0.2520  0.0506
 1489SOL    HW1 9314   0.623   2.011   2.281  0.9617 -1.9702 -0.4539
 1489SOL    HW2 9315   0.755   2.028   2.209 -0.2755 -1.8545 -2.7656
 1490SOL     OW 9316   2.138   2.946   2.488  0.1351  0.2534  0.6912
 1490SOL    HW1 9317   2.150   3.003   2.412  1.9001 -0.8457  0.1289
 1490SOL    HW2 9318   2.085   2.873   2.455  0.5512 -0.0174  0.6292
 1491SOL     OW 9319   1.016   3.281   2.348 -0.5892  0.3857  1.0537
 1491SOL    HW1 9320   0.980   3.349   2.291 -1.3030  1.0999  2.3363
 1491SOL    HW2 9321   0.963   3.286   2.428 -0.5175 -1.5243  1.2611
 1492SOL     OW 9322   8.662   3.034   1.265 -0.3566 -0.3465 -0.0256
 1492SOL    HW1 9323   8.702   3.106   1.314 -1.4502  0.1109  0.1990
 1492SOL    HW2 9324   8.568   3.043   1.281 -0.4873 -1.9574  0.1782
 1493SOL     OW 9325   0.827   2.867   1.687 -0.0908 -0.1607  0.1495
 1493SOL    HW1 9326   0.762   2.797   1.678 -0.9621  0.8458 -1.7001
 1493SOL    HW2 9327   0.910   2.827   1.660 -0.1677 -1.0881  1.2559
 1494SOL     OW 9328   1.701   1.359   0.486  0.7155 -0.0432 -0.0031
 1494SOL    HW1 9329   1.617   1.333   0.448 -1.0890  0.4471  3.4620
 1494SOL    HW2 9330   1.719   1.292   0.552  1.4897  1.5012  1.3770
 1495SOL     OW 9331   0.379   1.693   1.911  0.0390 -0.0491  0.1675
 1495SOL    HW1 9332   0.442   1.621   1.918  0.5406  0.5181  1.7417
 1495SOL    HW2 9333   0.295   1.651   1.893  0.5807 -0.9099 -0.3815
 1496SOL     OW 9334   9.307   3.661   2.188 -0.2328 -0.3391 -0.3787
 1496SOL    HW1 9335   9.273   3.588   2.137 -1.2671 -1.1729  1.4480
 1496SOL    HW2 9336   9.265   3.652   2.274  2.5850  0.1624  1.1120
 1497SOL     OW 9337   1.182   9.528   0.912 -0.1457  0.5446 -0.5163
 1497SOL    HW1 9338   1.188   9.595   0.981 -0.4468 -0.1468  0.1922
 1497SOL    HW2 9339   1.122   9.462   0.948 -0.0008 -0.0120 -1.2876
 1498SOL     OW 9340   0.726   3.601   2.732  0.1107 -0.5368 -0.1853
 1498SOL    HW1 9341   0.698   3.691   2.751 -0.4984 -0.6214 -0.6598
 1498SOL    HW2 9342   0.807   3.590   2.782 -1.3191 -0.6823  2.1546
 1499SOL     OW 9343   1.933   2.186   0.205 -0.4597  0.1336  0.3986
 1499SOL    HW1 9344   1.938   2.281   0.207  1.8672  0.0078  3.2688
 1499SOL    HW2 9345   1.993   2.160   0.135 -0.1358  0.7292  0.4516
 1500SOL     OW 9346   1.917   4.121   1.686 -0.0933  0.0818 -0.1979
 1500SOL    HW1 9347   1.891   4.171   1.609  0.2450  0.5358 -0.0232
 1500SOL    HW2 9348   1.850   4.053   1.695  0.9751 -1.2515 -2.0736
 1501SOL     OW 9349   0.796   4.279   2.062  0.0365 -0.4025 -1.0774
 1501SOL    HW1 9350   0.755   4.212   2.116 -1.2209 -0.5158 -2.1504
 1501SOL    HW2 9351   0.887   4.281   2.092 -0.2043 -1.7081 -0.1921
 1502SOL     OW 9352   9.239   2.536   1.454  0.3257 -0.0942 -0.1480
 1502SOL    HW1 9353   9.335   2.538   1.453  0.3081  0.6387 -1.7936
 1502SOL    HW2 9354   9.216   2.468   1.390 -0.2531 -1.0160  1.0128
 1503SOL     OW 9355   1.734   2.261   9.794  0.1773  0.4350 -0.0566
 1503SOL    HW1 9356   1.718   2.273   9.700  0.2233 -2.5956 -0.5113
 1503SOL    HW2 9357   1.823   2.294   9.807  1.1476 -1.4747 -1.6147
 1504SOL     OW 9358   0.965   2.562   9.677 -0.3381 -0.2375 -0.3120
 1504SOL    HW1 9359   1.041   2.511   9.707 -0.6459  0.0648  1.0168
 1504SOL    HW2 9360   0.987   2.653   9.699 -0.3634  0.0594 -1.4730
 1505SOL     OW 9361   1.496   3.700   1.875  0.1111  0.1748  0.1965
 1505SOL    HW1 9362   1.570   3.653   1.913  0.3685  0.6744  0.3132
 1505SOL    HW2 9363   1.523   3.719   1.785  0.2755  0.6841  0.3528
 1506SOL     OW 9364   1.377   1.037   1.250 -0.5998  0.1292  0.6182
 1506SOL    HW1 9365   1.470   1.055   1.242 -0.6134 -0.1145 -0.1672
 1506SOL    HW2 9366   1.365   1.010   1.341 -0.4186  3.1561  1.5961
 1507SOL     OW 9367   0.624   0.651   1.684 -0.2754  0.0040 -0.0602
 1507SOL    HW1 9368   0.568   0.573   1.681  0.6953 -0.7346  0.6003
 1507SOL    HW2 9369   0.571   0.717   1.730 -0.7170 -0.5949  0.2960
 1508SOL     OW 9370   9.442   2.593   9.973  1.1699  0.2324  0.1957
 1508SOL    HW1 9371   9.515   2.531   9.985 -1.0439 -2.2773  1.1261
 1508SOL    HW2 9372   9.363   2.539   9.982 -0.8361  3.1958  0.9580
 1509SOL     OW 9373   0.118   3.453   1.783  0.2714  0.2607  0.5126
 1509SOL    HW1 9374   0.106   3.515   1.855  0.4007 -2.0770  2.6320
 1509SOL    HW2 9375   0.209   3.426   1.789  0.3928  0.3367 -0.7884
 1510SOL     OW 9376   0.276   2.876   1.099 -0.1265 -0.2245  0.3334
 1510SOL    HW1 9377   0.300   2.912   1.185 -0.9069 -1.8736  1.2771
 1510SOL    HW2 9378   0.352   2.892   1.044 -0.2136  2.2438  0.9082
 1511SOL     OW 9379   8.536   3.648   1.679  0.1496  0.3879  0.1772
 1511SOL    HW1 9380   8.503   3.561   1.703 -0.0217  0.2510 -0.5202
 1511SOL    HW2 9381   8.627   3.633   1.653 -0.3724  0.1197 -1.5829
 1512SOL     OW 9382   0.570   3.971   1.281  0.0137 -0.5053  0.3461
 1512SOL    HW1 9383   0.603   4.058   1.301 -2.2828  0.5182 -0.2599
 1512SOL    HW2 9384   0.638   3.933   1.225  1.4642  0.5255  1.3717
 1513SOL     OW 9385   0.424   2.817   2.912 -0.3547  0.1213  0.0871
 1513SOL    HW1 9386   0.399   2.908   2.897 -4.2440 -0.8820 -0.0768
 1513SOL    HW2 9387   0.468   2.818   2.997 -0.7758  2.0937  0.2971
 1514SOL     OW 9388   2.031   2.031   9.423 -0.3339  0.1802  0.8505
 1514SOL    HW1 9389   2.122   2.056   9.437 -0.6675  1.6869  0.3756
 1514SOL    HW2 9390   2.029   1.937   9.442  1.6880 -0.2600 -0.9476
 1515SOL     OW 9391   3.149   1.966   1.556  0.0331 -0.1796  0.4571
 1515SOL    HW1 9392   3.110   1.902   1.615  0.4556 -0.1410  0.7841
 1515SOL    HW2 9393   3.164   1.918   1.475 -0.5360 -0.2378  0.3828
 1516SOL     OW 9394   8.908   2.950   1.496  0.4635  0.3502 -0.2406
 1516SOL    HW1 9395   9.004   2.960   1.493  0.3304  1.7177 -0.6054
 1516SOL    HW2 9396   8.875   3.032   1.459 -0.8534 -0.1884 -0.2759
 1517SOL     OW 9397   1.016   3.795   0.356 -0.0934 -0.1587 -0.4149
 1517SOL    HW1 9398   1.048   3.818   0.443 -2.2955  1.5948 -0.0206
 1517SOL    HW2 9399   1.056   3.858   0.297  0.6182 -0.7335 -0.5614
 1518SOL     OW 9400   0.545   2.304   9.271  0.3094  0.4089  0.0150
 1518SOL    HW1 9401   0.606   2.299   9.345 -0.2800  1.1431  0.5607
 1518SOL    HW2 9402   0.512   2.394   9.274 -1.4798 -0.2429  0.2679
 1519SOL     OW 9403   0.764   3.212   0.531 -0.3400 -0.0377 -0.6394
 1519SOL    HW1 9404   0.810   3.133   0.503 -2.6450 -1.0459 -1.7604
 1519SOL    HW2 9405   0.726   3.189   0.616  1.7912  1.0339  0.6217
 1520SOL     OW 9406   3.539   2.390   2.382  0.5175  0.2439  0.1123
 1520SOL    HW1 9407   3.530   2.326   2.452 -3.6563  2.1974  1.5313
 1520SOL    HW2 9408   3.501   2.348   2.306  1.1107 -0.2764  0.0981
 1521SOL     OW 9409   0.782   2.089   0.270  0.8797  0.3851 -0.1392
 1521SOL    HW1 9410   0.817   2.000   0.267  3.0328  1.2545 -1.2244
 1521SOL    HW2 9411   0.692   2.077   0.302  1.1402 -2.1612 -0.2107
 1522SOL     OW 9412   0.902   3.468   1.342 -0.1760 -0.1756  0.2911
 1522SOL    HW1 9413   0.880   3.425   1.424  1.2444 -2.0082 -0.2549
 1522SOL    HW2 9414   0.936   3.398   1.287 -2.6536  0.6956 -2.4869
 1523SOL     OW 9415   0.352   2.152   9.729 -0.3619 -0.5879  0.0402
 1523SOL    HW1 9416   0.263   2.186   9.718 -0.2128 -0.6380 -1.2874
 1523SOL    HW2 9417   0.372   2.110   9.646  1.6524  1.1433 -0.3764
 1524SOL     OW 9418   0.762   4.018   2.505  0.3133  0.3353 -0.3509
 1524SOL    HW1 9419   0.686   4.058   2.547  0.7576 -0.4252  1.1949
 1524SOL    HW2 9420   0.725   3.963   2.436 -0.6410 -1.0452  1.2194
 1525SOL     OW 9421   1.474   2.424   9.970  0.0884  0.4184  0.3612
 1525SOL    HW1 9422   1.488   2.422  10.065  2.0836 -0.0009  0.0690
 1525SOL    HW2 9423   1.545   2.371   9.934 -0.5369  0.7509 -1.3901
 1526SOL     OW 9424   2.502   2.162   1.574 -0.3413 -0.4647 -0.0954
 1526SOL    HW1 9425   2.408   2.152   1.592 -0.4367 -0.2688 -0.4771
 1526SOL    HW2 9426   2.523   2.089   1.516 -0.3385 -0.2993 -0.3036
 1527SOL     OW 9427   2.220   3.579   0.275 -0.3381 -0.0242 -0.0795
 1527SOL    HW1 9428   2.154   3.535   0.327 -1.4159  0.4525 -1.0214
 1527SOL    HW2 9429   2.281   3.509   0.249 -0.2094 -0.3787  1.1732
 1528SOL     OW 9430   0.425   1.819   0.484 -0.3565 -0.1255 -0.8027
 1528SOL    HW1 9431   0.335   1.823   0.515  0.5885  1.0373  2.0127
 1528SOL    HW2 9432   0.452   1.910   0.476  1.6624 -0.3601  2.0548
 1529SOL     OW 9433   1.836   2.190   2.148 -0.2279  0.1488 -0.5551
 1529SOL    HW1 9434   1.857   2.102   2.179  0.8598  0.1190 -1.3461
 1529SOL    HW2 9435   1.824   2.241   2.228  1.2236 -0.2404 -0.0629
 1530SOL     OW 9436   0.702   3.149   9.475  0.0397 -0.1949 -0.5585
 1530SOL    HW1 9437   0.737   3.136   9.387  0.0277 -0.1274 -0.5745
 1530SOL    HW2 9438   0.630   3.211   9.463  0.5650  0.4621 -0.3919
 1531SOL     OW 9439   1.836   1.716   2.118  0.4189  0.2513 -0.5218
 1531SOL    HW1 9440   1.898   1.653   2.154  0.6390  0.5696 -0.3335
 1531SOL    HW2 9441   1.751   1.685   2.147  0.6537  0.9215  0.9357
 1532SOL     OW 9442   0.523   2.521   0.188 -1.1060  0.1484 -0.1066
 1532SOL    HW1 9443   0.540   2.541   0.280  0.9243  1.5936 -0.7666
 1532SOL    HW2 9444   0.579   2.446   0.169  1.1038  1.9824 -1.0387
 1533SOL     OW 9445   0.467   2.286   0.917  0.2894 -0.2771  0.5041
 1533SOL    HW1 9446   0.519   2.364   0.934 -0.0109  0.2044 -0.7719
 1533SOL    HW2 9447   0.520   2.214   0.953  0.9261  0.4117  0.9705
 1534SOL     OW 9448   0.513   3.138   1.777  0.4733 -0.2993 -0.2792
 1534SOL    HW1 9449   0.519   3.048   1.744 -1.8026 -0.1693 -1.1171
 1534SOL    HW2 9450   0.488   3.128   1.869  0.2382 -0.5258 -0.3666
 1535SOL     OW 9451   0.874   2.957   0.456  0.6604 -0.3957 -0.1546
 1535SOL    HW1 9452   0.892   2.932   0.365  1.0633  0.4783 -0.3193
 1535SOL    HW2 9453   0.825   2.883   0.492  1.3241 -1.1645 -0.8078
 1536SOL     OW 9454   0.127   3.672   1.123  0.3341  0.3143 -0.1587
 1536SOL    HW1 9455   0.044   3.703   1.159 -0.3743 -2.5213  0.7745
 1536SOL    HW2 9456   0.192   3.732   1.160 -1.1155  1.5516  0.4523
 1537SOL     OW 9457   1.431   5.166   0.690 -0.0441 -0.0488  0.0023
 1537SOL    HW1 9458   1.434   5.124   0.776  0.6185 -0.4795 -0.2225
 1537SOL    HW2 9459   1.515   5.212   0.683  1.7835 -3.4137 -2.0639
 1538SOL     OW 9460   0.488   4.498   1.623  0.2572 -0.2095  0.0979
 1538SOL    HW1 9461   0.571   4.530   1.658  0.5021  0.7666 -1.3192
 1538SOL    HW2 9462   0.424   4.515   1.692  1.4000 -1.9417  1.6289
 1539SOL     OW 9463   9.655   3.376   1.704 -0.2305  0.3805  0.0121
 1539SOL    HW1 9464   9.561   3.358   1.706 -0.1087 -0.4356 -1.0723
 1539SOL    HW2 9465   9.672   3.400   1.613  0.8640 -0.9143 -0.1419
 1540SOL     OW 9466   3.038   1.696   1.679 -0.0592  0.0400  0.0702
 1540SOL    HW1 9467   3.024   1.756   1.752 -0.1014  0.2748 -0.1315
 1540SOL    HW2 9468   2.961   1.639   1.681 -1.2166  1.5265 -1.2219
 1541SOL     OW 9469   9.076   2.037   0.600  0.3463  0.1773 -0.0790
 1541SOL    HW1 9470   9.063   1.952   0.558  0.7707 -0.4507  1.0283
 1541SOL    HW2 9471   8.990   2.079   0.597  0.2609 -0.0664 -1.1128
 1542SOL     OW 9472   9.010   2.703   0.511  0.0286 -0.3135  0.8849
 1542SOL    HW1 9473   9.102   2.682   0.527  0.9679  1.7939 -1.4886
 1542SOL    HW2 9474   8.982   2.642   0.443 -0.5167 -1.3189  1.9917
 1543SOL     OW 9475   1.591   1.537   1.409 -0.5830 -0.2667  0.4437
 1543SOL    HW1 9476   1.579   1.479   1.484  0.3620  0.1961  0.9637
 1543SOL    HW2 9477   1.581   1.480   1.333  0.2854 -1.1118  0.9450
 1544SOL     OW 9478   9.803   2.195   0.038 -0.2770  0.1311  0.2979
 1544SOL    HW1 9479   9.887   2.155   0.059 -0.7038 -1.4052 -0.7855
 1544SOL    HW2 9480   9.741   2.122   0.041 -1.4272  1.0989  0.2880
 1545SOL     OW 9481   1.350   2.578   0.938  0.0546  0.4703  0.1211
 1545SOL    HW1 9482   1.359   2.669   0.911 -0.0802  0.8411  1.2847
 1545SOL    HW2 9483   1.262   2.572   0.974  0.1566 -0.0404  0.2942
 1546SOL     OW 9484   0.871   3.178   9.698 -0.8162 -0.0233  0.7184
 1546SOL    HW1 9485   0.923   3.098   9.700 -1.9362 -0.7793  0.0990
 1546SOL    HW2 9486   0.814   3.168   9.622 -0.6268  1.5783  0.3570
 1547SOL     OW 9487   9.841   4.453   2.349 -0.4747  0.6551 -0.0835
 1547SOL    HW1 9488   9.846   4.419   2.260 -0.4336  1.1972 -0.2911
 1547SOL    HW2 9489   9.924   4.426   2.389 -0.0610  1.2662 -0.5208
 1548SOL     OW 9490   0.470   4.048   2.431 -0.2696  0.3417  0.5811
 1548SOL    HW1 9491   0.499   4.077   2.518  0.8233  2.1093 -0.3396
 1548SOL    HW2 9492   0.511   3.962   2.419  1.7495  1.2435  0.7532
 1549SOL     OW 9493   1.803   2.116   1.801 -0.0383 -0.2547 -0.1037
 1549SOL    HW1 9494   1.814   2.024   1.827 -1.2222 -0.8453 -1.6296
 1549SOL    HW2 9495   1.750   2.112   1.722  2.1953  1.5952 -1.7456
 1550SOL     OW 9496   2.259   3.234   2.560  0.0148  0.3516 -0.1249
 1550SOL    HW1 9497   2.293   3.145   2.568 -2.0780 -0.5252 -0.6400
 1550SOL    HW2 9498   2.257   3.267   2.650 -1.8000 -1.1572  0.4351
 1551SOL     OW 9499   9.382   4.045   1.313 -0.2476  0.0477 -0.1581
 1551SOL    HW1 9500   9.305   4.048   1.369 -0.4508  1.4115 -0.5117
 1551SOL    HW2 9501   9.449   4.003   1.367 -1.2745 -1.3578  0.0748
 1552SOL     OW 9502   3.101   1.908   1.888  0.1729  0.7988 -0.0444
 1552SOL    HW1 9503   3.094   1.852   1.965 -2.3661  0.3947 -0.5391
 1552SOL    HW2 9504   3.140   1.989   1.921  2.5309 -0.6617  0.9431
 1553SOL     OW 9505   1.398   3.053   0.823 -0.7128  0.0809 -0.3562
 1553SOL    HW1 9506   1.418   3.066   0.730  0.3621  2.2924  0.1448
 1553SOL    HW2 9507   1.476   3.083   0.869  0.0279 -3.9488  1.1993
 1554SOL     OW 9508   3.146   1.588   2.866  0.4347  0.2316 -0.0386
 1554SOL    HW1 9509   3.066   1.539   2.848 -0.8331  2.8446 -1.7435
 1554SOL    HW2 9510   3.212   1.550   2.808  0.1624 -1.1432  0.5302
 1555SOL     OW 9511   2.315   1.356   2.271  0.4168  0.8186 -0.3091
 1555SOL    HW1 9512   2.240   1.296   2.275  2.4528 -1.8813 -1.4791
 1555SOL    HW2 9513   2.339   1.358   2.178  4.0997 -1.3392  0.5194
 1556SOL     OW 9514   1.508   2.734   0.213 -0.3047  0.6597  0.3041
 1556SOL    HW1 9515   1.556   2.804   0.257 -0.2695  0.5941  0.3697
 1556SOL    HW2 9516   1.429   2.777   0.180 -0.9316  0.4468  1.5081
 1557SOL     OW 9517   0.008   3.726   9.315 -0.2326  0.2823 -0.0603
 1557SOL    HW1 9518   0.009   3.670   9.393  0.3039 -1.2351 -1.1294
 1557SOL    HW2 9519  -0.066   3.694   9.263  0.0945  0.5415 -0.6890
 1558SOL     OW 9520   0.832   1.754   9.891  0.4689  0.3634 -0.1323
 1558SOL    HW1 9521   0.819   1.779   9.799  1.6510  1.6728  0.0300
 1558SOL    HW2 9522   0.744   1.755   9.929  0.0965  0.9502 -0.9809
 1559SOL     OW 9523   0.410   3.310   2.295  0.0532 -0.2407 -0.2797
 1559SOL    HW1 9524   0.402   3.318   2.390  1.7309  0.7679 -0.2141
 1559SOL    HW2 9525   0.448   3.393   2.267 -2.2251  0.2409 -2.0807
 1560SOL     OW 9526   0.093   3.556   2.347  0.5783  0.0614 -0.0419
 1560SOL    HW1 9527   0.142   3.606   2.412  1.0571 -0.1873 -0.2129
 1560SOL    HW2 9528   0.089   3.613   2.270 -0.1884  0.4501  0.2792
 1561SOL     OW 9529   1.576   2.111   1.663 -0.2032 -0.1579  0.2406
 1561SOL    HW1 9530   1.526   2.156   1.731 -1.1601  0.8903 -1.1287
 1561SOL    HW2 9531   1.516   2.044   1.630  0.3412 -0.8143  0.5538
 1562SOL     OW 9532   1.954   3.010   0.871  0.6487  0.1449 -0.9526
 1562SOL    HW1 9533   2.024   3.055   0.822 -0.2233  0.9820 -1.4531
 1562SOL    HW2 9534   1.875   3.029   0.821  0.1606 -1.4309 -0.8019
 1563SOL     OW 9535   9.767   2.967   0.772  0.0003 -0.1864  0.5434
 1563SOL    HW1 9536   9.702   2.899   0.788  1.1178 -1.1760  0.9236
 1563SOL    HW2 9537   9.848   2.920   0.753  1.2678  1.0099  2.7388
 1564SOL     OW 9538   2.259   3.584   0.759 -0.3674 -0.0280 -0.3794
 1564SOL    HW1 9539   2.188   3.550   0.813  0.4513  0.5600  1.0885
 1564SOL    HW2 9540   2.339   3.559   0.806  0.4333 -1.4792 -2.4761
 1565SOL     OW 9541   9.808   2.239   1.674 -0.1038  0.1750  0.3624
 1565SOL    HW1 9542   9.724   2.264   1.635  0.1829  0.7050  0.0871
 1565SOL    HW2 9543   9.862   2.318   1.667  0.9581 -0.6521 -0.9347
 1566SOL     OW 9544   0.642   4.782   0.239  0.2583  0.2625 -0.3998
 1566SOL    HW1 9545   0.682   4.726   0.305 -0.4270  2.0572  1.5801
 1566SOL    HW2 9546   0.716   4.814   0.188  0.7522 -1.5018 -0.8366
 1567SOL     OW 9547   1.198   2.184   2.302  0.4826  0.1803 -0.7341
 1567SOL    HW1 9548   1.129   2.220   2.359 -1.3393 -0.8200 -2.2314
 1567SOL    HW2 9549   1.278   2.194   2.352 -1.1129 -0.9661  2.2018
 1568SOL     OW 9550   9.477   3.825   1.922 -0.1171 -0.4803  0.4590
 1568SOL    HW1 9551   9.499   3.799   1.833 -0.4756 -2.4043  0.9199
 1568SOL    HW2 9552   9.405   3.888   1.912 -0.0581 -0.5821 -0.6048
 1569SOL     OW 9553   0.241   3.314   9.949  0.2756  0.1116 -0.0565
 1569SOL    HW1 9554   0.279   3.259  10.017  0.3486  2.5285  1.9212
 1569SOL    HW2 9555   0.276   3.401   9.966 -1.3826  1.1816 -1.9017
 1570SOL     OW 9556   9.856   2.727   3.604 -0.0107  0.8229 -0.2526
 1570SOL    HW1 9557   9.865   2.682   3.687 -0.7694  0.4620 -0.3662
 1570SOL    HW2 9558   9.762   2.743   3.595 -0.1743 -0.9282 -1.9735
 1571SOL     OW 9559   9.973   0.645   0.370  0.1291  0.0353  0.8988
 1571SOL    HW1 9560   9.937   0.584   0.306  0.0681 -0.1980  1.1561
 1571SOL    HW2 9561  10.035   0.699   0.320 -0.4768  0.3524  0.4765
 1572SOL     OW 9562   1.887   1.479   0.212  0.5232 -0.3513  0.6253
 1572SOL    HW1 9563   1.971   1.512   0.181  1.1164 -0.6843  1.8253
 1572SOL    HW2 9564   1.896   1.384   0.211  0.2131 -0.3846  0.8922
 1573SOL     OW 9565   0.284   1.655   9.888 -0.1846  0.4442  0.6468
 1573SOL    HW1 9566   0.259   1.729   9.943  2.7064  1.7024  0.3279
 1573SOL    HW2 9567   0.279   1.688   9.799  3.3414  0.9978  0.6143
 1574SOL     OW 9568   9.408   4.106   0.258  0.1681 -0.1539 -0.5202
 1574SOL    HW1 9569   9.334   4.056   0.291  0.4892  1.0347  2.1284
 1574SOL    HW2 9570   9.485   4.055   0.283  0.3981  0.5144  0.1498
 1575SOL     OW 9571   9.574   4.340   2.024 -0.2272 -0.2361  0.5645
 1575SOL    HW1 9572   9.549   4.263   1.973  2.0169 -0.5524 -0.1251
 1575SOL    HW2 9573   9.592   4.407   1.959 -2.2286  0.9395  1.1664
 1576SOL     OW 9574   9.512   3.249   2.387  0.3991  0.5031 -0.3122
 1576SOL    HW1 9575   9.451   3.312   2.350  0.7137  2.2170  2.0184
 1576SOL    HW2 9576   9.596   3.294   2.387  0.4753  0.4275  2.0827
 1577SOL     OW 9577   0.603   3.529   2.503  0.0008 -0.1463  0.2026
 1577SOL    HW1 9578   0.659   3.556   2.576 -1.1232  1.5351  0.4717
 1577SOL    HW2 9579   0.514   3.530   2.539 -0.5837  0.8795 -1.2464
 1578SOL     OW 9580   9.964   2.474   1.657 -0.2152 -0.4528 -0.3915
 1578SOL    HW1 9581  10.052   2.435   1.662 -0.3598 -0.7032  0.2705
 1578SOL    HW2 9582   9.955   2.523   1.739  0.8317  2.8491 -2.1440
 1579SOL     OW 9583   8.550   3.758   4.842 -0.0061 -0.0914  0.0234
 1579SOL    HW1 9584   8.535   3.853   4.837 -1.1474 -0.2089  0.9605
 1579SOL    HW2 9585   8.587   3.745   4.929 -1.6310 -0.7171  0.6470
 1580SOL     OW 9586   2.141   3.191   5.333 -0.0843 -0.3723  0.4121
 1580SOL    HW1 9587   2.112   3.245   5.407 -0.5295 -0.2569  0.1557
 1580SOL    HW2 9588   2.117   3.243   5.256 -0.9504 -1.1468  0.1506
 1581SOL     OW 9589   0.997   3.334   2.661  0.4212  0.0494 -0.2233
 1581SOL    HW1 9590   1.025   3.282   2.736  0.8452  2.0366  1.0654
 1581SOL    HW2 9591   0.912   3.298   2.636  0.9832 -1.6307  0.2184
 1582SOL     OW 9592   2.000   2.181   3.690 -0.2240 -0.0041  0.0946
 1582SOL    HW1 9593   2.068   2.203   3.626 -2.7000  1.3588 -2.1465
 1582SOL    HW2 9594   1.924   2.157   3.637 -2.6273  2.0634  2.4577
 1583SOL     OW 9595   1.074   2.487   3.119 -0.2312  0.2910 -0.1251
 1583SOL    HW1 9596   1.153   2.443   3.088  0.1757  0.6692  0.3604
 1583SOL    HW2 9597   1.003   2.449   3.067  0.4386  0.9486 -1.5323
 1584SOL     OW 9598   1.109   1.717   2.255  0.0627  0.2843  0.6064
 1584SOL    HW1 9599   1.073   1.653   2.193 -0.8243  0.4157  0.9737
 1584SOL    HW2 9600   1.051   1.792   2.248  0.1109  0.3994  1.4035
 1585SOL     OW 9601   0.238   0.515   0.806  0.4834  0.7487  0.1961
 1585SOL    HW1 9602   0.320   0.471   0.785 -0.4896 -0.7745 -0.5164
 1585SOL    HW2 9603   0.241   0.597   0.757  1.0435  0.1306 -0.8223
 1586SOL     OW 9604   0.096   3.139   2.728 -0.4978  0.4246  0.0697
 1586SOL    HW1 9605   0.148   3.181   2.796  1.2212 -0.9674 -0.3698
 1586SOL    HW2 9606   0.086   3.207   2.661  1.3174  0.5179 -0.1324
 1587SOL     OW 9607   0.055   2.417   2.655  0.2223  0.3712 -0.0548
 1587SOL    HW1 9608   0.064   2.445   2.746  0.3084 -0.7499  0.2915
 1587SOL    HW2 9609   0.070   2.323   2.657 -1.6022  0.0184 -0.9511
 1588SOL     OW 9610   0.591   1.958   3.586  0.2193  0.0801  0.3907
 1588SOL    HW1 9611   0.535   1.883   3.603 -1.7115  1.8600  2.1602
 1588SOL    HW2 9612   0.676   1.935   3.624 -0.2679 -1.2887  0.6621
 1589SOL     OW 9613   0.707   2.051   2.593 -0.3584 -0.2280  0.3510
 1589SOL    HW1 9614   0.717   1.993   2.669 -2.2521 -0.8455  0.1570
 1589SOL    HW2 9615   0.756   2.007   2.523 -0.1964 -0.6284  0.7115
 1590SOL     OW 9616   1.439   1.471   3.571  0.4224 -0.4335 -0.0855
 1590SOL    HW1 9617   1.434   1.378   3.551  0.2492 -0.8288  1.7061
 1590SOL    HW2 9618   1.366   1.486   3.632  1.4547  0.5150  0.9474
 1591SOL     OW 9619   1.271   3.865   1.742  0.2471  0.0142 -0.0672
 1591SOL    HW1 9620   1.346   3.809   1.727 -0.8496 -1.6515  0.5379
 1591SOL    HW2 9621   1.238   3.840   1.828  1.0717  3.1869  1.2357
 1592SOL     OW 9622   0.947   2.977   2.668 -0.4622 -0.5791  0.0445
 1592SOL    HW1 9623   0.897   3.039   2.721 -1.6109 -1.2025 -0.2892
 1592SOL    HW2 9624   0.943   3.012   2.580 -1.6293 -1.4359 -0.2515
 1593SOL     OW 9625   9.638   3.136   2.815 -0.4366  0.2823  0.2162
 1593SOL    HW1 9626   9.592   3.220   2.815 -2.5208 -0.7701 -2.6339
 1593SOL    HW2 9627   9.600   3.087   2.887 -1.1766  0.8019  0.1814
 1594SOL     OW 9628   1.108   2.517   1.021 -0.3198 -0.6964  0.2847
 1594SOL    HW1 9629   1.037   2.540   0.961 -0.2642  0.0801  0.5135
 1594SOL    HW2 9630   1.074   2.538   1.108 -0.2885 -1.5391  0.5065
 1595SOL     OW 9631   0.319   3.736   2.391 -0.1130  0.0103  0.2389
 1595SOL    HW1 9632   0.321   3.757   2.484 -0.0407  0.5826  0.1086
 1595SOL    HW2 9633   0.348   3.816   2.347 -3.5882  1.0016 -0.4722
 1596SOL     OW 9634   9.778   2.152   3.097 -0.8314  0.0274 -0.2556
 1596SOL    HW1 9635   9.864   2.145   3.140 -0.7955  1.5743 -0.0399
 1596SOL    HW2 9636   9.728   2.079   3.133 -0.0238 -0.1175  0.6268
 1597SOL     OW 9637   1.871   3.609   2.843 -0.0310 -0.0891  0.4384
 1597SOL    HW1 9638   1.854   3.680   2.781  1.1561 -0.3095 -0.1734
 1597SOL    HW2 9639   1.829   3.637   2.924 -1.7892  0.1025 -0.5243
 1598SOL     OW 9640   8.886   3.199   2.431 -0.4285  0.0254  0.6618
 1598SOL    HW1 9641   8.807   3.249   2.413 -0.5620 -0.2874  0.3855
 1598SOL    HW2 9642   8.903   3.151   2.351  0.2583  0.3898  0.5834
 1599SOL     OW 9643   0.534   2.875   3.168 -0.0840 -0.1206 -0.4151
 1599SOL    HW1 9644   0.550   2.781   3.171 -0.6289 -0.2328 -0.7730
 1599SOL    HW2 9645   0.472   2.891   3.240  0.6395  0.0986  0.1610
 1600SOL     OW 9646   9.937   3.114   4.133 -0.0928  0.1643  0.2849
 1600SOL    HW1 9647  10.005   3.057   4.168  0.9086  0.3300 -1.3459
 1600SOL    HW2 9648   9.858   3.059   4.132  0.1968 -0.2898  1.3531
 1601SOL     OW 9649   1.098   1.936   3.177  0.1472  0.1679  0.3663
 1601SOL    HW1 9650   1.189   1.965   3.172 -0.3262  1.5152 -1.1687
 1601SOL    HW2 9651   1.078   1.933   3.270  1.4600  0.8673  0.6811
 1602SOL     OW 9652   1.479   3.531   3.564 -0.0516 -0.1233  0.1968
 1602SOL    HW1 9653   1.443   3.527   3.653  0.0810 -0.1976  0.2474
 1602SOL    HW2 9654   1.551   3.468   3.565  1.3914  1.4940  0.6865
 1603SOL     OW 9655   9.522   3.288   2.055 -0.2392 -0.2939 -0.1602
 1603SOL    HW1 9656   9.446   3.345   2.056  0.3463  0.4639  2.3246
 1603SOL    HW2 9657   9.597   3.347   2.047  0.1902 -0.9677 -1.3884
 1604SOL     OW 9658   0.605   3.341   3.804 -0.3748 -0.1187  0.5879
 1604SOL    HW1 9659   0.607   3.307   3.893  2.8573 -1.0553  0.1943
 1604SOL    HW2 9660   0.568   3.269   3.752  0.6183 -0.7142  0.7020
 1605SOL     OW 9661   0.724   3.230   2.605 -0.1426  0.5181  0.6619
 1605SOL    HW1 9662   0.690   3.141   2.597  0.5552  0.0611  2.3982
 1605SOL    HW2 9663   0.652   3.286   2.580 -0.7697 -0.5382  0.0795
 1606SOL     OW 9664   0.351   2.177   3.672 -0.2657  0.2735  0.2452
 1606SOL    HW1 9665   0.414   2.246   3.690 -0.6542  0.8379 -0.5866
 1606SOL    HW2 9666   0.279   2.220   3.626 -0.3273 -0.7527 -0.6303
 1607SOL     OW 9667   1.096   4.161   3.478  0.3339  0.5141  0.0289
 1607SOL    HW1 9668   1.109   4.196   3.566 -0.4627  0.8095  0.0335
 1607SOL    HW2 9669   1.088   4.239   3.423 -2.1601  0.3660  0.1397
 1608SOL     OW 9670   1.271   3.217   2.600 -0.2749  1.2672  0.3157
 1608SOL    HW1 9671   1.207   3.217   2.671  1.7897 -0.6563  2.2480
 1608SOL    HW2 9672   1.273   3.126   2.569  0.8119  1.5104 -0.3686
 1609SOL     OW 9673   0.384   1.200   1.560 -0.0762  0.6136  0.0687
 1609SOL    HW1 9674   0.439   1.143   1.613  0.2451  0.9711  0.1236
 1609SOL    HW2 9675   0.295   1.170   1.577  0.0660  0.3649  0.3751
 1610SOL     OW 9676   0.263   1.327   3.459  0.4297  0.1808  0.1874
 1610SOL    HW1 9677   0.216   1.366   3.386 -2.1274 -1.5638  0.8332
 1610SOL    HW2 9678   0.278   1.399   3.520  1.9991  1.5077 -1.7164
 1611SOL     OW 9679   2.242   4.278   2.330  0.3477 -0.2647  0.1045
 1611SOL    HW1 9680   2.270   4.247   2.244  2.1014  0.6394  0.3146
 1611SOL    HW2 9681   2.234   4.373   2.320 -0.0139 -0.2210  0.7672
 1612SOL     OW 9682   1.213   2.822   3.350 -0.1902 -0.3120 -0.0417
 1612SOL    HW1 9683   1.153   2.883   3.392  0.8076 -0.3410  1.4654
 1612SOL    HW2 9684   1.168   2.738   3.353 -0.6693 -0.0638 -0.2177
 1613SOL     OW 9685   1.603   3.869   4.722  0.2808  0.6134  0.1156
 1613SOL    HW1 9686   1.550   3.793   4.746  0.3944  0.5382  0.1262
 1613SOL    HW2 9687   1.587   3.932   4.791  0.2426  0.5717  0.1454
 1614SOL     OW 9688   0.254   2.560   2.873  0.0905 -0.0320 -0.8128
 1614SOL    HW1 9689   0.349   2.569   2.885 -0.1459 -0.3709  1.4847
 1614SOL    HW2 9690   0.236   2.469   2.897 -0.8575  0.0854 -1.0835
 1615SOL     OW 9691   9.162   3.020   2.311  0.4952  0.3346  0.1075
 1615SOL    HW1 9692   9.199   3.016   2.223 -0.2020  0.8512 -0.2105
 1615SOL    HW2 9693   9.196   3.101   2.348  1.4032 -0.2652  0.5927
 1616SOL     OW 9694   8.856   6.221   3.178 -0.6804 -0.2940 -0.1988
 1616SOL    HW1 9695   8.803   6.237   3.255 -0.5768 -1.1481  0.0582
 1616SOL    HW2 9696   8.807   6.155   3.128  0.7227 -2.0344  0.6678
 1617SOL     OW 9697   1.190   2.732   2.630  0.0461  0.5028 -0.4694
 1617SOL    HW1 9698   1.186   2.670   2.558  0.2931  0.0203 -0.0711
 1617SOL    HW2 9699   1.282   2.729   2.659 -0.4798 -0.7547  1.1325
 1618SOL     OW 9700   1.481   1.944   4.705  0.0682  0.0774 -0.1195
 1618SOL    HW1 9701   1.466   1.879   4.773  0.6821 -0.8691 -0.8658
 1618SOL    HW2 9702   1.405   2.001   4.708 -2.0622 -2.5645 -1.5671
 1619SOL     OW 9703   1.081   2.926   2.933  0.8764  0.0033  0.4002
 1619SOL    HW1 9704   1.027   2.913   3.011  0.8084 -0.5114  0.2705
 1619SOL    HW2 9705   1.158   2.870   2.947  0.9984  0.1297  0.2301
 1620SOL     OW 9706   0.886   1.450   3.319 -0.0065 -0.3263 -0.2095
 1620SOL    HW1 9707   0.875   1.545   3.315 -1.0566 -0.4250  0.1842
 1620SOL    HW2 9708   0.805   1.414   3.283  1.3327 -1.0771 -2.5304
 1621SOL     OW 9709   9.446   3.341   1.509  0.6388 -0.5163 -0.1727
 1621SOL    HW1 9710   9.523   3.397   1.498  0.7470 -1.1211 -2.9217
 1621SOL    HW2 9711   9.416   3.324   1.420 -1.1477 -2.4229  0.7457
 1622SOL     OW 9712   1.916   2.643   3.209  0.1637  0.0489  0.3914
 1622SOL    HW1 9713   1.893   2.565   3.260  0.9130  0.0082  0.6667
 1622SOL    HW2 9714   2.011   2.648   3.214  0.1722  0.5694 -0.2410
 1623SOL     OW 9715   0.449   4.234   3.533  0.7947  0.3898 -0.2696
 1623SOL    HW1 9716   0.414   4.242   3.622  0.1467  2.1026 -0.6531
 1623SOL    HW2 9717   0.544   4.248   3.543  1.0673 -1.8470  0.4508
 1624SOL     OW 9718   0.411   2.664   1.318  0.0584 -0.5137 -0.8349
 1624SOL    HW1 9719   0.497   2.669   1.276 -0.6716 -0.4273 -2.3294
 1624SOL    HW2 9720   0.410   2.577   1.359  0.6157 -0.7595 -1.3342
 1625SOL     OW 9721   0.906   2.439   3.470  0.1177  0.6600  0.3883
 1625SOL    HW1 9722   0.820   2.473   3.449  0.0514  0.6393  0.6207
 1625SOL    HW2 9723   0.919   2.461   3.563  2.2080  4.6217 -0.7552
 1626SOL     OW 9724   0.925   3.401   1.624 -0.3562 -0.7888  0.7423
 1626SOL    HW1 9725   1.020   3.392   1.611 -0.4427  0.5899 -1.0513
 1626SOL    HW2 9726   0.888   3.323   1.583 -0.1511  0.0439 -1.0868
 1627SOL     OW 9727   1.946   2.750   1.554 -0.3303  0.4615  0.0593
 1627SOL    HW1 9728   1.885   2.716   1.489 -0.3784 -1.7144  1.2192
 1627SOL    HW2 9729   1.901   2.826   1.591 -1.0464  0.6653 -1.2066
 1628SOL     OW 9730   9.756   3.524   1.912 -0.2540 -0.2656 -0.3811
 1628SOL    HW1 9731   9.747   3.619   1.904 -1.1212 -0.3775 -0.7784
 1628SOL    HW2 9732   9.707   3.489   1.838  1.1363 -0.9970 -0.9720
 1629SOL     OW 9733   0.606   0.662   0.691  0.1200 -0.2295  0.2380
 1629SOL    HW1 9734   0.521   0.705   0.687  0.2632  0.1029  0.6975
 1629SOL    HW2 9735   0.610   0.623   0.778 -0.3988 -2.0073 -0.5148
 1630SOL     OW 9736   8.365   5.074   2.340  0.0687 -0.0348  0.1829
 1630SOL    HW1 9737   8.434   5.009   2.349  0.9217  0.6300 -1.2765
 1630SOL    HW2 9738   8.399   5.136   2.276 -0.9800  1.5113  1.0820
 1631SOL     OW 9739   0.534   3.138   3.601  0.5884 -0.8836  0.4891
 1631SOL    HW1 9740   0.450   3.094   3.591  0.1699 -0.1137  0.5670
 1631SOL    HW2 9741   0.599   3.071   3.580 -0.0201 -1.6675  1.0794
 1632SOL     OW 9742   1.463   1.777   4.099  0.1622  0.2291 -0.0207
 1632SOL    HW1 9743   1.501   1.823   4.174 -1.3610 -0.3056  1.1040
 1632SOL    HW2 9744   1.369   1.774   4.118  0.0142 -1.6491 -0.9805
 1633SOL     OW 9745   0.163   1.940   2.311  0.1905 -0.2208  0.0793
 1633SOL    HW1 9746   0.109   1.868   2.344  0.5964 -1.2058 -1.3218
 1633SOL    HW2 9747   0.152   2.010   2.375 -1.3663 -1.0151  0.7085
 1634SOL     OW 9748   1.617   1.576   5.018  0.1800 -0.2312 -0.2186
 1634SOL    HW1 9749   1.576   1.493   5.042 -2.1738  0.9529 -0.0612
 1634SOL    HW2 9750   1.702   1.574   5.062  0.1836 -2.5730 -0.2613
 1635SOL     OW 9751   1.724   2.525   2.425 -0.2499  0.5177  0.2509
 1635SOL    HW1 9752   1.715   2.586   2.352 -1.2597  0.8117  0.6026
 1635SOL    HW2 9753   1.659   2.555   2.489 -0.0337 -0.3025  0.8618
 1636SOL     OW 9754   1.661   0.727   4.055  0.1474 -0.1049 -0.2452
 1636SOL    HW1 9755   1.609   0.671   4.113 -0.2040 -0.1560 -0.6051
 1636SOL    HW2 9756   1.733   0.758   4.110  0.0950 -0.5503  0.0807
 1637SOL     OW 9757   9.915   2.591   1.924  0.6076  0.2862  0.0560
 1637SOL    HW1 9758   9.923   2.531   1.998 -1.0108  0.3201  0.2828
 1637SOL    HW2 9759   9.898   2.676   1.965  0.8381  0.5170 -0.3281
 1638SOL     OW 9760   9.454   2.210   3.096 -1.4838  0.1204 -0.7555
 1638SOL    HW1 9761   9.523   2.208   3.029 -0.9850  2.4206 -0.3459
 1638SOL    HW2 9762   9.420   2.299   3.093 -4.0622 -0.8292 -0.5216
 1639SOL     OW 9763   1.181   2.310   0.857  0.4797 -0.7963 -0.0306
 1639SOL    HW1 9764   1.128   2.338   0.932  0.4507  0.3105 -0.4487
 1639SOL    HW2 9765   1.205   2.220   0.876  0.3034 -0.5806  1.2155
 1640SOL     OW 9766   0.034   4.612   1.981 -0.3167 -0.5546 -0.2295
 1640SOL    HW1 9767   0.053   4.688   1.926 -3.2466  2.5020  2.7349
 1640SOL    HW2 9768   0.115   4.596   2.029  0.7397 -0.1958 -1.8353
 1641SOL     OW 9769   0.586   0.757   2.234  0.3850 -0.5406  0.3116
 1641SOL    HW1 9770   0.566   0.835   2.285  2.4938  0.1575  0.0908
 1641SOL    HW2 9771   0.629   0.698   2.297  1.8162 -0.1897 -0.3219
 1642SOL     OW 9772   2.214   2.394   2.320 -0.2605  0.5651  0.3336
 1642SOL    HW1 9773   2.267   2.370   2.243  1.6808  1.2624  1.4251
 1642SOL    HW2 9774   2.212   2.314   2.373 -1.4946  0.1227 -0.3433
 1643SOL     OW 9775   0.475   1.224   1.043  0.0889  0.2151 -0.1677
 1643SOL    HW1 9776   0.491   1.306   0.995 -0.6828 -0.1105 -0.9888
 1643SOL    HW2 9777   0.407   1.246   1.106 -0.4812  0.0808 -0.7330
 1644SOL     OW 9778   1.032   3.820   3.721 -0.1545  0.2566 -0.5632
 1644SOL    HW1 9779   1.005   3.910   3.701  0.1624  0.2140 -1.2015
 1644SOL    HW2 9780   0.971   3.765   3.672 -1.2407  0.0900  0.9475
 1645SOL     OW 9781   0.863   3.743   0.720  0.3332  0.1878 -0.4641
 1645SOL    HW1 9782   0.949   3.703   0.732 -0.7904 -2.3419 -0.4047
 1645SOL    HW2 9783   0.815   3.680   0.666 -1.9338  0.8354  0.7082
 1646SOL     OW 9784   2.123   0.525   3.462 -0.2430  0.5921 -0.0333
 1646SOL    HW1 9785   2.065   0.464   3.416 -1.5309  1.8201 -0.0978
 1646SOL    HW2 9786   2.205   0.522   3.413 -0.6225 -0.3448 -0.6260
 1647SOL     OW 9787   1.354   3.228   3.217  0.2183 -0.0191 -0.0407
 1647SOL    HW1 9788   1.259   3.219   3.224  0.1646 -0.3963 -1.1799
 1647SOL    HW2 9789   1.375   3.194   3.130  1.0470  2.7498 -0.9838
 1648SOL     OW 9790   1.301   2.539   2.247 -0.5954 -0.2072  0.4742
 1648SOL    HW1 9791   1.366   2.474   2.275 -1.1802  0.2569  2.9328
 1648SOL    HW2 9792   1.237   2.542   2.318 -0.7421  2.8755  0.2449
 1649SOL     OW 9793   1.461   1.889   1.970 -0.6202  0.3099  0.3934
 1649SOL    HW1 9794   1.457   1.800   2.005  1.4192 -1.1252 -2.7506
 1649SOL    HW2 9795   1.491   1.942   2.044  3.4926 -2.5746  1.0353
 1650SOL     OW 9796   9.482   2.911   2.690  0.0564 -0.1389  0.0085
 1650SOL    HW1 9797   9.542   2.985   2.700 -0.0005 -0.2099  0.9465
 1650SOL    HW2 9798   9.401   2.939   2.732  0.3516 -1.0904  1.2476
 1651SOL     OW 9799   1.159   3.228   1.440 -0.3156  0.5327  0.2756
 1651SOL    HW1 9800   1.135   3.268   1.356  0.6153  1.1267  0.2956
 1651SOL    HW2 9801   1.126   3.138   1.433  1.3567  0.0142 -1.4632
 1652SOL     OW 9802   0.147   3.249   2.214  0.3109  0.0196  0.8902
 1652SOL    HW1 9803   0.225   3.277   2.263 -0.1906 -0.6961  2.1210
 1652SOL    HW2 9804   0.104   3.331   2.188 -0.6474  0.4392  3.6459
 1653SOL     OW 9805   0.336   0.290   2.135  0.1881 -0.2630  0.2527
 1653SOL    HW1 9806   0.250   0.260   2.108 -0.2138  0.8336  0.2822
 1653SOL    HW2 9807   0.398   0.241   2.080 -0.4504 -0.9520  0.1433
 1654SOL     OW 9808   0.823   1.517   1.563  0.4528 -0.8154 -0.2860
 1654SOL    HW1 9809   0.794   1.441   1.612 -3.6294  1.0922  0.4628
 1654SOL    HW2 9810   0.801   1.497   1.472 -2.1026  0.0214  0.1027
 1655SOL     OW 9811   2.455   3.682   3.676  0.9143  0.2794 -0.0921
 1655SOL    HW1 9812   2.486   3.751   3.734 -2.2388  0.4939  1.4393
 1655SOL    HW2 9813   2.425   3.728   3.598 -0.6145  0.5862  0.6743
 1656SOL     OW 9814   9.772   4.890   3.035  0.5241 -1.1478 -0.5650
 1656SOL    HW1 9815   9.866   4.873   3.039  0.6104 -0.5393 -0.0141
 1656SOL    HW2 9816   9.761   4.951   2.962  0.4874 -1.6882 -1.0128
 1657SOL     OW 9817   0.134   3.125   3.529 -0.0844  0.2440 -0.2831
 1657SOL    HW1 9818   0.154   3.186   3.458  2.9854 -0.9556 -0.5355
 1657SOL    HW2 9819   0.182   3.160   3.605 -1.1725  0.0564  0.4961
 1658SOL     OW 9820   0.405   4.282   3.870 -0.1900  0.5763 -0.3217
 1658SOL    HW1 9821   0.486   4.295   3.921 -0.2606  0.2794 -0.1332
 1658SOL    HW2 9822   0.339   4.334   3.916 -0.4386 -0.3181  0.3506
 1659SOL     OW 9823   0.706   9.112   3.864 -0.5211  0.1195 -0.2037
 1659SOL    HW1 9824   0.640   9.144   3.926 -0.4603 -2.7609  1.4108
 1659SOL    HW2 9825   0.724   9.188   3.808 -2.7668  1.9231  1.3986
 1660SOL     OW 9826   9.581   3.229   4.277  0.7054 -0.1792 -0.0276
 1660SOL    HW1 9827   9.515   3.161   4.296 -0.3743  1.1408  1.0733
 1660SOL    HW2 9828   9.539   3.285   4.212  0.8865  0.4300  0.3727
 1661SOL     OW 9829   0.521   3.904   4.090  0.2580  0.1327  0.0803
 1661SOL    HW1 9830   0.443   3.888   4.037 -0.6408 -0.1743  1.4751
 1661SOL    HW2 9831   0.517   3.837   4.159  0.5060  1.5841  1.5192
 1662SOL     OW 9832   0.601   2.593   4.570  0.0203 -0.4975 -0.0617
 1662SOL    HW1 9833   0.561   2.508   4.590 -0.9777  0.1133  0.5798
 1662SOL    HW2 9834   0.530   2.656   4.584  0.8118  0.4581 -0.3554
 1663SOL     OW 9835   1.439   2.766   3.483 -0.3189 -0.4206  0.5654
 1663SOL    HW1 9836   1.363   2.749   3.428 -0.5913 -1.2017  1.1762
 1663SOL    HW2 9837   1.420   2.849   3.525  0.1698  0.5000 -0.9868
 1664SOL     OW 9838   0.724   2.743   3.392 -0.0803 -0.0757  0.3108
 1664SOL    HW1 9839   0.816   2.723   3.410 -0.0789 -0.0663  0.3143
 1664SOL    HW2 9840   0.677   2.663   3.417 -0.0490 -0.1637  0.0909
 1665SOL     OW 9841   0.978   4.971   1.546 -0.2485 -0.0802  0.2077
 1665SOL    HW1 9842   1.008   5.055   1.511 -0.1463 -0.5765 -0.8889
 1665SOL    HW2 9843   0.997   4.908   1.477  0.9388 -1.2442  1.5830
 1666SOL     OW 9844   9.891   3.027   2.123 -0.3838 -0.2052  0.5050
 1666SOL    HW1 9845   9.900   2.959   2.189 -1.9062 -0.7625  0.1714
 1666SOL    HW2 9846   9.916   3.108   2.167  0.6118 -0.8617  1.1499
 1667SOL     OW 9847   0.283   3.180   3.283  0.3414  0.1858  0.2973
 1667SOL    HW1 9848   0.298   3.101   3.335 -0.1541  0.3741  0.7309
 1667SOL    HW2 9849   0.248   3.147   3.199  2.3395 -0.1973 -0.4078
 1668SOL     OW 9850   2.237   1.492   2.488  0.3244  0.0386  0.4980
 1668SOL    HW1 9851   2.242   1.420   2.551 -1.0774  0.2154  0.8345
 1668SOL    HW2 9852   2.255   1.452   2.404 -0.5436 -0.7384  0.6756
 1669SOL     OW 9853   1.036   2.521   2.792  0.5662 -0.2114 -0.5181
 1669SOL    HW1 9854   0.993   2.455   2.736  2.5136  0.3651 -2.7607
 1669SOL    HW2 9855   1.120   2.481   2.815  1.6063  1.3032 -1.6037
 1670SOL     OW 9856   2.712   1.731   3.943 -0.2941 -0.4816 -0.0401
 1670SOL    HW1 9857   2.797   1.689   3.957 -1.0438 -1.6203  1.2840
 1670SOL    HW2 9858   2.692   1.716   3.851 -0.1053 -2.2507  0.1919
 1671SOL     OW 9859   9.112   3.227   4.111 -0.0593  0.0387  0.6329
 1671SOL    HW1 9860   9.060   3.285   4.055 -0.8717 -2.4926 -1.3224
 1671SOL    HW2 9861   9.048   3.169   4.152  0.9306 -1.0322  0.7002
 1672SOL     OW 9862   0.241   1.842   3.325 -0.2481  0.0533  0.5623
 1672SOL    HW1 9863   0.223   1.930   3.292 -1.1291  0.1932  1.3832
 1672SOL    HW2 9864   0.222   1.847   3.419  0.5273 -0.7907  0.7846
 1673SOL     OW 9865   0.313   3.731   4.936 -0.4785 -0.1229 -0.3827
 1673SOL    HW1 9866   0.225   3.694   4.942  0.2598 -2.0598 -1.1665
 1673SOL    HW2 9867   0.341   3.740   5.027 -1.1112 -0.3810 -0.1613
 1674SOL     OW 9868   1.440   2.969   2.715 -0.4080 -0.1584 -0.2630
 1674SOL    HW1 9869   1.441   2.875   2.728  0.9149 -0.1702 -0.4421
 1674SOL    HW2 9870   1.409   2.980   2.625  1.8615 -0.5310 -1.1116
 1675SOL     OW 9871   0.727   3.247   2.071  0.1488  0.6926  0.2925
 1675SOL    HW1 9872   0.632   3.236   2.069  0.4232 -1.7109 -0.7279
 1675SOL    HW2 9873   0.756   3.195   2.146  0.5506  2.5275  1.4405
 1676SOL     OW 9874   0.117   4.236   2.044  0.3338  0.3226  0.0754
 1676SOL    HW1 9875   0.054   4.206   1.979 -1.5814 -2.2631  3.0045
 1676SOL    HW2 9876   0.080   4.317   2.079  0.1282  0.3665 -0.2418
 1677SOL     OW 9877   0.177   2.960   1.812 -0.3184 -0.0790  0.0570
 1677SOL    HW1 9878   0.201   2.980   1.721 -0.7250  1.1213  0.2064
 1677SOL    HW2 9879   0.086   2.990   1.819 -0.3542 -0.3693  0.7974
 1678SOL     OW 9880   9.886   3.042   2.929  0.1975 -0.1320  0.2225
 1678SOL    HW1 9881   9.964   3.017   2.879  1.2568  2.0210  0.7214
 1678SOL    HW2 9882   9.831   3.088   2.866 -0.1159 -0.5938  0.1610
 1679SOL     OW 9883   0.514   1.861   3.228 -0.0014  0.3203 -0.4079
 1679SOL    HW1 9884   0.432   1.861   3.276  0.3695  0.9993  0.2453
 1679SOL    HW2 9885   0.490   1.842   3.137 -1.3462  4.4148 -1.0125
 1680SOL     OW 9886   0.244   3.049   3.938 -0.4196  0.2183  0.1944
 1680SOL    HW1 9887   0.234   3.138   3.971 -2.2232  0.5500 -1.1674
 1680SOL    HW2 9888   0.258   2.996   4.016 -0.5161  1.5264  1.1244
 1681SOL     OW 9889   1.640   1.352   3.080  0.1073  0.4711  0.1446
 1681SOL    HW1 9890   1.550   1.319   3.085  0.4842 -0.5808  0.0898
 1681SOL    HW2 9891   1.674   1.340   3.169  0.0909  1.1630  0.2442
 1682SOL     OW 9892   1.237   0.973   3.359 -0.3905  0.5100  0.0838
 1682SOL    HW1 9893   1.230   0.919   3.438  2.8489 -2.0626 -1.2847
 1682SOL    HW2 9894   1.152   0.963   3.316 -1.6060  0.5945  2.3674
 1683SOL     OW 9895   1.229   3.340   4.109  0.1571  0.0192  0.5810
 1683SOL    HW1 9896   1.224   3.418   4.165 -0.0711  2.4086 -2.5855
 1683SOL    HW2 9897   1.160   3.354   4.044 -1.3181 -3.9321  1.1767
 1684SOL     OW 9898   1.932   2.901   3.690  0.3860 -0.0214 -0.5234
 1684SOL    HW1 9899   1.855   2.857   3.654 -0.1955  3.0032 -3.2184
 1684SOL    HW2 9900   2.007   2.849   3.660 -0.3786 -0.5438 -1.5382
 1685SOL     OW 9901   9.843   3.271   3.537 -0.6127 -0.3768 -0.1066
 1685SOL    HW1 9902   9.861   3.194   3.484  0.0361 -0.9496  0.9400
 1685SOL    HW2 9903   9.883   3.252   3.622 -0.3343  1.1514  0.1207
 1686SOL     OW 9904   1.614   0.826   2.355  0.5280  0.0134 -0.0521
 1686SOL    HW1 9905   1.612   0.902   2.296 -2.3925  0.7559  0.9117
 1686SOL    HW2 9906   1.624   0.864   2.442  1.7429 -0.8914  0.2111
 1687SOL     OW 9907   0.941   1.232   2.942 -0.6468 -0.8404  0.3639
 1687SOL    HW1 9908   1.013   1.233   2.879 -0.0006 -0.5024  1.0944
 1687SOL    HW2 9909   0.899   1.147   2.929  0.0063 -1.1202  0.0666
 1688SOL     OW 9910   2.936   2.292   2.087 -0.4447 -0.2534 -0.1142
 1688SOL    HW1 9911   2.979   2.207   2.098  0.8469  0.3820 -0.1509
 1688SOL    HW2 9912   2.936   2.307   1.993 -2.0666 -0.9071 -0.2316
 1689SOL     OW 9913   9.556   2.008   2.220 -0.1314 -0.4713 -0.1124
 1689SOL    HW1 9914   9.554   1.914   2.234  0.1882 -0.7688 -1.8724
 1689SOL    HW2 9915   9.473   2.027   2.174 -0.9431  0.3636  1.6518
 1690SOL     OW 9916   0.766   1.413   3.019  0.2067 -0.6347  0.0836
 1690SOL    HW1 9917   0.696   1.359   3.056 -0.7036  0.3331 -0.2138
 1690SOL    HW2 9918   0.842   1.355   3.019  0.0770 -0.9010  2.8292
 1691SOL     OW 9919   1.688   1.720   3.923  0.4106 -0.3831  0.1511
 1691SOL    HW1 9920   1.612   1.726   3.980 -0.2314  0.3775 -0.7616
 1691SOL    HW2 9921   1.651   1.711   3.835  1.3785 -0.5663 -0.2481
 1692SOL     OW 9922   0.906   3.565   2.955 -0.8999 -0.0250  0.2896
 1692SOL    HW1 9923   0.926   3.629   3.023 -1.0942 -0.4601  0.7570
 1692SOL    HW2 9924   0.886   3.484   3.002 -1.3353 -0.2519 -0.2668
 1693SOL     OW 9925   0.743   4.155   1.375  0.8770  0.1853 -0.2930
 1693SOL    HW1 9926   0.779   4.151   1.464  0.9908  0.0385 -0.3451
 1693SOL    HW2 9927   0.808   4.204   1.325  0.4995  0.8458 -0.1465
 1694SOL     OW 9928   0.768   4.653   2.336 -0.3556  0.7232  0.3653
 1694SOL    HW1 9929   0.860   4.640   2.311 -0.3587  2.3263 -0.5727
 1694SOL    HW2 9930   0.773   4.705   2.416 -0.4488  1.3916 -0.0604
 1695SOL     OW 9931   8.786   3.572   1.527 -0.2279  0.0833 -0.3620
 1695SOL    HW1 9932   8.824   3.540   1.445  0.3648  0.0351 -0.0734
 1695SOL    HW2 9933   8.825   3.516   1.594  0.0957  0.8166  0.0572
 1696SOL     OW 9934   1.942   3.451   3.310 -0.5040 -0.2961  0.3832
 1696SOL    HW1 9935   1.983   3.505   3.242  0.8956  0.8036  2.0565
 1696SOL    HW2 9936   1.849   3.450   3.287 -0.2392  1.1036 -0.8270
 1697SOL     OW 9937   1.100   3.125   3.172  0.5572  0.7075  0.3417
 1697SOL    HW1 9938   1.042   3.184   3.220 -0.3229  0.9647 -1.0204
 1697SOL    HW2 9939   1.042   3.057   3.138  1.3467 -0.1179  0.6169
 1698SOL     OW 9940   0.068   2.044   5.265  0.1863  0.0198  0.0988
 1698SOL    HW1 9941  -0.002   2.100   5.299  0.2866 -0.0867  0.4720
 1698SOL    HW2 9942   0.116   2.100   5.204  0.4309  0.4078  0.6529
 1699SOL     OW 9943   9.391   3.119   3.174  0.6421 -0.2687 -0.3032
 1699SOL    HW1 9944   9.407   3.097   3.266  2.5035 -0.0219 -0.5475
 1699SOL    HW2 9945   9.299   3.097   3.160  0.5450 -1.0542  1.4059
 1700SOL     OW 9946   1.839   3.781   4.046  0.0568 -0.0937  0.0708
 1700SOL    HW1 9947   1.850   3.860   3.993 -1.6892 -1.2315 -2.0987
 1700SOL    HW2 9948   1.745   3.765   4.046  0.2402 -1.2802  1.8377
 1701SOL     OW 9949   1.367   2.925   0.541 -0.3875  1.1543  0.1560
 1701SOL    HW1 9950   1.309   2.860   0.500  1.0148  0.2047 -0.3570
 1701SOL    HW2 9951   1.351   3.006   0.493 -2.5084  1.3453  1.1099
 1702SOL     OW 9952   9.690   3.439   3.133  0.4924 -0.2794 -1.0884
 1702SOL    HW1 9953   9.702   3.344   3.130  1.2499 -0.2250 -0.1028
 1702SOL    HW2 9954   9.777   3.475   3.115  0.1367  0.2347 -1.7967
 1703SOL     OW 9955   1.146   1.828   2.832 -0.5101  0.0012  0.0234
 1703SOL    HW1 9956   1.158   1.857   2.742 -0.5188  0.8109  0.2798
 1703SOL    HW2 9957   1.114   1.738   2.825  1.0761 -0.5112 -0.7559
 1704SOL     OW 9958   2.841   2.750   2.351  0.2163  0.2513 -0.2686
 1704SOL    HW1 9959   2.872   2.675   2.300 -1.1866  1.1410 -2.4669
 1704SOL    HW2 9960   2.838   2.718   2.441  1.4912 -1.7383 -0.9025
 1705SOL     OW 9961   1.640   4.028   2.421  0.3289 -0.4478 -0.1187
 1705SOL    HW1 9962   1.571   4.032   2.488 -0.8933  0.6246 -1.4211
 1705SOL    HW2 9963   1.659   4.120   2.401  0.9426 -0.7626 -0.9983
 1706SOL     OW 9964   1.220   3.528   3.451 -0.0398  0.0864  0.4434
 1706SOL    HW1 9965   1.236   3.623   3.452  0.4181  0.0019  1.3542
 1706SOL    HW2 9966   1.278   3.493   3.518 -0.2095 -0.8467  0.1095
 1707SOL     OW 9967   9.569   3.538   2.737 -0.1270 -0.0385  0.0649
 1707SOL    HW1 9968   9.597   3.602   2.802  0.0687 -0.2446  0.1852
 1707SOL    HW2 9969   9.650   3.503   2.701 -0.2226 -0.7247  0.5044
 1708SOL     OW 9970   2.130   4.164   3.855 -0.1191  0.0935  0.2131
 1708SOL    HW1 9971   2.073   4.212   3.795 -1.2030  0.4636  1.5260
 1708SOL    HW2 9972   2.091   4.076   3.858  0.3385 -0.1235 -0.1528
 1709SOL     OW 9973   1.817   2.308   3.174  0.1560  0.0904  0.3977
 1709SOL    HW1 9974   1.774   2.352   3.101  0.9258  0.9569  0.4712
 1709SOL    HW2 9975   1.909   2.303   3.149 -0.1267 -2.7801 -0.2588
 1710SOL     OW 9976   1.268   4.333   1.838 -0.2124  0.3320 -0.2557
 1710SOL    HW1 9977   1.181   4.333   1.877 -0.6512  0.2978 -1.2463
 1710SOL    HW2 9978   1.322   4.288   1.903 -1.4922 -2.1733 -0.8720
 1711SOL     OW 9979   0.428   4.383   3.109 -0.1630  0.5299  0.0499
 1711SOL    HW1 9980   0.402   4.362   3.019  1.2736  0.4703 -0.3617
 1711SOL    HW2 9981   0.509   4.433   3.099  0.0231  0.4785  1.3230
 1712SOL     OW 9982   1.000   4.192   3.064  0.7015 -0.3070 -0.0119
 1712SOL    HW1 9983   1.089   4.167   3.090  0.4183 -1.7488 -0.3884
 1712SOL    HW2 9984   0.998   4.287   3.074  2.5689 -0.1544 -0.8058
 1713SOL     OW 9985   1.260   3.526   3.146 -0.0579  0.0345 -0.1881
 1713SOL    HW1 9986   1.285   3.517   3.055  3.0026  0.8381  0.5266
 1713SOL    HW2 9987   1.258   3.436   3.180  2.6491 -0.0397 -0.1128
 1714SOL     OW 9988   0.594   3.048   0.660  0.2702 -0.3448 -0.4268
 1714SOL    HW1 9989   0.571   3.071   0.750  2.8106  0.4309  0.0719
 1714SOL    HW2 9990   0.640   2.964   0.668  0.7412 -0.1407 -0.9542
 1715SOL     OW 9991   0.551   1.682   3.622  0.0016  0.0386 -0.3647
 1715SOL    HW1 9992   0.562   1.654   3.531 -0.2887 -1.7054  0.1178
 1715SOL    HW2 9993   0.466   1.645   3.648  1.0096 -1.2153  1.2278
 1716SOL     OW 9994   0.312   2.693   1.796 -0.2412  0.3035 -0.2024
 1716SOL    HW1 9995   0.254   2.766   1.817  2.0293  1.7941  1.0955
 1716SOL    HW2 9996   0.361   2.723   1.719 -1.6862 -1.2752 -1.8036
 1717SOL     OW 9997   9.679   5.104   0.462  0.4029 -0.0578  0.6518
 1717SOL    HW1 9998   9.600   5.098   0.515 -0.0083 -2.1062 -0.1470
 1717SOL    HW2 9999   9.681   5.022   0.412  1.8301  0.9461 -1.0132
 1718SOL     OW10000   1.099   1.177   3.584  0.3328  0.5344 -0.1333
 1718SOL    HW110001   1.063   1.183   3.496 -2.4284  2.1094  1.0017
 1718SOL    HW210002   1.102   1.267   3.615  0.6854 -0.0452  1.5911
 1719SOL     OW10003   1.013   3.314   2.025  0.1956  0.7850  0.0925
 1719SOL    HW110004   0.929   3.267   2.023  1.1731 -0.9752 -2.3184
 1719SOL    HW210005   0.993   3.396   2.070 -2.5620 -0.0593  0.5509
 1720SOL     OW10006   0.598   1.994   1.926  0.0155 -0.6347  0.3329
 1720SOL    HW110007   0.593   2.020   2.018  0.1648  0.7955 -0.0596
 1720SOL    HW210008   0.686   2.019   1.899 -0.3419 -0.2085 -0.4452
 1721SOL     OW10009   9.267   3.722   3.545  0.2168 -0.1488  0.5389
 1721SOL    HW110010   9.183   3.679   3.561  0.6196 -1.4540 -0.8449
 1721SOL    HW210011   9.290   3.698   3.456  1.6387  0.9410  0.6000
 1722SOL     OW10012   1.672   3.404   3.237 -0.3981  0.7345 -0.0346
 1722SOL    HW110013   1.667   3.402   3.142 -2.8027  0.5876  0.0731
 1722SOL    HW210014   1.639   3.318   3.265 -0.5477  1.1051  0.9504
 1723SOL     OW10015   1.711   3.323   2.552 -0.6148  0.6646  0.0236
 1723SOL    HW110016   1.660   3.368   2.485  0.8462  0.7209 -1.0720
 1723SOL    HW210017   1.760   3.256   2.504 -2.0933 -1.5209  1.5068
 1724SOL     OW10018   2.017   2.453   4.600  0.0792 -0.1038  0.0917
 1724SOL    HW110019   1.978   2.502   4.672 -0.7741 -0.1042 -0.3539
 1724SOL    HW210020   1.967   2.371   4.597  1.5552 -1.0448  0.8883
 1725SOL     OW10021   9.904   3.121   1.010 -0.7625 -0.5231 -0.3802
 1725SOL    HW110022   9.923   3.137   1.102 -0.9845  1.9332 -0.7486
 1725SOL    HW210023   9.844   3.046   1.011  1.9126 -2.7518  1.2350
 1726SOL     OW10024   2.055   3.762   4.229 -0.0302 -0.5846  0.3148
 1726SOL    HW110025   2.037   3.835   4.289 -0.6918 -0.4680 -0.0141
 1726SOL    HW210026   1.989   3.771   4.161 -0.1492 -1.5253  0.2973
 1727SOL     OW10027   1.367   3.935   0.834 -0.3156  0.1088 -0.0192
 1727SOL    HW110028   1.274   3.925   0.854  0.0374  0.2374  1.7180
 1727SOL    HW210029   1.398   3.846   0.820 -0.5953  0.0328 -0.1635
 1728SOL     OW10030   9.621   2.949   3.394 -0.2725 -0.2188 -0.1153
 1728SOL    HW110031   9.536   2.993   3.399 -0.2563 -0.0128 -1.4987
 1728SOL    HW210032   9.601   2.858   3.417 -0.4150  0.3309  2.0845
 1729SOL     OW10033   1.218   1.763   1.100 -0.4893  0.4392  0.2880
 1729SOL    HW110034   1.289   1.749   1.162  0.1780 -0.6959 -0.7200
 1729SOL    HW210035   1.260   1.798   1.022 -0.9390 -0.8497 -0.5490
 1730SOL     OW10036   0.098   0.782   3.567 -0.1007 -0.0565 -0.7520
 1730SOL    HW110037   0.186   0.773   3.531 -0.8357  0.4107 -2.6997
 1730SOL    HW210038   0.047   0.715   3.523 -0.9014  0.1879 -0.2012
 1731SOL     OW10039   8.907   2.484   1.829 -0.2509  0.1449 -0.2500
 1731SOL    HW110040   8.910   2.564   1.881 -0.5614 -0.4730  0.7489
 1731SOL    HW210041   8.908   2.414   1.894 -0.7415 -0.6441 -1.0771
 1732SOL     OW10042   1.547   2.784   0.947  0.2608  0.6035 -0.2938
 1732SOL    HW110043   1.503   2.857   0.990 -1.8214 -0.8591  0.1953
 1732SOL    HW210044   1.586   2.734   1.019  0.6041  0.5572 -0.5113
 1733SOL     OW10045   0.085   4.257   4.431  0.2500 -0.1135 -0.7248
 1733SOL    HW110046   0.081   4.184   4.369  1.1021 -0.4307 -0.4058
 1733SOL    HW210047   0.149   4.317   4.394 -1.0616  0.8856 -1.4175
 1734SOL     OW10048   1.448   4.274   1.495  0.0657 -0.4858  0.1625
 1734SOL    HW110049   1.480   4.348   1.546 -0.6415 -0.3993  0.4967
 1734SOL    HW210050   1.411   4.214   1.560  0.1445 -0.8781 -0.1518
 1735SOL     OW10051   1.194   2.576   4.657 -0.1991 -0.4743 -0.1007
 1735SOL    HW110052   1.138   2.587   4.580  0.6127  1.2597 -0.4731
 1735SOL    HW210053   1.196   2.663   4.698  3.2850 -0.0867 -0.8871
 1736SOL     OW10054   0.666   4.373   2.313 -0.0156 -0.0320 -0.2501
 1736SOL    HW110055   0.680   4.468   2.314  0.0450 -0.0233 -1.1459
 1736SOL    HW210056   0.753   4.336   2.323 -0.1724 -0.0069  1.3625
 1737SOL     OW10057   0.841   2.357   3.058 -0.2163 -0.1693  0.1374
 1737SOL    HW110058   0.764   2.344   3.112  0.5326 -1.9089  0.8223
 1737SOL    HW210059   0.824   2.305   2.979  0.5324 -1.1119  0.5868
 1738SOL     OW10060   1.727   2.476   3.647 -0.1808 -0.2147  0.5822
 1738SOL    HW110061   1.655   2.433   3.600  0.0040 -0.5149  0.5763
 1738SOL    HW210062   1.683   2.534   3.710 -0.4278  0.6712 -0.4015
 1739SOL     OW10063   1.110   1.273   3.132 -0.3461 -0.6698 -0.2180
 1739SOL    HW110064   1.033   1.288   3.076 -0.4972 -1.5878 -0.2606
 1739SOL    HW210065   1.085   1.200   3.188  0.4399 -0.8529 -0.1064
 1740SOL     OW10066   1.878   2.806   2.502 -0.0325 -0.7649  0.0682
 1740SOL    HW110067   1.827   2.784   2.424  1.1689  0.4322 -1.0909
 1740SOL    HW210068   1.908   2.722   2.535 -0.5564 -1.2893 -0.7745
 1741SOL     OW10069   0.399   2.008   3.918 -0.2553 -0.0825  0.0020
 1741SOL    HW110070   0.419   2.055   3.836 -2.1664  0.8260  0.0340
 1741SOL    HW210071   0.367   1.923   3.890 -0.6493  0.1291 -0.1987
 1742SOL     OW10072   0.249   4.137   2.951  1.2883  0.3479  0.3349
 1742SOL    HW110073   0.171   4.128   2.898  1.1915 -0.0779  0.5486
 1742SOL    HW210074   0.318   4.093   2.901  1.3237  0.4615  0.2848
 1743SOL     OW10075   0.875   2.691   3.178  0.7489  0.0275  0.2945
 1743SOL    HW110076   0.791   2.658   3.207 -0.2216  1.8019 -0.4120
 1743SOL    HW210077   0.923   2.614   3.147 -1.3180 -0.7480 -1.0308
 1744SOL     OW10078   0.394   2.644   3.331  0.4715 -0.1863  0.3668
 1744SOL    HW110079   0.347   2.580   3.385  1.3858 -0.5419  0.7436
 1744SOL    HW210080   0.481   2.605   3.318  0.4184  0.1209 -0.9482
 1745SOL     OW10081   0.674   2.917   2.549 -0.1849 -0.3537  0.6907
 1745SOL    HW110082   0.588   2.880   2.569  0.1646 -1.3365  0.4122
 1745SOL    HW210083   0.735   2.843   2.557  0.3877 -0.0699 -0.8731
 1746SOL     OW10084   1.521   2.651   4.659 -0.5392 -0.0131  0.1841
 1746SOL    HW110085   1.534   2.692   4.745  0.6424 -2.1427  1.0627
 1746SOL    HW210086   1.426   2.646   4.650 -0.6827 -0.6359  1.8207
 1747SOL     OW10087   0.526   1.136   2.688  0.4664 -0.0044 -0.3060
 1747SOL    HW110088   0.530   1.077   2.764 -1.3285 -0.0381 -0.2079
 1747SOL    HW210089   0.616   1.162   2.673  1.0051 -1.0202  1.0557
 1748SOL     OW10090   2.284   1.767   3.758  0.2689  0.2375  0.8178
 1748SOL    HW110091   2.212   1.808   3.710  1.3374  1.5757  0.3535
 1748SOL    HW210092   2.363   1.805   3.721  1.2393 -1.2614  1.3024
 1749SOL     OW10093   0.277   2.135   3.306  0.2755 -0.0161  0.1995
 1749SOL    HW110094   0.245   2.184   3.382  0.3424  1.4214 -0.6665
 1749SOL    HW210095   0.200   2.127   3.249  0.6472  0.4647 -0.3702
 1750SOL     OW10096   0.608   2.691   4.310  0.6670 -0.0380  0.6145
 1750SOL    HW110097   0.652   2.774   4.325  0.3778  0.2063  0.1186
 1750SOL    HW210098   0.631   2.637   4.386  1.0404  0.4133  0.8187
 1751SOL     OW10099   1.136   2.809   4.319  0.2984 -0.2251 -0.1379
 1751SOL    HW110100   1.181   2.868   4.380  2.0998  0.1607 -1.8129
 1751SOL    HW210101   1.136   2.856   4.236  0.5925 -2.0538 -1.1788
 1752SOL     OW10102   9.806   3.307   2.085 -0.3166  0.6586 -0.1330
 1752SOL    HW110103   9.800   3.377   2.020  0.4755 -0.1841 -1.1264
 1752SOL    HW210104   9.827   3.228   2.034 -0.0410 -0.0794  1.0988
 1753SOL     OW10105   9.061   2.262   3.127  0.6169  0.2574 -0.3825
 1753SOL    HW110106   9.037   2.172   3.108  1.3732 -0.4034  1.6867
 1753SOL    HW210107   8.988   2.296   3.179  0.6984  0.6091 -0.4919
 1754SOL     OW10108   0.958   0.073   1.923 -0.2986  0.8178  0.2099
 1754SOL    HW110109   0.963   0.109   1.834  1.9309  2.0932  0.8093
 1754SOL    HW210110   1.009  -0.008   1.918 -1.6840 -0.0434 -0.0953
 1755SOL     OW10111   1.892   1.677   4.744  0.0497  0.0505  0.0773
 1755SOL    HW110112   1.949   1.683   4.820 -1.7633  0.1454  1.4498
 1755SOL    HW210113   1.859   1.587   4.745  0.4070 -0.1063 -0.8990
 1756SOL     OW10114   1.437   2.966   4.179  0.5073 -0.3586 -0.0715
 1756SOL    HW110115   1.489   3.044   4.163  0.2637 -0.2825 -0.4873
 1756SOL    HW210116   1.350   3.000   4.203  0.6407 -0.4833  0.6104
 1757SOL     OW10117   9.174   2.783   1.336  0.5627  0.1305 -0.2921
 1757SOL    HW110118   9.201   2.693   1.354  0.0414  0.0397  0.0484
 1757SOL    HW210119   9.160   2.821   1.423 -2.1542 -0.3617 -0.4769
 1758SOL     OW10120   1.051   3.888   3.424  0.0939 -0.0040 -0.3157
 1758SOL    HW110121   1.137   3.856   3.396  0.5642  0.8066  0.1804
 1758SOL    HW210122   1.062   3.983   3.433 -1.2072  0.2908 -1.5215
 1759SOL     OW10123   2.207   8.224   5.518 -0.1171 -0.3002  0.1869
 1759SOL    HW110124   2.134   8.163   5.525 -0.7745  0.3213 -1.0586
 1759SOL    HW210125   2.197   8.263   5.431 -0.6764  2.7672  1.5497
 1760SOL     OW10126   1.715   2.994   3.869 -0.4056  0.0516  0.9483
 1760SOL    HW110127   1.757   3.055   3.930 -0.9559  0.7304  0.6545
 1760SOL    HW210128   1.787   2.961   3.815 -0.2134  1.0147  0.6119
 1761SOL     OW10129   1.538   2.796   4.881 -0.3148 -0.1163 -0.4893
 1761SOL    HW110130   1.528   2.881   4.838  1.0801  1.0528  1.4298
 1761SOL    HW210131   1.625   2.800   4.922 -0.1715 -2.5283 -0.4907
 1762SOL     OW10132   1.288   2.108   4.761 -0.8885 -0.0515  0.1115
 1762SOL    HW110133   1.202   2.067   4.751 -1.0052  0.1643  0.2199
 1762SOL    HW210134   1.269   2.202   4.765 -0.5223  0.0961 -1.3658
 1763SOL     OW10135   2.874   2.793   3.979  0.0780 -0.2510  0.7356
 1763SOL    HW110136   2.806   2.750   3.926  0.9324 -0.0137 -0.5762
 1763SOL    HW210137   2.946   2.730   3.981  0.3154  0.0267  1.0545
 1764SOL     OW10138   0.583   3.744   4.590 -0.1763  0.6473  0.0304
 1764SOL    HW110139   0.623   3.708   4.511 -0.5800  0.5408 -0.1281
 1764SOL    HW210140   0.570   3.668   4.647  0.0077  0.7072  0.1532
 1765SOL     OW10141   0.140   2.736   5.496  0.5176 -0.4292 -0.8910
 1765SOL    HW110142   0.046   2.750   5.485  0.9623  1.9945 -1.8612
 1765SOL    HW210143   0.179   2.773   5.417  2.4587  0.8452  0.6229
 1766SOL     OW10144   0.738   3.014   4.673 -0.1236  0.0187  0.2338
 1766SOL    HW110145   0.780   3.060   4.746 -0.6755  1.3971 -0.3063
 1766SOL    HW210146   0.788   2.933   4.664  2.2206  1.4721 -0.1696
 1767SOL     OW10147   1.781   2.373   6.231  0.4943  0.0019  0.0828
 1767SOL    HW110148   1.770   2.289   6.186 -0.6020 -0.5319  1.3264
 1767SOL    HW210149   1.875   2.378   6.249  1.3478  1.2420 -4.1613
 1768SOL     OW10150   0.380   3.495   5.718  0.3714  0.3364  0.5983
 1768SOL    HW110151   0.412   3.576   5.679  0.3977 -0.1643 -0.4467
 1768SOL    HW210152   0.340   3.448   5.645 -1.0628  0.1071  1.4969
 1769SOL     OW10153   9.623   3.274   5.344 -0.0780 -0.7344 -0.0277
 1769SOL    HW110154   9.629   3.357   5.392  3.5217 -0.6345 -0.4646
 1769SOL    HW210155   9.652   3.296   5.255  0.3598 -2.3187 -0.2981
 1770SOL     OW10156   0.923   1.067   6.763  0.2706  0.7403  0.0217
 1770SOL    HW110157   0.857   1.136   6.759  0.1881  0.6184 -0.8051
 1770SOL    HW210158   0.960   1.064   6.675  2.3139  1.7160  0.8164
 1771SOL     OW10159   1.769   2.937   4.640  0.3573 -0.4467  0.2068
 1771SOL    HW110160   1.834   2.953   4.708  0.9104  2.1778 -0.8952
 1771SOL    HW210161   1.686   2.970   4.677  0.4650  0.0520  0.0072
 1772SOL     OW10162   0.004   2.724   5.063 -0.2224  0.8702  0.1129
 1772SOL    HW110163   0.097   2.720   5.083  0.4261  3.8268 -1.8982
 1772SOL    HW210164  -0.027   2.803   5.109 -1.4127  0.7358 -0.4286
 1773SOL     OW10165   0.300   3.742   5.916  0.4124 -0.3030  0.0482
 1773SOL    HW110166   0.355   3.676   5.874  1.5299 -0.3013  1.4940
 1773SOL    HW210167   0.254   3.695   5.985 -1.5750 -0.3455 -1.2510
 1774SOL     OW10168   9.513   4.925   4.058  0.5009  0.2555  0.2288
 1774SOL    HW110169   9.532   5.001   4.003 -1.2956  0.9871  0.5494
 1774SOL    HW210170   9.506   4.852   3.997 -2.0096  1.1513 -0.6481
 1775SOL     OW10171   0.384   1.898   4.660 -0.1084 -0.1234  0.4005
 1775SOL    HW110172   0.410   1.824   4.606 -0.6603  0.4259 -0.6381
 1775SOL    HW210173   0.292   1.914   4.636 -0.7584 -0.6427  2.3798
 1776SOL     OW10174   1.966   2.744   4.241 -0.1129  0.4111 -0.0728
 1776SOL    HW110175   2.026   2.674   4.266  0.9517  1.2713 -0.1601
 1776SOL    HW210176   1.901   2.746   4.311  0.6376  0.2544  0.6387
 1777SOL     OW10177   1.615   3.320   2.957  0.5258 -0.0361  0.0671
 1777SOL    HW110178   1.574   3.374   2.889  1.8034  0.1685 -0.5658
 1777SOL    HW210179   1.585   3.231   2.937  1.0581 -0.0110 -0.9233
 1778SOL     OW10180   9.804   3.794   4.787 -0.2051 -0.0430 -0.4259
 1778SOL    HW110181   9.887   3.839   4.804 -0.6249  0.4925  0.2306
 1778SOL    HW210182   9.818   3.747   4.705  0.0370  1.8060 -1.4603
 1779SOL     OW10183   3.528   2.460   3.762 -0.7846  0.6064  0.4613
 1779SOL    HW110184   3.445   2.427   3.727 -1.1697  1.2940  0.7145
 1779SOL    HW210185   3.557   2.524   3.697  1.4554 -2.3145 -1.5381
 1780SOL     OW10186   2.120   3.808   2.770 -0.0203  0.0291  0.0996
 1780SOL    HW110187   2.164   3.872   2.716  0.1470  1.2038  1.5946
 1780SOL    HW210188   2.027   3.817   2.749  0.1046  0.0485 -0.4324
 1781SOL     OW10189   0.268   2.926   6.006  0.7503  0.5174  0.3403
 1781SOL    HW110190   0.276   2.831   5.995 -0.2131  0.7196 -2.5803
 1781SOL    HW210191   0.175   2.939   6.027  0.7568  0.8324  0.1715
 1782SOL     OW10192   0.555   2.803   6.119 -0.7067 -0.2123  0.2238
 1782SOL    HW110193   0.584   2.882   6.073 -2.4026 -0.1654 -0.8354
 1782SOL    HW210194   0.534   2.833   6.208 -0.2735  0.2915  0.1578
 1783SOL     OW10195   0.606   2.057   4.659  0.4353 -0.4061 -0.3424
 1783SOL    HW110196   0.533   1.995   4.666 -0.0397  0.2501  0.6446
 1783SOL    HW210197   0.591   2.119   4.730  0.5675  1.1950 -1.6935
 1784SOL     OW10198   9.949   3.993   6.346 -0.0701  0.5276 -0.3227
 1784SOL    HW110199   9.891   4.066   6.322 -1.2664 -0.7615 -1.4548
 1784SOL    HW210200   9.908   3.955   6.423  0.5423  1.0284  0.2533
 1785SOL     OW10201   3.041   1.531   3.379  0.0407  0.3139 -0.1299
 1785SOL    HW110202   2.950   1.506   3.395 -0.0898  0.9953  0.1855
 1785SOL    HW210203   3.037   1.602   3.316  0.3781  0.1018 -0.3972
 1786SOL     OW10204   0.274   4.454   5.651 -0.4075  0.0298 -0.4594
 1786SOL    HW110205   0.289   4.530   5.707  1.8698 -0.6761 -0.0491
 1786SOL    HW210206   0.241   4.490   5.569  2.3432  1.6391 -0.9124
 1787SOL     OW10207   0.384   2.016   4.991  0.4903 -0.7322  0.1818
 1787SOL    HW110208   0.320   1.962   4.944 -1.3718 -0.6113  2.4767
 1787SOL    HW210209   0.420   1.957   5.057  2.9701 -0.8509 -1.2053
 1788SOL     OW10210   2.501   1.408   4.903  0.0602  0.9976  0.0568
 1788SOL    HW110211   2.457   1.456   4.974 -0.1595  0.9672 -0.0577
 1788SOL    HW210212   2.589   1.445   4.900  1.0258 -0.9764  2.2712
 1789SOL     OW10213   0.363   2.917   3.667  0.7955 -0.2018 -0.4387
 1789SOL    HW110214   0.413   2.836   3.658  0.8901 -0.0927 -0.8709
 1789SOL    HW210215   0.316   2.907   3.750  0.8447 -0.6780 -0.4694
 1790SOL     OW10216   1.404   1.406   2.842  0.0423 -0.6090  0.3997
 1790SOL    HW110217   1.386   1.427   2.751 -0.4415  1.1013  0.8720
 1790SOL    HW210218   1.398   1.311   2.847 -1.4215 -0.5924 -1.0309
 1791SOL     OW10219   2.237   3.994   5.938 -0.2475  0.2873 -0.0447
 1791SOL    HW110220   2.242   4.045   5.857  0.2287  0.0579 -0.1613
 1791SOL    HW210221   2.151   3.953   5.935  0.0385 -0.2882 -0.7844
 1792SOL     OW10222   9.888   0.010   5.176 -0.5493  0.1567  0.3110
 1792SOL    HW110223   9.874  -0.085   5.168 -0.7593  0.3323 -1.6413
 1792SOL    HW210224   9.977   0.024   5.144 -0.1948  0.5317  1.4340
 1793SOL     OW10225   1.407   2.130   5.035 -0.1455  0.3979 -0.4637
 1793SOL    HW110226   1.359   2.151   4.955 -0.9340  2.3476  0.4848
 1793SOL    HW210227   1.344   2.085   5.090  0.1071 -0.0565 -0.5448
 1794SOL     OW10228   9.904   1.715   4.729  0.3238 -0.6186  0.2189
 1794SOL    HW110229   9.870   1.804   4.716 -0.7030 -0.7932  1.6078
 1794SOL    HW210230   9.995   1.719   4.697  0.8664  1.4107  1.9095
 1795SOL     OW10231   0.854   2.424   4.382  0.5559 -0.0415 -0.3743
 1795SOL    HW110232   0.809   2.448   4.301 -0.3590 -1.1660 -0.2082
 1795SOL    HW210233   0.807   2.347   4.414  3.8392 -2.5971 -1.2959
 1796SOL     OW10234   9.350   2.987   4.468 -0.3598  0.0208 -0.4507
 1796SOL    HW110235   9.335   3.055   4.402  0.8647  1.2294  0.4881
 1796SOL    HW210236   9.421   2.934   4.432  0.0589  0.4613 -0.2801
 1797SOL     OW10237   0.469   4.779   4.454  0.4337  0.5719  0.3945
 1797SOL    HW110238   0.427   4.739   4.530 -1.5197  0.2079 -0.8190
 1797SOL    HW210239   0.560   4.752   4.459 -0.0332 -0.8318  1.6822
 1798SOL     OW10240   1.311   3.314   3.730  0.2328 -0.0129 -0.2299
 1798SOL    HW110241   1.250   3.305   3.657 -0.2915  1.7159 -0.0285
 1798SOL    HW210242   1.295   3.237   3.784 -0.5983 -0.4154 -1.0317
 1799SOL     OW10243   1.216   1.414   6.751 -0.1593 -0.1781 -0.1812
 1799SOL    HW110244   1.152   1.366   6.699 -0.5312  0.1170  0.0098
 1799SOL    HW210245   1.199   1.506   6.732 -0.0143 -0.0861  0.1308
 1800SOL     OW10246   2.601   1.756   3.660 -0.3311 -0.4661  0.2658
 1800SOL    HW110247   2.673   1.819   3.655 -0.6174 -0.1265  0.4013
 1800SOL    HW210248   2.546   1.776   3.584  1.6445 -3.1355 -1.9845
 1801SOL     OW10249   0.876   0.056   2.823  0.2789  0.4109 -0.6582
 1801SOL    HW110250   0.917   0.092   2.745 -0.0466 -0.0360 -1.0382
 1801SOL    HW210251   0.940  -0.005   2.859  0.3250  0.4240 -0.7192
 1802SOL     OW10252   0.708   2.948   4.345  0.0348 -0.0408  0.0599
 1802SOL    HW110253   0.727   2.954   4.438  2.1617  1.0843 -0.4187
 1802SOL    HW210254   0.639   3.012   4.329 -0.4473 -0.3540  0.8640
 1803SOL     OW10255   1.784   2.696   5.614 -0.0024  0.7966 -0.6486
 1803SOL    HW110256   1.728   2.737   5.548 -1.9153 -0.3519  0.2551
 1803SOL    HW210257   1.782   2.756   5.688 -1.2711  0.0049 -0.0416
 1804SOL     OW10258   0.004   3.485   6.521 -0.2288 -0.3159 -0.4499
 1804SOL    HW110259  -0.063   3.426   6.554 -0.8454  0.4193 -0.3778
 1804SOL    HW210260  -0.042   3.542   6.459  0.4347 -0.1440 -0.7951
 1805SOL     OW10261   0.978   4.493   3.987  0.3211  0.0664  0.0749
 1805SOL    HW110262   0.952   4.585   3.995  0.2646 -0.0242  1.0661
 1805SOL    HW210263   0.939   4.464   3.905  1.4243  1.2751 -0.8837
 1806SOL     OW10264   1.881   0.603   5.569 -0.1234 -0.2979 -0.0789
 1806SOL    HW110265   1.885   0.519   5.524 -1.2522 -0.4931  0.1819
 1806SOL    HW210266   1.797   0.603   5.614  1.2401 -0.3844  2.5862
 1807SOL     OW10267   0.217   3.165   5.231  0.1428 -0.2146  0.1691
 1807SOL    HW110268   0.167   3.083   5.226 -0.9070  0.4476 -0.3507
 1807SOL    HW210269   0.274   3.153   5.307  0.3305 -1.6070 -0.1615
 1808SOL     OW10270   1.070   3.713   3.177 -0.0491 -0.4054 -0.0943
 1808SOL    HW110271   1.128   3.787   3.160 -2.4673  1.3645 -0.8352
 1808SOL    HW210272   1.122   3.636   3.153  1.8407  1.1509 -1.1469
 1809SOL     OW10273   1.063   1.478   5.850 -0.1371  0.4869  0.0761
 1809SOL    HW110274   0.968   1.478   5.836 -0.3486  1.9002  1.4551
 1809SOL    HW210275   1.073   1.457   5.943  0.8359  2.1739  0.3554
 1810SOL     OW10276   0.717   2.225   4.475 -0.5372 -0.0463 -0.2002
 1810SOL    HW110277   0.682   2.158   4.534  0.3387  0.0936  0.4818
 1810SOL    HW210278   0.639   2.261   4.432 -1.0971 -0.8274  0.1452
 1811SOL     OW10279   0.326   4.511   4.245  0.0883 -0.5837  0.1029
 1811SOL    HW110280   0.359   4.601   4.252 -0.2720 -0.4485  0.0862
 1811SOL    HW210281   0.341   4.474   4.332 -1.0012 -0.0761  0.5187
 1812SOL     OW10282   0.661   1.200   4.756  0.3851  0.3865  0.4718
 1812SOL    HW110283   0.655   1.118   4.805 -0.6840 -0.2459 -0.7117
 1812SOL    HW210284   0.623   1.266   4.814 -1.2073 -0.4230  0.3441
 1813SOL     OW10285   8.645   4.210   4.178  0.2367  0.5071 -0.8480
 1813SOL    HW110286   8.608   4.141   4.123  0.1412 -1.2874  1.4215
 1813SOL    HW210287   8.574   4.236   4.236 -0.2959  3.8777 -2.8699
 1814SOL     OW10288   0.455   2.659   3.652  0.3973 -0.2291  0.0744
 1814SOL    HW110289   0.529   2.598   3.657  0.0967 -0.6359 -0.3733
 1814SOL    HW210290   0.386   2.608   3.609 -0.0412  0.2462  0.2239
 1815SOL     OW10291   2.095   1.000   5.782 -0.3312  0.2076  0.4182
 1815SOL    HW110292   2.000   0.998   5.777 -0.3174  0.7693 -0.2067
 1815SOL    HW210293   2.115   1.019   5.873 -0.8687  3.1349 -0.0315
 1816SOL     OW10294   0.455   2.312   4.430 -0.1380  0.3544 -0.5323
 1816SOL    HW110295   0.373   2.262   4.429 -0.5374  1.0177 -1.6464
 1816SOL    HW210296   0.436   2.391   4.379  0.9945  0.8403 -0.2229
 1817SOL     OW10297   0.671   1.726   5.141 -0.0200 -0.2319  0.0491
 1817SOL    HW110298   0.708   1.784   5.207 -2.1487 -0.2351  1.3134
 1817SOL    HW210299   0.576   1.743   5.145 -0.2333 -0.6120 -2.6400
 1818SOL     OW10300   1.351   0.275   6.938  0.2916 -0.6750 -0.3415
 1818SOL    HW110301   1.399   0.262   7.020  1.8880  2.2543 -0.7090
 1818SOL    HW210302   1.262   0.295   6.966  0.4839 -1.1078  0.6223
 1819SOL     OW10303   0.960   1.531   5.418  0.4894  0.2513 -0.3375
 1819SOL    HW110304   0.990   1.493   5.335 -1.0419  0.6023 -1.0729
 1819SOL    HW210305   1.019   1.605   5.434  0.8149  0.1568 -1.0797
 1820SOL     OW10306   1.685   4.356   5.445  0.3082  0.3071  0.5582
 1820SOL    HW110307   1.649   4.421   5.505 -1.1258 -1.2850  1.4922
 1820SOL    HW210308   1.659   4.272   5.483  1.0153 -0.7806 -1.2927
 1821SOL     OW10309   0.392   1.932   4.174  0.6616 -0.1563  0.5160
 1821SOL    HW110310   0.408   1.993   4.103  0.6814  0.0899  0.7317
 1821SOL    HW210311   0.366   1.851   4.131  1.2093 -0.1697  0.2054
 1822SOL     OW10312   0.762   2.740   3.728  0.1321  0.0339  0.1301
 1822SOL    HW110313   0.702   2.749   3.802  1.5820 -1.6019  1.5500
 1822SOL    HW210314   0.751   2.649   3.699 -0.1568  0.5528 -1.4396
 1823SOL     OW10315   9.985   4.224   4.907 -0.1869 -0.1013  0.2705
 1823SOL    HW110316  10.021   4.282   4.974 -3.9354  2.8053 -0.0686
 1823SOL    HW210317   9.922   4.170   4.954 -0.6934 -0.1030 -0.4128
 1824SOL     OW10318   0.130   1.432   3.246  0.0834  0.1999 -0.6499
 1824SOL    HW110319   0.090   1.513   3.280 -0.8446 -1.0208  1.2357
 1824SOL    HW210320   0.060   1.389   3.198  0.4544  0.3016 -1.2809
 1825SOL     OW10321   0.472   2.371   5.205 -0.9077  0.1364 -0.2619
 1825SOL    HW110322   0.509   2.292   5.246 -1.1553 -1.9591 -3.9069
 1825SOL    HW210323   0.536   2.396   5.139 -1.1103  2.7210  0.4626
 1826SOL     OW10324   1.634   1.390   6.357 -0.2240  0.4787  0.1853
 1826SOL    HW110325   1.669   1.325   6.418 -2.6069 -0.6550  0.4069
 1826SOL    HW210326   1.546   1.409   6.390 -1.5664 -0.1240 -2.8471
 1827SOL     OW10327   1.030   2.976   4.672  0.2680 -1.0933  0.3751
 1827SOL    HW110328   1.013   2.948   4.762  1.8764 -1.8144  0.4690
 1827SOL    HW210329   1.114   3.022   4.676  0.7420 -1.8061 -0.8708
 1828SOL     OW10330   1.728   9.884   5.705 -0.1731  0.2025 -0.2589
 1828SOL    HW110331   1.686   9.800   5.725  1.7593 -1.3754 -2.5084
 1828SOL    HW210332   1.809   9.884   5.756 -0.0216  0.5742 -0.4947
 1829SOL     OW10333   0.851   4.262   4.730 -0.3407 -0.2367 -0.1142
 1829SOL    HW110334   0.773   4.208   4.715 -0.6364  0.4996 -1.3159
 1829SOL    HW210335   0.836   4.301   4.816  0.4949 -3.0672  1.3793
 1830SOL     OW10336   0.414   1.430   5.343 -0.1791  0.3959  0.1309
 1830SOL    HW110337   0.395   1.376   5.267  0.0798  1.7770 -0.9266
 1830SOL    HW210338   0.329   1.442   5.386 -0.3139 -0.4373  0.1107
 1831SOL     OW10339   1.609   2.738   4.085 -0.5072  0.3053  0.7302
 1831SOL    HW110340   1.552   2.745   4.161  0.4453  0.0232  1.4818
 1831SOL    HW210341   1.663   2.817   4.088  1.2831 -0.9232  1.8144
 1832SOL     OW10342   0.758   3.994   3.920 -0.2491  0.6213 -0.4005
 1832SOL    HW110343   0.696   3.938   3.967  1.2975  0.0670  1.0536
 1832SOL    HW210344   0.720   4.082   3.926 -1.1596  0.2128 -0.0226
 1833SOL     OW10345   1.708   2.276   4.229 -0.0356 -0.1185  0.0587
 1833SOL    HW110346   1.732   2.218   4.302 -0.1480 -1.5486 -1.0154
 1833SOL    HW210347   1.615   2.258   4.215  0.1546 -0.3980 -0.8992
 1834SOL     OW10348   1.393   3.941   4.405  0.0887 -0.2110  0.4048
 1834SOL    HW110349   1.420   3.849   4.396  1.0672 -0.0197  1.3666
 1834SOL    HW210350   1.299   3.939   4.389  0.2373 -1.2529 -0.4758
 1835SOL     OW10351   1.238   1.444   3.781  0.5543 -0.8069 -0.3348
 1835SOL    HW110352   1.320   1.437   3.829 -0.0931  1.7647  1.2800
 1835SOL    HW210353   1.171   1.412   3.842  0.0140  0.0670 -0.4551
 1836SOL     OW10354   0.972   9.950   6.130 -0.2127 -0.9013  0.6880
 1836SOL    HW110355   0.897   9.891   6.128 -0.4950 -0.5837  1.6206
 1836SOL    HW210356   0.934  10.037   6.115  0.2778 -1.0176 -1.3184
 1837SOL     OW10357   1.433   2.728   4.404  0.2788  0.1509  0.4539
 1837SOL    HW110358   1.495   2.686   4.463  0.4951  0.9604  0.8090
 1837SOL    HW210359   1.379   2.656   4.371  0.8211 -0.4381  0.8381
 1838SOL     OW10360   1.955   2.592   6.978  0.0264 -1.0423  0.0516
 1838SOL    HW110361   2.006   2.557   6.905 -0.4490 -2.4366  0.3732
 1838SOL    HW210362   1.867   2.605   6.942 -0.1235 -1.4167  0.2796
 1839SOL     OW10363   9.749   2.294   4.544 -0.4127 -0.3904  0.1789
 1839SOL    HW110364   9.714   2.219   4.497 -1.1505  0.5656 -0.8340
 1839SOL    HW210365   9.675   2.355   4.550  0.7554  1.1933 -0.9988
 1840SOL     OW10366   1.802   1.150   5.227  0.2093  0.6137 -0.5539
 1840SOL    HW110367   1.799   1.245   5.227 -0.6205  0.6111  0.7846
 1840SOL    HW210368   1.726   1.123   5.175 -1.7744  0.7004  2.1794
 1841SOL     OW10369   0.550   2.920   5.443 -0.1206  0.1181  0.3532
 1841SOL    HW110370   0.603   2.953   5.516  0.2163  1.2744 -0.4039
 1841SOL    HW210371   0.603   2.850   5.405  0.1362  0.1665  0.6186
 1842SOL     OW10372   0.972   2.998   5.159 -0.1848  0.3840  0.6028
 1842SOL    HW110373   0.877   2.987   5.157 -0.0508 -0.7939  0.3486
 1842SOL    HW210374   0.985   3.088   5.186 -1.4071  1.2568 -1.5774
 1843SOL     OW10375   2.602   2.606   3.098  0.4791 -0.2856 -0.1385
 1843SOL    HW110376   2.661   2.668   3.056  0.1851  1.0311  1.3071
 1843SOL    HW210377   2.515   2.646   3.089  0.2486 -0.6149  0.5374
 1844SOL     OW10378   0.239   2.197   4.024  0.4215  0.3586  0.2300
 1844SOL    HW110379   0.157   2.175   3.981  0.0136  1.1673  0.5930
 1844SOL    HW210380   0.299   2.127   3.998 -0.1905  0.1264 -0.5783
 1845SOL     OW10381   2.201   1.685   6.154  0.1074  0.3958 -0.1270
 1845SOL    HW110382   2.286   1.651   6.181  0.5426  1.0817 -0.6088
 1845SOL    HW210383   2.145   1.674   6.231  0.9154  0.9174  0.5465
 1846SOL     OW10384   8.696   4.041   5.839 -0.1617 -0.6868 -0.3981
 1846SOL    HW110385   8.667   4.131   5.827  0.8170 -0.5433 -1.8843
 1846SOL    HW210386   8.616   3.991   5.853 -0.8561  0.1649 -1.2638
 1847SOL     OW10387   0.082   3.174   4.395  0.7098 -0.1271 -0.5732
 1847SOL    HW110388   0.172   3.208   4.389  0.4983  0.3641 -1.0302
 1847SOL    HW210389   0.092   3.087   4.434  1.4877 -0.5000 -1.5677
 1848SOL     OW10390   2.323   2.648   4.948  0.1272  0.4261  0.1067
 1848SOL    HW110391   2.303   2.561   4.914 -0.0486  1.1918 -1.8288
 1848SOL    HW210392   2.242   2.675   4.993 -0.3771  0.2248 -0.6698
 1849SOL     OW10393   0.857   1.916   3.671 -0.2555 -0.6310 -0.9251
 1849SOL    HW110394   0.915   1.953   3.738 -1.9018  2.2077 -1.0078
 1849SOL    HW210395   0.910   1.917   3.591  0.8050 -1.5144 -0.2473
 1850SOL     OW10396   1.072   4.321   4.546  0.2249 -0.0530  0.1786
 1850SOL    HW110397   0.987   4.307   4.587  0.1316 -2.0915 -0.6789
 1850SOL    HW210398   1.100   4.407   4.579 -2.2361  0.7572  0.2894
 1851SOL     OW10399   1.249   4.990   3.518  0.2419  0.4935  0.0484
 1851SOL    HW110400   1.168   5.029   3.551  1.0812  2.6887 -0.3802
 1851SOL    HW210401   1.220   4.924   3.455 -1.2348  0.0285  1.1878
 1852SOL     OW10402   0.350   3.425   4.992 -0.6254  0.7172 -0.2917
 1852SOL    HW110403   0.270   3.373   5.004  0.6313 -1.1851  0.0543
 1852SOL    HW210404   0.356   3.438   4.897  0.2057 -1.6854 -0.5981
 1853SOL     OW10405   0.753   2.201   6.023 -1.0215 -0.1600 -0.0400
 1853SOL    HW110406   0.828   2.221   6.080 -1.6932  1.2825  0.3432
 1853SOL    HW210407   0.774   2.243   5.940 -2.3334  2.0027  0.6992
 1854SOL     OW10408   1.881   1.072   5.478  0.4278 -0.1636 -0.0880
 1854SOL    HW110409   1.895   1.101   5.388 -0.3503  2.2397  0.5231
 1854SOL    HW210410   1.797   1.025   5.475  0.0105  0.5930 -0.4851
 1855SOL     OW10411   2.067   3.615   4.485  0.1672 -0.2505 -0.2835
 1855SOL    HW110412   1.992   3.594   4.541  1.9786 -1.0289  1.9322
 1855SOL    HW210413   2.033   3.679   4.422 -2.4144 -0.8074  0.5036
 1856SOL     OW10414   2.823   4.266   4.976 -0.1867  0.3042 -0.5892
 1856SOL    HW110415   2.807   4.254   4.882  0.5823  0.3879 -0.7365
 1856SOL    HW210416   2.739   4.293   5.012 -0.8218 -1.0306 -1.0334
 1857SOL     OW10417   1.069   3.412   5.467  0.2774  0.1880  0.8222
 1857SOL    HW110418   1.004   3.471   5.432  0.3710 -2.0010 -3.3214
 1857SOL    HW210419   1.131   3.468   5.514 -1.7294  2.8440  0.3512
 1858SOL     OW10420   9.989   1.017   4.517  0.0414 -0.7022  0.2302
 1858SOL    HW110421  10.018   1.091   4.571  2.0127 -1.0458 -0.3321
 1858SOL    HW210422   9.920   1.053   4.462  0.3048  0.4781  0.6600
 1859SOL     OW10423   0.071   3.014   4.955  0.0449 -0.5447  0.3787
 1859SOL    HW110424  -0.012   3.007   4.908  0.3768  2.0275 -0.7249
 1859SOL    HW210425   0.049   2.993   5.046 -1.5436 -1.1737 -0.1252
 1860SOL     OW10426   2.229   2.298   5.020  0.3215 -0.1843 -0.2210
 1860SOL    HW110427   2.213   2.205   5.034 -0.5224  0.0756  0.5572
 1860SOL    HW210428   2.207   2.340   5.103  0.2544  0.7646 -0.7012
 1861SOL     OW10429   3.758   2.912   6.601 -0.1416  0.1798  0.0914
 1861SOL    HW110430   3.702   2.932   6.525 -2.5026  0.2986  1.7999
 1861SOL    HW210431   3.719   2.833   6.638  2.1396 -0.9612  0.1282
 1862SOL     OW10432   1.407   2.470   3.114 -0.1842  0.1384  0.2513
 1862SOL    HW110433   1.467   2.454   3.042 -2.0280 -0.3505 -1.2221
 1862SOL    HW210434   1.450   2.537   3.167  1.6065 -0.1597 -0.7922
 1863SOL     OW10435   0.134   1.930   4.890  0.3118 -0.7013 -0.1185
 1863SOL    HW110436   0.074   2.002   4.908 -0.7478 -1.9990  1.8104
 1863SOL    HW210437   0.141   1.927   4.795 -2.4231 -0.2717 -0.3635
 1864SOL     OW10438   0.708   4.111   6.340  0.3542 -0.2259  0.2119
 1864SOL    HW110439   0.652   4.099   6.263  0.9712 -2.9325  0.1323
 1864SOL    HW210440   0.795   4.085   6.311  1.4184  2.6171  0.7412
 1865SOL     OW10441   2.016   3.079   5.628  0.3595 -0.1654  0.4224
 1865SOL    HW110442   2.092   3.021   5.640 -0.1228 -0.6436  1.2135
 1865SOL    HW210443   1.944   3.033   5.671 -0.3382  0.3862 -0.1418
 1866SOL     OW10444   9.984   4.199   5.373 -0.1886  0.3150  0.5434
 1866SOL    HW110445   9.955   4.289   5.359 -0.5656  0.1899  0.5204
 1866SOL    HW210446  10.039   4.204   5.451 -1.9146  0.2083  1.7926
 1867SOL     OW10447   1.644   1.149   4.150 -0.4007  0.3664  0.0145
 1867SOL    HW110448   1.660   1.241   4.170  0.6424  0.2977 -0.5040
 1867SOL    HW210449   1.550   1.137   4.169 -0.8092  1.8125 -1.0298
 1868SOL     OW10450   1.586   2.188   2.868  0.0034  1.0635  0.4047
 1868SOL    HW110451   1.507   2.149   2.904 -0.2517  0.2676 -0.9972
 1868SOL    HW210452   1.576   2.282   2.884 -0.9687  0.9137  0.7046
 1869SOL     OW10453   0.054   1.650   3.396 -0.6109  0.6047 -0.3534
 1869SOL    HW110454   0.133   1.689   3.357 -0.0823  1.6799  1.7124
 1869SOL    HW210455   0.087   1.599   3.470 -1.7615  0.0445 -0.2190
 1870SOL     OW10456   0.241   2.699   3.909  0.0289  0.4770 -0.6070
 1870SOL    HW110457   0.261   2.613   3.873 -2.1327 -0.8590  1.2321
 1870SOL    HW210458   0.298   2.707   3.985 -1.4278 -0.3545  0.5874
 1871SOL     OW10459   0.907   1.270   5.460 -0.0851  0.4099 -0.0283
 1871SOL    HW110460   0.932   1.362   5.455  1.6876 -0.0509 -0.3210
 1871SOL    HW210461   0.950   1.238   5.540  0.0844 -0.3739 -0.4264
 1872SOL     OW10462   0.805   1.853   5.411  0.7748  0.0974  0.3597
 1872SOL    HW110463   0.752   1.775   5.424  1.0359 -0.1566 -0.0888
 1872SOL    HW210464   0.790   1.906   5.490 -0.9626  0.5281 -0.2470
 1873SOL     OW10465   0.344   5.063   3.909  0.8818  0.4208  0.8776
 1873SOL    HW110466   0.439   5.057   3.905  0.8479  0.7655 -0.6896
 1873SOL    HW210467   0.327   5.154   3.937  0.9933  1.4395 -2.1766
 1874SOL     OW10468   8.623   2.590   4.793 -0.0678 -0.1576  0.0972
 1874SOL    HW110469   8.535   2.573   4.760  0.1297  1.2511 -1.2263
 1874SOL    HW210470   8.678   2.594   4.715  0.5507  2.3693  0.6142
 1875SOL     OW10471   0.547   2.306   6.188  0.1570  0.0478  0.1280
 1875SOL    HW110472   0.599   2.261   6.122  0.9580  0.2532  0.6127
 1875SOL    HW210473   0.578   2.397   6.185 -0.7532  0.3563 -0.1535
 1876SOL     OW10474   0.364   2.859   4.398 -0.5833  0.2541  0.2965
 1876SOL    HW110475   0.383   2.852   4.491  0.2215  0.4367  0.1502
 1876SOL    HW210476   0.419   2.791   4.357  1.8214  2.5417 -0.3986
 1877SOL     OW10477   1.382   2.843   5.731 -0.0570  0.1002 -0.3732
 1877SOL    HW110478   1.391   2.773   5.666 -0.0617  1.4325 -1.8547
 1877SOL    HW210479   1.289   2.864   5.732 -0.0404  0.1629 -0.0168
 1878SOL     OW10480   2.396   2.346   4.187 -0.8483  0.5669  0.2627
 1878SOL    HW110481   2.460   2.357   4.117 -0.0073  0.0748  0.9509
 1878SOL    HW210482   2.448   2.340   4.267 -1.8388  2.0502  1.0499
 1879SOL     OW10483   4.083   2.865   6.095  0.5455 -0.0339  0.0465
 1879SOL    HW110484   4.042   2.905   6.172 -0.8292 -1.0434 -0.1413
 1879SOL    HW210485   4.009   2.840   6.039  1.4295 -1.4518 -0.5158
 1880SOL     OW10486   0.690   2.963   5.687 -0.0531 -0.4452 -0.3835
 1880SOL    HW110487   0.665   3.038   5.742 -0.1772 -1.5389  1.0824
 1880SOL    HW210488   0.747   2.910   5.743 -1.4828 -2.4121 -0.7617
 1881SOL     OW10489   2.272   1.295   4.772  0.1666  0.0788 -0.2527
 1881SOL    HW110490   2.197   1.324   4.823  0.2508  2.3526 -1.3521
 1881SOL    HW210491   2.342   1.357   4.796  0.2118  1.1743 -3.0658
 1882SOL     OW10492   2.201   1.790   4.631  0.5183  0.1749 -0.3320
 1882SOL    HW110493   2.290   1.824   4.644  0.9441 -1.9028  2.8301
 1882SOL    HW210494   2.145   1.854   4.674  0.7149  0.3653 -0.3594
 1883SOL     OW10495   1.000   3.303   3.975  0.4400 -0.6366 -0.0384
 1883SOL    HW110496   0.961   3.290   4.062 -2.0619  0.3813 -0.9481
 1883SOL    HW210497   0.974   3.226   3.925  1.3166 -0.9013 -0.0984
 1884SOL     OW10498   1.492   3.237   4.148  0.0864  0.0387 -0.1542
 1884SOL    HW110499   1.466   3.274   4.232 -0.2867 -0.4329 -0.0598
 1884SOL    HW210500   1.411   3.240   4.095  0.6477  1.6503 -0.9793
 1885SOL     OW10501   0.162   2.576   4.425 -0.1722  0.2495  0.2938
 1885SOL    HW110502   0.102   2.643   4.392 -0.7112 -0.1774  0.4048
 1885SOL    HW210503   0.107   2.500   4.442  0.3081  0.0401  0.9492
 1886SOL     OW10504   3.215   1.738   5.276 -0.2878 -0.0309 -0.6813
 1886SOL    HW110505   3.274   1.691   5.218 -1.7130 -0.4045 -1.8598
 1886SOL    HW210506   3.268   1.757   5.353  1.9372  1.2594 -2.4356
 1887SOL     OW10507   1.046   3.122   4.446 -0.3225  0.1179  0.3638
 1887SOL    HW110508   1.088   3.089   4.366 -1.8733 -0.4383 -0.2366
 1887SOL    HW210509   1.011   3.043   4.488  0.8608  0.3539  1.8304
 1888SOL     OW10510   1.095   3.781   4.925  0.1314  0.3874  0.0847
 1888SOL    HW110511   1.011   3.771   4.969  0.6685  1.2019  1.3334
 1888SOL    HW210512   1.126   3.692   4.913 -1.3824  0.0385 -1.3291
 1889SOL     OW10513   1.344   2.738   5.071  0.0816  0.0032 -0.5338
 1889SOL    HW110514   1.315   2.824   5.101  0.1499 -0.5409  1.1863
 1889SOL    HW210515   1.395   2.755   4.992 -0.0508  1.5214 -0.2973
 1890SOL     OW10516   3.019   2.461   5.763 -0.3480  0.4744  0.4150
 1890SOL    HW110517   2.982   2.387   5.715  1.1384  0.4057 -0.6814
 1890SOL    HW210518   3.082   2.421   5.823  0.2851  0.8178 -0.0108
 1891SOL     OW10519   0.549   3.263   6.599 -0.2654 -0.7570  0.1603
 1891SOL    HW110520   0.481   3.217   6.647 -1.5462  0.7037 -0.2041
 1891SOL    HW210521   0.607   3.194   6.566 -0.7321 -1.9159  1.7256
 1892SOL     OW10522   1.279   4.405   5.448  0.4900 -1.1064 -0.1383
 1892SOL    HW110523   1.362   4.382   5.488  0.2848 -0.9210  0.3902
 1892SOL    HW210524   1.217   4.340   5.480  0.6531 -1.8737 -1.3577
 1893SOL     OW10525   2.813   2.224   4.507 -0.0698 -0.3148 -0.3430
 1893SOL    HW110526   2.807   2.138   4.549  2.1044 -0.5386 -0.4041
 1893SOL    HW210527   2.906   2.233   4.486 -0.2807  2.0370 -0.3700
 1894SOL     OW10528   0.745   3.896   3.350 -0.0581 -0.3573  0.0914
 1894SOL    HW110529   0.669   3.840   3.334  1.3500 -2.3159 -0.0063
 1894SOL    HW210530   0.740   3.918   3.443 -1.4872  0.6972 -0.2181
 1895SOL     OW10531   2.082   2.297   6.043 -0.5329 -0.1499 -0.2165
 1895SOL    HW110532   2.040   2.277   5.960 -0.5484  1.2651 -0.5719
 1895SOL    HW210533   2.042   2.380   6.070  1.3845  0.7543 -0.1193
 1896SOL     OW10534   2.570   2.910   3.758  0.2162  0.0630  0.4783
 1896SOL    HW110535   2.625   2.881   3.685  0.3881 -0.2062  0.7128
 1896SOL    HW210536   2.481   2.900   3.726  0.2828 -0.4178  0.4393
 1897SOL     OW10537   0.260   2.847   4.882  0.2673  0.3797  0.1532
 1897SOL    HW110538   0.199   2.784   4.843  1.3201  1.0866 -2.8229
 1897SOL    HW210539   0.205   2.911   4.925 -1.0172 -0.0146 -0.8747
 1898SOL     OW10540   0.551   3.709   3.846  0.1313  0.8268  0.1441
 1898SOL    HW110541   0.575   3.647   3.777 -1.3253  0.2350  0.1671
 1898SOL    HW210542   0.596   3.676   3.924 -2.0487 -1.2645  0.5830
 1899SOL     OW10543   0.220   2.153   4.459  0.0999  0.1583  0.7448
 1899SOL    HW110544   0.151   2.146   4.394  0.5416 -2.1084  0.4698
 1899SOL    HW210545   0.206   2.077   4.517  2.3255 -0.3415  0.6713
 1900SOL     OW10546   1.275   2.723   2.956  0.2998  0.6599  0.3479
 1900SOL    HW110547   1.246   2.642   2.999  1.2737  1.0949  1.8528
 1900SOL    HW210548   1.331   2.694   2.884  0.6937 -0.0030  0.9212
 1901SOL     OW10549   1.652   4.164   2.963 -0.5306 -0.3387  0.0846
 1901SOL    HW110550   1.739   4.137   2.933  0.6003  1.1442  1.9396
 1901SOL    HW210551   1.605   4.082   2.978  0.7528 -1.1589 -0.3401
 1902SOL     OW10552   1.249   3.965   5.038 -0.1467  0.4128  0.2738
 1902SOL    HW110553   1.179   3.913   4.999 -0.3647  0.9061  0.0071
 1902SOL    HW210554   1.284   3.909   5.108  0.8013 -0.8105 -1.1494
 1903SOL     OW10555   0.862   3.203   5.397 -0.3118 -0.2226 -0.5951
 1903SOL    HW110556   0.894   3.263   5.330  1.3009 -0.6578 -0.2403
 1903SOL    HW210557   0.794   3.152   5.354 -0.5149  0.7208 -1.3826
 1904SOL     OW10558   0.413   2.677   4.136 -0.4495 -0.2693  0.4411
 1904SOL    HW110559   0.488   2.682   4.196  0.7778 -0.2091 -1.0795
 1904SOL    HW210560   0.371   2.593   4.156 -0.8404  0.3414  2.2847
 1905SOL     OW10561   1.429   1.793   3.061 -0.2492 -0.4504  0.0679
 1905SOL    HW110562   1.406   1.715   3.012 -2.2809 -1.4591  2.5308
 1905SOL    HW210563   1.491   1.762   3.127  0.5268  0.4279 -0.2315
 1906SOL     OW10564   0.399   2.319   5.623 -0.8791  0.2692 -0.1180
 1906SOL    HW110565   0.377   2.349   5.711 -0.9344  0.3504 -0.1586
 1906SOL    HW210566   0.354   2.381   5.565 -2.3168 -0.8591 -0.2158
 1907SOL     OW10567   0.615   2.091   5.208  0.0089 -0.1611 -0.1805
 1907SOL    HW110568   0.525   2.063   5.223 -0.6210  1.5188 -0.6669
 1907SOL    HW210569   0.638   2.138   5.288 -0.3368  1.3285 -0.9389
 1908SOL     OW10570   0.732   2.684   5.350 -0.2027  0.0985 -0.0570
 1908SOL    HW110571   0.655   2.648   5.306  0.6607 -0.8041 -0.8527
 1908SOL    HW210572   0.806   2.635   5.314  0.8511  1.6251 -0.0397
 1909SOL     OW10573   0.363   2.050   5.299 -0.1926 -0.4510  0.3468
 1909SOL    HW110574   0.338   1.960   5.279  1.3704 -0.5443 -1.2861
 1909SOL    HW210575   0.372   2.051   5.394 -4.3471 -0.9066  0.8185
 1910SOL     OW10576   0.117   2.937   4.519  0.1494 -0.0527  0.2060
 1910SOL    HW110577   0.184   2.891   4.468  0.4494  1.3816 -0.7285
 1910SOL    HW210578   0.044   2.876   4.525  1.0722 -1.1698  0.1676
 1911SOL     OW10579   1.871   3.879   4.585  0.5540 -0.4016  0.1342
 1911SOL    HW110580   1.801   3.834   4.632  1.2182 -1.0467  0.5281
 1911SOL    HW210581   1.853   3.972   4.597  0.7815 -0.5507  1.8008
 1912SOL     OW10582   0.784   2.534   4.125  0.0764 -0.3725  0.5716
 1912SOL    HW110583   0.734   2.614   4.141 -1.1752 -0.3203 -3.1178
 1912SOL    HW210584   0.718   2.464   4.129  0.3852 -0.7269 -0.4877
 1913SOL     OW10585   1.233   2.034   5.196 -0.0183  0.0593  0.5790
 1913SOL    HW110586   1.172   2.108   5.196  1.5845  1.3940  1.1658
 1913SOL    HW210587   1.187   1.965   5.244 -1.3430  0.8233  0.4233
 1914SOL     OW10588   0.266   1.516   4.462  0.1616 -0.2592 -0.0324
 1914SOL    HW110589   0.240   1.563   4.541  1.1840 -0.0682  0.2022
 1914SOL    HW210590   0.361   1.512   4.467  0.4001  1.5908 -2.3003
 1915SOL     OW10591   0.704   4.676   4.557  0.0878 -0.2786  0.0647
 1915SOL    HW110592   0.738   4.665   4.646  1.0265 -0.8571 -0.3569
 1915SOL    HW210593   0.777   4.653   4.501 -0.6479 -0.3593 -0.8657
 1916SOL     OW10594   1.534   2.152   5.674 -0.5333  0.0467 -0.3694
 1916SOL    HW110595   1.530   2.236   5.628  0.5483 -0.6649 -1.8117
 1916SOL    HW210596   1.474   2.095   5.626 -0.1531 -0.4138 -0.3056
 1917SOL     OW10597   0.746   2.849   4.944 -0.4068  0.2440 -0.4196
 1917SOL    HW110598   0.728   2.838   4.850  0.5972  0.2734 -0.6222
 1917SOL    HW210599   0.661   2.870   4.982 -0.5275  1.9950 -1.5879
 1918SOL     OW10600   8.975   4.851   4.919 -0.1419  0.6106 -0.4075
 1918SOL    HW110601   9.005   4.807   4.840  2.0480 -1.3050  1.3979
 1918SOL    HW210602   8.961   4.781   4.982 -0.1806  2.2137  1.4200
 1919SOL     OW10603   1.057   2.924   5.554 -0.2201 -0.2221  0.2252
 1919SOL    HW110604   0.990   2.859   5.576  1.3253 -0.8901  3.1305
 1919SOL    HW210605   1.119   2.876   5.499 -0.6887 -0.3483 -0.2003
 1920SOL     OW10606   2.719   2.485   5.426  0.3478 -0.5286  0.0974
 1920SOL    HW110607   2.685   2.401   5.458 -0.1845 -0.4419 -0.2415
 1920SOL    HW210608   2.746   2.468   5.336  2.4142 -0.9252  0.7586
 1921SOL     OW10609   0.190   1.542   4.807 -0.2004  0.3730 -0.2072
 1921SOL    HW110610   0.273   1.501   4.784 -0.5680 -0.6711  0.2670
 1921SOL    HW210611   0.160   1.584   4.726 -0.4968 -1.5019 -1.0999
 1922SOL     OW10612   0.255   2.136   5.886 -0.0209  0.1037  0.1518
 1922SOL    HW110613   0.274   2.229   5.882  1.5002 -0.0603  2.7159
 1922SOL    HW210614   0.340   2.094   5.895 -0.6408 -1.6089 -1.5782
 1923SOL     OW10615   2.302   2.056   6.215  0.5136  0.3766  0.5898
 1923SOL    HW110616   2.294   2.088   6.304 -0.9067 -1.1151  1.0189
 1923SOL    HW210617   2.339   1.968   6.224 -1.2649 -0.4653 -0.1551
 1924SOL     OW10618   0.400   2.762   4.638  0.4387  0.2330  0.1896
 1924SOL    HW110619   0.331   2.696   4.635  0.5502  0.1754 -1.3742
 1924SOL    HW210620   0.380   2.814   4.716 -0.1969 -1.0449  0.8846
 1925SOL     OW10621   0.489   3.110   4.678 -0.0251 -0.0275  0.2285
 1925SOL    HW110622   0.512   3.161   4.756 -0.0459  0.5721 -0.1579
 1925SOL    HW210623   0.571   3.073   4.648  0.1790  0.7494 -0.1803
 1926SOL     OW10624   1.694   2.456   4.851  0.3887  0.2290  0.3321
 1926SOL    HW110625   1.615   2.489   4.894  0.6135  2.1848 -0.6876
 1926SOL    HW210626   1.664   2.383   4.798 -1.0538  1.9178 -1.2619
 1927SOL     OW10627   0.669   4.289   5.635 -0.6420 -0.1680 -0.1257
 1927SOL    HW110628   0.653   4.223   5.568 -0.3445  1.6561 -2.0500
 1927SOL    HW210629   0.582   4.310   5.670 -1.2229  1.2079 -2.2755
 1928SOL     OW10630   8.794   2.811   2.708 -0.0752  0.1582  0.3758
 1928SOL    HW110631   8.801   2.907   2.716 -0.1596  0.2157 -0.2505
 1928SOL    HW210632   8.706   2.796   2.674  0.3896 -0.0737 -0.7482
 1929SOL     OW10633   0.891   5.219   3.416  0.1863 -0.1370  0.9661
 1929SOL    HW110634   0.854   5.130   3.408 -0.2955  0.0447  1.1756
 1929SOL    HW210635   0.818   5.272   3.449  0.6266  0.2323  1.3395
 1930SOL     OW10636   1.444   2.486   4.994  0.0756 -0.2127 -0.4279
 1930SOL    HW110637   1.372   2.436   4.958  0.3374 -0.2259 -0.9296
 1930SOL    HW210638   1.402   2.555   5.045 -0.2960  0.1539 -1.2302
 1931SOL     OW10639   9.902   0.844   5.479 -0.0972  0.5047 -0.6190
 1931SOL    HW110640   9.850   0.894   5.416 -1.0158 -0.0201 -0.2840
 1931SOL    HW210641   9.894   0.893   5.561 -0.3990  0.2025 -0.4673
 1932SOL     OW10642   1.276   1.065   4.196 -0.4047 -0.4626  0.2249
 1932SOL    HW110643   1.319   1.046   4.113  0.1912 -0.9043  0.6337
 1932SOL    HW210644   1.260   0.979   4.235  0.4267 -0.2091  1.1349
 1933SOL     OW10645   0.272   1.371   6.959  0.0285 -0.5269 -0.1185
 1933SOL    HW110646   0.290   1.445   7.017 -1.5466 -0.4258  0.2779
 1933SOL    HW210647   0.320   1.390   6.879 -1.4673  1.6370 -0.5513
 1934SOL     OW10648   0.269   0.778   5.753  0.5049 -0.1164  0.5193
 1934SOL    HW110649   0.218   0.747   5.828 -0.6272  1.3840  0.3972
 1934SOL    HW210650   0.304   0.699   5.713 -0.3199 -1.0512  1.6211
 1935SOL     OW10651   1.704   1.678   6.021  0.3431 -0.2711  0.1518
 1935SOL    HW110652   1.766   1.722   6.080  0.6150  1.1439 -1.1520
 1935SOL    HW210653   1.661   1.750   5.975  0.5320 -1.3631 -1.7632
 1936SOL     OW10654   1.727   3.683   4.327 -0.0827  0.5168 -0.4801
 1936SOL    HW110655   1.706   3.720   4.241 -1.1343 -0.9150 -0.8481
 1936SOL    HW210656   1.703   3.753   4.389  0.6118  1.5239 -1.3207
 1937SOL     OW10657   0.816   2.732   4.697  0.1330 -0.2981 -0.4662
 1937SOL    HW110658   0.750   2.668   4.672 -0.9096  0.6081 -0.0778
 1937SOL    HW210659   0.891   2.713   4.641  0.0115 -2.1484 -0.0242
 1938SOL     OW10660   1.703   1.721   2.831 -0.1160 -1.0043  0.0603
 1938SOL    HW110661   1.670   1.651   2.775 -1.8632 -1.0925  1.1676
 1938SOL    HW210662   1.743   1.676   2.905 -1.8306 -0.8534  1.1037
 1939SOL     OW10663   0.847   3.837   4.749  0.0830  0.3650  0.7754
 1939SOL    HW110664   0.921   3.892   4.772  0.1278  0.1914  1.0398
 1939SOL    HW210665   0.800   3.886   4.681 -0.6628  1.3641  2.0003
 1940SOL     OW10666   2.455   1.834   4.678 -0.0168  0.6214  0.3596
 1940SOL    HW110667   2.504   1.826   4.597 -1.1340 -1.5099 -0.1421
 1940SOL    HW210668   2.522   1.836   4.747  0.8249 -1.2766 -0.3688
 1941SOL     OW10669   0.334   4.537   3.582 -0.6438 -0.7029 -0.4668
 1941SOL    HW110670   0.333   4.469   3.515  0.1204 -0.3621 -0.8243
 1941SOL    HW210671   0.426   4.555   3.598 -0.8345  0.3473 -0.4798
 1942SOL     OW10672   0.503   3.494   3.379  0.0091  0.1317 -0.6825
 1942SOL    HW110673   0.441   3.435   3.422 -1.0125  1.8389  0.2558
 1942SOL    HW210674   0.472   3.500   3.289 -0.7540  0.3458 -0.4173
 1943SOL     OW10675   1.485   2.481   6.899 -0.2554 -0.3122 -0.4438
 1943SOL    HW110676   1.570   2.436   6.898  0.0913  0.3035  0.8434
 1943SOL    HW210677   1.424   2.415   6.866  0.3954 -1.4354  0.5211
 1944SOL     OW10678   0.454   2.644   5.257  0.2099 -0.0615 -0.1612
 1944SOL    HW110679   0.449   2.548   5.264  3.0205 -0.2271  0.2743
 1944SOL    HW210680   0.364   2.673   5.263 -1.0602 -2.9114 -3.7884
 1945SOL     OW10681   9.692   2.524   5.618 -0.4172  0.1247  0.4095
 1945SOL    HW110682   9.697   2.449   5.560  2.1304  2.0976 -2.0804
 1945SOL    HW210683   9.618   2.575   5.584 -1.8921 -0.9891  1.8540
 1946SOL     OW10684   0.751   2.324   6.535  0.5738 -0.3313 -0.1023
 1946SOL    HW110685   0.778   2.327   6.443  0.2783  0.4535 -0.1643
 1946SOL    HW210686   0.828   2.290   6.581  1.3490  0.9926 -0.4012
 1947SOL     OW10687   0.795   1.776   7.778 -0.4414  0.3949 -0.1450
 1947SOL    HW110688   0.788   1.685   7.750  0.3107 -0.7632  3.2557
 1947SOL    HW210689   0.889   1.793   7.781 -0.4492  0.1371  2.6003
 1948SOL     OW10690   1.084   2.100   7.453  0.4475 -0.0818  0.4981
 1948SOL    HW110691   1.113   2.074   7.365  3.1679 -1.9180  1.8540
 1948SOL    HW210692   1.148   2.164   7.482  1.3425 -1.7067  2.2610
 1949SOL     OW10693   0.318   1.519   6.531  0.1824 -0.2900  0.1639
 1949SOL    HW110694   0.263   1.453   6.487  0.7934 -0.1727 -0.7914
 1949SOL    HW210695   0.275   1.602   6.512  1.1243 -0.1110 -1.3022
 1950SOL     OW10696   9.543   3.463   6.025 -0.0280  0.0260  0.9188
 1950SOL    HW110697   9.554   3.502   5.938 -1.4844 -0.5365  0.4716
 1950SOL    HW210698   9.612   3.503   6.078 -0.7846  2.3811  0.1897
 1951SOL     OW10699   0.892   2.883   8.681  0.0549 -0.2223  0.6931
 1951SOL    HW110700   0.813   2.938   8.679 -0.0575 -0.3913  0.3621
 1951SOL    HW210701   0.964   2.946   8.685 -0.0694 -0.0444  0.2342
 1952SOL     OW10702   9.848   2.944   8.022  0.3343  0.2574 -0.3136
 1952SOL    HW110703   9.888   2.877   8.078  1.2240  0.8682 -0.1911
 1952SOL    HW210704   9.844   2.905   7.935  0.2205 -0.1974 -0.1041
 1953SOL     OW10705   0.513   0.537   6.545  0.6462 -0.2282  0.2127
 1953SOL    HW110706   0.435   0.546   6.490  0.9666  2.0259  0.0866
 1953SOL    HW210707   0.586   0.533   6.482  0.7571 -0.9533  0.3808
 1954SOL     OW10708   8.410   3.230   5.683 -0.4262 -0.0866  0.0473
 1954SOL    HW110709   8.411   3.163   5.752  0.5342  0.5378  0.6593
 1954SOL    HW210710   8.456   3.190   5.610  1.1061  0.2838  0.7936
 1955SOL     OW10711   1.402   3.158   8.081  0.2160  0.7264 -0.3612
 1955SOL    HW110712   1.464   3.117   8.141 -0.9504 -0.8182 -0.1913
 1955SOL    HW210713   1.404   3.251   8.103  0.4854  0.3003  1.4323
 1956SOL     OW10714   0.631   3.627   5.417 -0.0089 -0.1705  0.7189
 1956SOL    HW110715   0.712   3.649   5.462  0.6962  1.5993 -1.3279
 1956SOL    HW210716   0.657   3.568   5.347 -0.3962  0.8798 -0.3185
 1957SOL     OW10717   0.938   2.435   7.502 -0.1900  0.3528 -0.1309
 1957SOL    HW110718   0.869   2.414   7.440 -0.1358 -1.8917  0.4960
 1957SOL    HW210719   0.903   2.407   7.587  0.9242  0.5410  0.4028
 1958SOL     OW10720   1.450   2.204   4.200 -0.1112 -0.3339 -0.0753
 1958SOL    HW110721   1.415   2.276   4.147 -1.4661 -2.2741 -1.8592
 1958SOL    HW210722   1.382   2.187   4.266 -0.4857 -1.0259 -0.6396
 1959SOL     OW10723   0.931   2.779   7.045  0.0550 -0.0917 -0.0942
 1959SOL    HW110724   0.953   2.691   7.074  0.0788 -0.1951 -0.4274
 1959SOL    HW210725   0.974   2.788   6.960  0.7690  0.5402  0.3183
 1960SOL     OW10726   1.051   2.970   6.782  0.1002 -0.1147 -0.3151
 1960SOL    HW110727   0.999   3.033   6.733  0.1305 -0.8852 -1.3824
 1960SOL    HW210728   1.002   2.888   6.775 -0.0906 -0.1447  1.3107
 1961SOL     OW10729   9.981   3.454   5.284 -0.0058 -0.0386 -0.1460
 1961SOL    HW110730   9.908   3.465   5.223  1.6339 -1.5471 -2.4534
 1961SOL    HW210731  10.026   3.375   5.254  1.9030  0.2067  1.9416
 1962SOL     OW10732   2.396   1.010   7.549 -0.4154 -0.1811  0.8615
 1962SOL    HW110733   2.353   1.093   7.530  0.6549  0.0701 -0.5263
 1962SOL    HW210734   2.329   0.943   7.534 -0.8305  0.3295  0.4614
 1963SOL     OW10735   1.723   2.430   5.686  0.4588  0.3466 -0.2575
 1963SOL    HW110736   1.749   2.515   5.651 -1.0871  0.3698 -1.4108
 1963SOL    HW210737   1.628   2.431   5.684  0.4117 -0.9315  0.9091
 1964SOL     OW10738   9.895   2.433   7.240  0.3512  0.0391  0.5911
 1964SOL    HW110739   9.926   2.467   7.324  0.6917 -0.7692  0.7998
 1964SOL    HW210740   9.908   2.504   7.178  0.2598  0.5816  1.1893
 1965SOL     OW10741   1.679   2.150   7.625 -0.1599 -0.5243 -0.5619
 1965SOL    HW110742   1.739   2.165   7.552 -0.6653  0.1361 -0.8442
 1965SOL    HW210743   1.603   2.205   7.605  0.1587  0.4966  1.0239
 1966SOL     OW10744   0.413   1.783   5.209  0.1026 -0.4252 -0.5262
 1966SOL    HW110745   0.408   1.714   5.276 -1.8962  0.5535  0.3749
 1966SOL    HW210746   0.340   1.764   5.150 -1.0553  1.4705  0.2755
 1967SOL     OW10747   0.710   2.507   7.727 -0.2455  0.2646  0.0389
 1967SOL    HW110748   0.647   2.571   7.762 -1.5000 -0.3709 -1.0597
 1967SOL    HW210749   0.794   2.552   7.734 -0.9901  1.6838  0.1833
 1968SOL     OW10750   9.633   3.670   7.188  0.3878 -0.6059 -0.0007
 1968SOL    HW110751   9.637   3.761   7.160  0.5266 -0.9624 -1.1577
 1968SOL    HW210752   9.652   3.673   7.282 -0.1515  0.6074  0.0803
 1969SOL     OW10753   0.310   2.072   7.259 -0.2603 -0.5012  0.2031
 1969SOL    HW110754   0.387   2.111   7.216  1.2184 -1.4332  1.9118
 1969SOL    HW210755   0.235   2.106   7.210  1.0158  3.2484  0.6663
 1970SOL     OW10756   1.194   3.282   6.280  0.1484 -0.4778  0.1021
 1970SOL    HW110757   1.112   3.330   6.295  0.2268 -0.4638  0.4900
 1970SOL    HW210758   1.238   3.331   6.211  0.4954  0.3328  0.8981
 1971SOL     OW10759   1.707   1.988   5.813  0.3542  0.4726  0.5421
 1971SOL    HW110760   1.651   1.912   5.831  0.4316  0.3487  0.2476
 1971SOL    HW210761   1.646   2.059   5.793  0.3538 -0.2589 -2.2136
 1972SOL     OW10762   0.815   2.432   6.278  0.7855 -0.0241 -0.2680
 1972SOL    HW110763   0.886   2.392   6.229  1.5022 -0.4806  1.1178
 1972SOL    HW210764   0.761   2.475   6.211  1.3966 -1.1397 -1.5127
 1973SOL     OW10765   1.210   3.093   5.347 -0.1009 -0.3294 -0.3958
 1973SOL    HW110766   1.206   2.998   5.348 -1.8376 -0.2814 -0.5782
 1973SOL    HW210767   1.294   3.114   5.307  1.1260 -1.7853  1.3126
 1974SOL     OW10768   0.566   1.459   7.146 -0.1095  0.9462 -0.5012
 1974SOL    HW110769   0.490   1.490   7.096  0.4133 -0.7845 -2.4645
 1974SOL    HW210770   0.630   1.434   7.079  0.0074 -2.9571  0.9149
 1975SOL     OW10771   1.525   2.276   6.607  0.5531 -0.0092  0.1497
 1975SOL    HW110772   1.589   2.282   6.537 -0.0964 -2.2529 -0.6880
 1975SOL    HW210773   1.466   2.350   6.592  2.2908  1.4249  0.2914
 1976SOL     OW10774   1.316   2.509   6.618  0.8456  0.4385  0.8429
 1976SOL    HW110775   1.327   2.548   6.705 -0.3184  1.9154  0.3426
 1976SOL    HW210776   1.335   2.581   6.557  1.9258 -0.6536 -0.1423
 1977SOL     OW10777   0.709   3.190   8.057 -0.0988  0.3234  0.1353
 1977SOL    HW110778   0.685   3.104   8.023 -1.4277  0.6318  0.2962
 1977SOL    HW210779   0.795   3.208   8.017  0.1586 -1.0364  0.0502
 1978SOL     OW10780   1.215   2.355   4.835 -0.6585 -0.4124 -0.0781
 1978SOL    HW110781   1.122   2.353   4.856 -0.7802 -0.3222 -0.6081
 1978SOL    HW210782   1.223   2.420   4.764  0.0004  0.6344  0.9303
 1979SOL     OW10783   9.022   2.963   6.655 -0.1032  0.1329 -0.0737
 1979SOL    HW110784   9.057   2.995   6.738 -0.0348 -1.3212  0.4732
 1979SOL    HW210785   9.007   3.042   6.603 -0.0047  1.0432  1.2633
 1980SOL     OW10786   0.198   2.914   0.206  0.7748 -0.1836 -0.2641
 1980SOL    HW110787   0.259   2.986   0.192  0.0822  0.7688  1.4615
 1980SOL    HW210788   0.124   2.953   0.252 -1.2373 -1.2847 -2.4154
 1981SOL     OW10789   0.972   2.174   6.380 -0.1327  0.2935  0.2585
 1981SOL    HW110790   1.040   2.235   6.352  0.3795 -0.3179  0.1569
 1981SOL    HW210791   0.939   2.136   6.299 -1.7589  1.8158  0.1961
 1982SOL     OW10792   0.872   0.330   7.496 -0.1361  0.3861  0.5201
 1982SOL    HW110793   0.844   0.239   7.495 -0.5859  0.5167  0.9372
 1982SOL    HW210794   0.801   0.378   7.454  0.1911  0.5169  0.1182
 1983SOL     OW10795   0.066   2.804   7.607 -0.4110  0.4213 -0.0326
 1983SOL    HW110796   0.137   2.867   7.611 -0.3104  0.4945 -2.0814
 1983SOL    HW210797   0.004   2.843   7.545 -1.9411  0.0711  1.2647
 1984SOL     OW10798   0.929   3.120   6.093 -0.8868  0.5370 -0.4352
 1984SOL    HW110799   0.938   3.215   6.086  0.2693  0.5018  0.5104
 1984SOL    HW210800   0.932   3.102   6.187 -1.8114 -0.3796 -0.5682
 1985SOL     OW10801   0.041   2.705   6.030 -0.1291 -0.1936  0.3735
 1985SOL    HW110802  -0.041   2.664   6.006 -0.1396  0.2734 -0.3949
 1985SOL    HW210803   0.096   2.699   5.952 -0.1872  1.3698  0.1954
 1986SOL     OW10804   1.722   2.887   7.042  0.1574 -0.4875  0.9732
 1986SOL    HW110805   1.796   2.901   6.983  0.2680  0.2423  1.2715
 1986SOL    HW210806   1.659   2.836   6.991  0.5843 -0.5360  0.4943
 1987SOL     OW10807   0.705   2.146   6.845 -0.3358 -0.1330 -0.3866
 1987SOL    HW110808   0.800   2.157   6.855 -0.4999  1.1889 -0.2420
 1987SOL    HW210809   0.696   2.069   6.788  0.7708 -2.2581  2.1692
 1988SOL     OW10810   9.593   1.650   8.595 -0.1342 -0.0929 -0.3807
 1988SOL    HW110811   9.562   1.640   8.685  1.4437  0.6067  0.2560
 1988SOL    HW210812   9.548   1.580   8.547 -3.5833  1.5778  0.2321
 1989SOL     OW10813   1.875   3.638   5.796 -0.6393  0.9900  1.1338
 1989SOL    HW110814   1.780   3.631   5.795 -0.5260 -0.6083 -1.3154
 1989SOL    HW210815   1.905   3.560   5.843 -0.4787  0.4350  0.1225
 1990SOL     OW10816   9.716   4.012   4.657  0.1425  0.2334 -0.4026
 1990SOL    HW110817   9.778   3.991   4.587  0.8618  0.6449  0.1005
 1990SOL    HW210818   9.728   3.943   4.722 -1.5486 -0.9544 -1.3169
 1991SOL     OW10819   1.348   2.061   5.908 -0.0070 -0.1752  0.1835
 1991SOL    HW110820   1.261   2.084   5.939 -0.9747 -2.7206 -0.5468
 1991SOL    HW210821   1.352   2.096   5.819 -0.8635 -1.3459 -0.3292
 1992SOL     OW10822   1.778   3.003   6.391 -0.0885  0.7406  0.3925
 1992SOL    HW110823   1.861   3.045   6.371  0.1327  0.5570  0.9165
 1992SOL    HW210824   1.735   2.992   6.306  1.3406 -1.0723 -0.1350
 1993SOL     OW10825   1.067   2.400   6.605 -0.1588 -0.2548 -0.1856
 1993SOL    HW110826   1.146   2.449   6.628 -1.4154  1.7429 -0.0770
 1993SOL    HW210827   1.066   2.401   6.509 -0.9299  1.1586 -0.1691
 1994SOL     OW10828   0.752   1.368   5.751  0.4226 -0.4569 -0.1373
 1994SOL    HW110829   0.722   1.311   5.822  1.6382 -0.9948 -0.0400
 1994SOL    HW210830   0.673   1.387   5.700 -0.2003 -1.2771  0.5106
 1995SOL     OW10831   0.849   1.640   7.215  0.8209  0.7740 -0.2667
 1995SOL    HW110832   0.934   1.643   7.172  1.8607 -0.4598  1.6144
 1995SOL    HW210833   0.810   1.557   7.185  0.8407  0.7138 -0.1283
 1996SOL     OW10834   1.378   2.590   6.212 -0.6319  0.2971 -0.4611
 1996SOL    HW110835   1.441   2.630   6.151  0.7654 -1.4057 -0.1829
 1996SOL    HW210836   1.409   2.618   6.298 -1.0756  0.5966 -0.4024
 1997SOL     OW10837   0.052   0.927   9.732 -0.1758 -0.1089 -0.0860
 1997SOL    HW110838   0.099   0.855   9.691  0.2349 -2.6133  4.4866
 1997SOL    HW210839   0.113   1.001   9.730  1.5240 -1.4922  0.0236
 1998SOL     OW10840   1.643   2.049   8.369  0.9431 -0.2936  0.6160
 1998SOL    HW110841   1.633   1.958   8.340  0.5223 -0.6118  1.7478
 1998SOL    HW210842   1.642   2.044   8.464  2.5013  0.7376  0.7015
 1999SOL     OW10843   0.775   2.107   5.601  0.5759  0.0863  0.0392
 1999SOL    HW110844   0.682   2.103   5.624  0.4167 -2.3060 -0.9353
 1999SOL    HW210845   0.811   2.174   5.660 -1.6247  0.6186  0.8343
 2000SOL     OW10846   9.728   1.679   6.352  0.1980 -0.0708  0.1737
 2000SOL    HW110847   9.786   1.755   6.344 -2.0530  1.5765 -0.8761
 2000SOL    HW210848   9.748   1.624   6.276 -0.5367  1.1392 -0.9006
 2001SOL     OW10849   0.848   3.533   5.579  0.3811  0.5577  0.4407
 2001SOL    HW110850   0.928   3.525   5.631  1.9847  0.1939 -2.0315
 2001SOL    HW210851   0.804   3.449   5.589  1.4147 -0.0322  0.0104
 2002SOL     OW10852   0.828   0.685   5.606  0.1457  0.1936  0.0082
 2002SOL    HW110853   0.809   0.611   5.548 -1.8976  0.0480  0.8294
 2002SOL    HW210854   0.743   0.709   5.642  0.9533  2.2744  0.5655
 2003SOL     OW10855   0.679   2.516   5.792 -0.0388  0.3598  0.1475
 2003SOL    HW110856   0.751   2.460   5.761 -1.8598 -1.1021 -1.5841
 2003SOL    HW210857   0.618   2.519   5.718 -3.0651 -0.6536  2.5102
 2004SOL     OW10858   0.272   1.114   7.106 -0.3596 -0.0761  0.7163
 2004SOL    HW110859   0.275   1.185   7.042  1.1965 -0.9186 -0.1892
 2004SOL    HW210860   0.184   1.118   7.142 -0.3021  2.3422  0.7229
 2005SOL     OW10861   1.110   4.058   7.066 -0.8324  0.4153  0.1227
 2005SOL    HW110862   1.026   4.068   7.022 -0.3126  1.3668 -0.6885
 2005SOL    HW210863   1.138   3.969   7.046 -2.2988 -0.3901  1.5822
 2006SOL     OW10864   0.126   2.525   7.625 -0.7708  0.5378  0.0828
 2006SOL    HW110865   0.127   2.612   7.584 -0.3691  1.6967  2.4533
 2006SOL    HW210866   0.194   2.529   7.692  0.3808 -2.1949 -0.8518
 2007SOL     OW10867   0.256   1.793   6.540  0.5714  0.6596  0.3602
 2007SOL    HW110868   0.195   1.838   6.597  0.0379 -1.4263  1.5004
 2007SOL    HW210869   0.336   1.785   6.592  0.3148 -0.6214  0.5756
 2008SOL     OW10870   1.267   2.309   6.855  0.2617  0.2040  0.3218
 2008SOL    HW110871   1.251   2.296   6.761 -1.9007 -1.4002  0.8733
 2008SOL    HW210872   1.285   2.221   6.889  0.6612  0.7193  1.4694
 2009SOL     OW10873   9.922   2.880   6.255 -0.0804 -0.3966  0.4380
 2009SOL    HW110874   9.843   2.854   6.302 -1.3722  0.3362 -1.2674
 2009SOL    HW210875   9.942   2.806   6.198  1.3352 -1.1790  1.9183
 2010SOL     OW10876   1.017   2.888   4.925 -0.1250  0.1907  0.6818
 2010SOL    HW110877   1.008   2.941   5.005 -2.2147  0.1916  0.4917
 2010SOL    HW210878   0.935   2.838   4.921  0.3446 -0.4694 -0.9853
 2011SOL     OW10879   0.277   2.570   5.056 -0.4800 -0.2549 -0.3826
 2011SOL    HW110880   0.360   2.551   5.101 -0.1068  3.1420  0.4945
 2011SOL    HW210881   0.303   2.613   4.975 -1.3625  0.0142 -0.5239
 2012SOL     OW10882   2.161   2.021   5.387  0.6292  0.5059  0.2009
 2012SOL    HW110883   2.167   2.117   5.386 -1.4945  0.6860  2.0222
 2012SOL    HW210884   2.069   2.003   5.370  0.8146 -1.1980  0.9694
 2013SOL     OW10885   2.318   0.089   4.940 -0.1762  0.2439  0.3298
 2013SOL    HW110886   2.311   0.041   4.857  0.8669  0.3308  0.1854
 2013SOL    HW210887   2.237   0.068   4.987  0.3468 -1.7992  0.3543
 2014SOL     OW10888   0.718   1.624   5.528 -0.1586  0.0779 -0.2317
 2014SOL    HW110889   0.792   1.593   5.476  0.2825  0.9700 -0.1597
 2014SOL    HW210890   0.657   1.551   5.530  1.0407 -0.9330  0.3007
 2015SOL     OW10891   1.456   1.831   6.687  0.6553 -0.3839 -0.5017
 2015SOL    HW110892   1.513   1.755   6.668  0.1688 -1.7157  3.0658
 2015SOL    HW210893   1.367   1.796   6.678  0.4000 -0.9405  3.2937
 2016SOL     OW10894   1.019   2.188   4.298  0.4229  0.0124  0.3044
 2016SOL    HW110895   1.000   2.187   4.204  0.6441 -0.8408  0.2656
 2016SOL    HW210896   0.983   2.271   4.328 -3.2945 -1.4188  0.2062
 2017SOL     OW10897   1.445   0.813   7.962 -0.1806  1.1438  0.0881
 2017SOL    HW110898   1.486   0.766   8.034  2.4547  1.6283 -1.0451
 2017SOL    HW210899   1.514   0.871   7.928 -1.6681  1.7008 -2.1244
 2018SOL     OW10900   0.646   3.411   7.633 -0.0602 -0.4066  0.7332
 2018SOL    HW110901   0.553   3.411   7.612  0.1330  1.2525 -0.2203
 2018SOL    HW210902   0.680   3.490   7.591  1.8856 -1.2963  0.5663
 2019SOL     OW10903   0.459   2.578   8.870  0.3012 -0.1773  0.4405
 2019SOL    HW110904   0.553   2.560   8.862  0.1488 -0.9766  0.4032
 2019SOL    HW210905   0.447   2.662   8.826  0.5962 -1.2490 -1.7456
 2020SOL     OW10906   1.691   2.958   8.351 -0.4567  0.0063 -0.7588
 2020SOL    HW110907   1.628   2.886   8.345  0.2263 -0.7115  0.5193
 2020SOL    HW210908   1.642   3.029   8.393 -0.4440 -0.5294  0.1814
 2021SOL     OW10909   1.905   1.659   7.691  0.1055  0.0325 -0.3044
 2021SOL    HW110910   1.896   1.569   7.661  2.1687 -0.1583 -0.4513
 2021SOL    HW210911   1.990   1.661   7.734 -0.2204  1.7486  0.2824
 2022SOL     OW10912   0.274   1.481   8.221 -0.2389  0.1296  0.0333
 2022SOL    HW110913   0.186   1.442   8.217 -0.3447  0.3588  0.1410
 2022SOL    HW210914   0.296   1.498   8.129 -0.0162 -0.5743 -0.0497
 2023SOL     OW10915   0.192   4.146   5.970  0.0806 -0.2711 -0.0201
 2023SOL    HW110916   0.193   4.078   6.037 -1.2657 -0.6191 -0.3295
 2023SOL    HW210917   0.253   4.212   6.002  1.6057 -1.7284  0.1702
 2024SOL     OW10918   0.984   1.751   6.426  0.0705  0.5845  0.0362
 2024SOL    HW110919   0.902   1.771   6.381 -0.0104 -3.3883 -1.7588
 2024SOL    HW210920   1.051   1.754   6.358  0.4940 -1.7700  0.2813
 2025SOL     OW10921   6.933   4.313   5.164  0.1362 -0.8377 -0.2210
 2025SOL    HW110922   6.892   4.246   5.219  1.5101 -0.1325  1.7256
 2025SOL    HW210923   6.880   4.391   5.179  0.4702 -0.6642  0.0646
 2026SOL     OW10924   0.509   3.993   5.547  0.6342 -0.2944 -0.2580
 2026SOL    HW110925   0.587   4.035   5.510  1.3322 -1.1490  0.2288
 2026SOL    HW210926   0.437   4.026   5.493  1.1840  1.3519 -0.0257
 2027SOL     OW10927   0.546   1.339   7.398  0.2564 -0.3897  0.2879
 2027SOL    HW110928   0.466   1.297   7.368  0.5010 -1.0053  0.4789
 2027SOL    HW210929   0.580   1.385   7.322  0.1574 -0.8159 -0.0134
 2028SOL     OW10930   2.365   1.986   7.307 -0.2185 -0.3979  1.2381
 2028SOL    HW110931   2.277   2.024   7.308  0.4911  1.2865  1.1821
 2028SOL    HW210932   2.369   1.939   7.224 -0.9607 -0.2236  1.0932
 2029SOL     OW10933   9.536   3.003   6.943  0.9067 -0.1026 -0.0387
 2029SOL    HW110934   9.485   2.950   6.882  0.2907  1.0037 -0.4952
 2029SOL    HW210935   9.607   2.946   6.971  0.9908 -0.7435 -1.5270
 2030SOL     OW10936   8.955   0.592   6.719 -0.4000  0.3735  0.3208
 2030SOL    HW110937   9.009   0.615   6.643 -1.5523  1.5956 -0.1692
 2030SOL    HW210938   8.883   0.540   6.682 -0.8171  0.7378  0.6111
 2031SOL     OW10939   1.342   0.803   8.367 -0.6034  0.3307 -0.5350
 2031SOL    HW110940   1.270   0.824   8.307  0.4449  1.1348 -1.5196
 2031SOL    HW210941   1.406   0.757   8.313  0.2761  0.9072 -0.0014
 2032SOL     OW10942   1.700   1.707   7.452 -0.1229  0.1627  0.2187
 2032SOL    HW110943   1.706   1.620   7.412  1.5942  1.3236 -2.1708
 2032SOL    HW210944   1.635   1.753   7.399 -0.0892  0.7265  0.6697
 2033SOL     OW10945   9.869   0.184   9.865 -0.8034  0.5332  0.2681
 2033SOL    HW110946   9.813   0.261   9.867 -0.7568  0.5651  0.3248
 2033SOL    HW210947   9.958   0.219   9.865 -0.7869  0.5033 -0.5387
 2034SOL     OW10948   2.301   1.855   7.052 -1.0991  0.6747  0.6358
 2034SOL    HW110949   2.211   1.833   7.030 -0.3825 -1.7100 -0.1077
 2034SOL    HW210950   2.342   1.876   6.968 -0.1802 -1.4044  0.5307
 2035SOL     OW10951   2.139   1.966   7.824  0.1578 -0.2535 -0.4087
 2035SOL    HW110952   2.180   1.953   7.738 -0.3331 -0.7216 -0.5737
 2035SOL    HW210953   2.051   2.000   7.803  1.0755  2.5180 -0.0313
 2036SOL     OW10954   9.737   2.366   6.223  0.0249  0.2309 -0.3847
 2036SOL    HW110955   9.759   2.384   6.314  0.4416  1.1935 -0.6757
 2036SOL    HW210956   9.818   2.381   6.175  0.2043 -1.6730 -0.7456
 2037SOL     OW10957   9.959   3.204   6.959 -0.0428  0.1248  1.0842
 2037SOL    HW110958  10.043   3.250   6.950 -0.6166  0.9445 -0.2851
 2037SOL    HW210959   9.983   3.111   6.966  1.0029  0.3886  1.0807
 2038SOL     OW10960   0.501   2.342   6.790 -0.4719 -0.2724 -0.4339
 2038SOL    HW110961   0.577   2.309   6.743 -0.1840  0.4841 -0.5082
 2038SOL    HW210962   0.431   2.346   6.725 -1.0905 -2.6761  0.0400
 2039SOL     OW10963   0.767   3.740   8.038 -0.2493 -0.1522 -0.8163
 2039SOL    HW110964   0.735   3.809   7.980  0.7726  0.6425 -0.4367
 2039SOL    HW210965   0.845   3.707   7.994 -0.9811 -1.3981 -1.2294
 2040SOL     OW10966   9.650   0.535   5.924  0.1343 -0.1852 -0.2250
 2040SOL    HW110967   9.709   0.606   5.895 -0.1626 -0.0039 -0.3878
 2040SOL    HW210968   9.701   0.455   5.910  0.3319 -0.0313 -0.3942
 2041SOL     OW10969   0.421   2.612   6.968  0.4346  0.5970  0.0332
 2041SOL    HW110970   0.331   2.585   6.950  0.7575 -0.8580  0.5337
 2041SOL    HW210971   0.473   2.569   6.900  0.7668  1.3651 -0.2054
 2042SOL     OW10972   0.775   2.966   7.111 -0.4074 -1.0166 -0.2694
 2042SOL    HW110973   0.804   3.034   7.050  0.0723 -1.4217 -0.4851
 2042SOL    HW210974   0.825   2.889   7.088 -1.1471 -1.5262 -0.1927
 2043SOL     OW10975   9.411   2.390   8.261  0.1157  0.3849  0.3939
 2043SOL    HW110976   9.451   2.434   8.336  0.8122  0.9345 -0.2915
 2043SOL    HW210977   9.468   2.314   8.246  1.3397  1.5705 -1.0386
 2044SOL     OW10978   2.082   2.821   6.353  0.0722  0.3417 -0.1285
 2044SOL    HW110979   2.016   2.855   6.292  0.4431  2.3228  0.5340
 2044SOL    HW210980   2.153   2.792   6.296 -0.6994 -0.3451 -0.7670
 2045SOL     OW10981   9.770   2.696   8.741 -0.2724 -0.1358 -0.1205
 2045SOL    HW110982   9.691   2.729   8.698 -0.4885 -1.4604 -0.7423
 2045SOL    HW210983   9.741   2.622   8.793  0.5658 -0.6446 -0.3623
 2046SOL     OW10984   1.775   1.429   5.279 -0.7435 -0.5100  0.2507
 2046SOL    HW110985   1.824   1.511   5.286  0.2093 -0.9490 -1.0477
 2046SOL    HW210986   1.775   1.394   5.368  0.3479  0.0451  0.4819
 2047SOL     OW10987   0.441   3.119   6.101  0.8066  0.3494  0.1205
 2047SOL    HW110988   0.505   3.127   6.030  0.1570 -3.2928 -0.9641
 2047SOL    HW210989   0.386   3.045   6.075  0.6456 -1.1862  4.4840
 2048SOL     OW10990   9.697   2.879   6.410 -0.9635 -0.3284 -0.0112
 2048SOL    HW110991   9.735   2.929   6.481  0.1281  0.2845 -1.0167
 2048SOL    HW210992   9.707   2.787   6.437 -0.1856 -0.1134  0.4348
 2049SOL     OW10993   0.656   1.501   8.129 -0.4489 -0.1687  0.0530
 2049SOL    HW110994   0.694   1.415   8.108  2.3260  1.1814 -0.7839
 2049SOL    HW210995   0.562   1.485   8.133 -0.1558 -2.8802 -1.9573
 2050SOL     OW10996   1.002   1.662   6.762  0.1110  0.5161 -0.2631
 2050SOL    HW110997   0.910   1.675   6.738 -0.1578 -0.4110  0.2640
 2050SOL    HW210998   1.015   1.720   6.837  0.0499  0.8827 -0.5307
 2051SOL     OW10999   1.420   1.300   7.127  0.3417 -0.2733 -0.1615
 2051SOL    HW111000   1.447   1.380   7.171  2.1153  0.0977 -1.8478
 2051SOL    HW211001   1.341   1.272   7.173  1.2575  0.9375  2.2225
 2052SOL     OW11002   9.014   2.711   5.751 -0.0543 -0.1333 -0.2418
 2052SOL    HW111003   9.048   2.667   5.829  1.8093  0.3184 -0.7725
 2052SOL    HW211004   9.092   2.732   5.699 -0.9599  2.7502 -0.5405
 2053SOL     OW11005   8.493   1.139   6.760 -0.1351 -0.0569 -0.1371
 2053SOL    HW111006   8.417   1.191   6.786 -0.4283 -1.1071  1.1407
 2053SOL    HW211007   8.461   1.083   6.689 -0.5080 -0.3366  0.2473
 2054SOL     OW11008   0.903   1.843   7.382 -0.5998  0.3122 -0.1835
 2054SOL    HW111009   0.961   1.900   7.332 -0.6798 -0.3491 -1.0254
 2054SOL    HW211010   0.889   1.766   7.326  1.2102 -1.5172  1.7646
 2055SOL     OW11011   0.566   2.278   7.907  0.4703 -0.4194 -0.1162
 2055SOL    HW111012   0.650   2.323   7.896  0.3320 -0.6290 -2.1960
 2055SOL    HW211013   0.523   2.325   7.979  0.5366  2.4847 -1.8817
 2056SOL     OW11014   0.195   1.202   7.916  0.3262  0.0417 -0.6798
 2056SOL    HW111015   0.282   1.244   7.914  0.5934 -0.5484 -1.4250
 2056SOL    HW211016   0.134   1.274   7.897  0.6260  0.5113  0.0893
 2057SOL     OW11017   1.284   2.078   6.512 -0.7295 -0.3708  0.2893
 2057SOL    HW111018   1.280   2.069   6.417  1.4775 -2.4228  0.3575
 2057SOL    HW211019   1.195   2.061   6.541 -0.8069 -2.7638 -1.2080
 2058SOL     OW11020   9.227   9.943   9.302 -0.0196  0.3309  0.2331
 2058SOL    HW111021   9.292   9.900   9.357 -1.2192  1.2365  2.4126
 2058SOL    HW211022   9.274  10.017   9.263  0.3761  0.7954  1.5536
 2059SOL     OW11023   0.941   3.740   6.478  0.7780  0.0107 -0.4327
 2059SOL    HW111024   0.998   3.814   6.458  2.7759 -1.5785 -0.8624
 2059SOL    HW211025   0.982   3.666   6.433  0.1208 -1.8036  1.8616
 2060SOL     OW11026   9.899   2.426   3.752 -0.5594  0.3509  0.5471
 2060SOL    HW111027   9.957   2.439   3.826  0.4474  0.5293 -0.2555
 2060SOL    HW211028   9.863   2.338   3.764  1.1025 -0.3745  0.2220
 2061SOL     OW11029   0.844   0.180   6.067 -0.3726 -0.1003  0.7032
 2061SOL    HW111030   0.800   0.257   6.103 -1.1101 -0.5790  0.8401
 2061SOL    HW211031   0.789   0.153   5.993  0.9099  0.6302 -0.5410
 2062SOL     OW11032   0.684   2.557   6.085  0.1539  0.3236  0.4262
 2062SOL    HW111033   0.638   2.641   6.095  1.0355  0.7904  0.6496
 2062SOL    HW211034   0.681   2.540   5.991 -3.2314 -1.2550  0.7390
 2063SOL     OW11035   1.608   2.936   8.629  0.0765  0.2330  0.1910
 2063SOL    HW111036   1.583   3.020   8.591  0.9141  1.0731  1.4537
 2063SOL    HW211037   1.567   2.870   8.572  2.5070  1.3932 -3.0003
 2064SOL     OW11038   0.410   3.511   5.271 -0.0643  0.6629 -0.0456
 2064SOL    HW111039   0.372   3.507   5.184 -1.3656  1.2528  0.4817
 2064SOL    HW211040   0.495   3.468   5.262  0.1352  1.3540 -1.7657
 2065SOL     OW11041   9.346   1.719   7.844  0.0702 -0.4499  0.6071
 2065SOL    HW111042   9.253   1.707   7.822  0.5392  1.6560 -2.8620
 2065SOL    HW211043   9.346   1.788   7.910 -0.9157 -1.5490  1.7787
 2066SOL     OW11044   3.059   2.980   6.014 -0.5743  0.2202 -0.7713
 2066SOL    HW111045   3.132   3.030   6.051 -0.0695  0.2705 -1.7964
 2066SOL    HW211046   3.047   2.907   6.073 -0.7322  1.0798  0.2733
 2067SOL     OW11047   0.192   4.220   6.341  0.2675 -0.4043  0.1564
 2067SOL    HW111048   0.191   4.288   6.273  0.8513  1.4104  1.9170
 2067SOL    HW211049   0.106   4.227   6.383 -0.1801 -1.6758 -0.5094
 2068SOL     OW11050   2.070   3.216   7.034  0.0754  0.2296 -0.8290
 2068SOL    HW111051   2.075   3.250   6.945 -0.7310  0.9217 -0.6136
 2068SOL    HW211052   2.093   3.123   7.025 -0.1785  0.2491 -1.7861
 2069SOL     OW11053   1.437   3.531   5.574  0.5285 -0.2542  0.5755
 2069SOL    HW111054   1.399   3.549   5.488  1.1430  0.2993  0.4159
 2069SOL    HW211055   1.372   3.563   5.636 -0.5917 -2.0154  0.3487
 2070SOL     OW11056   1.757   2.957   5.753  0.1638  0.0629 -0.0374
 2070SOL    HW111057   1.774   3.006   5.834  1.2007  0.1739 -0.3222
 2070SOL    HW211058   1.668   2.923   5.765 -1.6423  4.1024 -0.8577
 2071SOL     OW11059   1.228   1.641   5.479  0.2305 -0.0499  0.0412
 2071SOL    HW111060   1.313   1.629   5.436  0.8617 -0.9232  1.5069
 2071SOL    HW211061   1.192   1.720   5.438  0.7826 -0.8771 -2.1301
 2072SOL     OW11062   9.827   1.830   5.727 -0.1158  0.0098 -0.0083
 2072SOL    HW111063   9.876   1.911   5.736 -0.0898  0.0180 -0.2293
 2072SOL    HW211064   9.737   1.858   5.710 -0.3595  0.0006  1.2413
 2073SOL     OW11065   1.144   3.065   7.684 -0.3921 -0.0173 -0.2062
 2073SOL    HW111066   1.232   3.071   7.723  1.1671  0.3738 -3.5634
 2073SOL    HW211067   1.114   3.156   7.680 -0.6446 -0.0782  0.2366
 2074SOL     OW11068   0.809   2.589   5.013  0.1795 -0.1768 -0.3888
 2074SOL    HW111069   0.792   2.683   5.005 -1.5727 -0.3694  0.6897
 2074SOL    HW211070   0.904   2.582   5.022  0.2089  1.6280  1.0121
 2075SOL     OW11071   0.252   3.300   6.373 -0.2615 -0.5280 -0.0947
 2075SOL    HW111072   0.177   3.308   6.432 -0.5791  1.2349 -0.6900
 2075SOL    HW211073   0.216   3.320   6.286  0.1774 -3.1964 -0.9303
 2076SOL     OW11074   1.766   2.970   7.310 -0.2449 -0.1592  0.1421
 2076SOL    HW111075   1.729   3.058   7.303  0.6767  0.2787  0.6577
 2076SOL    HW211076   1.770   2.938   7.219 -2.0545 -0.3067  0.0917
 2077SOL     OW11077   9.745   2.673   5.339 -0.1359  1.0022 -0.3030
 2077SOL    HW111078   9.815   2.721   5.383  0.9350 -0.1547 -0.6930
 2077SOL    HW211079   9.737   2.714   5.253  0.6029  0.6694 -0.5395
 2078SOL     OW11080   1.274   1.643   6.308 -1.0348 -0.3403 -0.3058
 2078SOL    HW111081   1.242   1.644   6.218 -0.8382 -0.0514 -0.3745
 2078SOL    HW211082   1.369   1.643   6.299 -1.0146 -0.6320 -0.0976
 2079SOL     OW11083   9.877   3.961   4.378  0.4281  0.2970 -0.4435
 2079SOL    HW111084   9.960   3.976   4.425 -0.1235  1.0882  0.3089
 2079SOL    HW211085   9.880   3.869   4.353  1.3573  0.2141 -0.0705
 2080SOL     OW11086   9.963   2.645   7.076 -0.0950  0.6868 -0.0261
 2080SOL    HW111087  10.006   2.725   7.108  0.1887  0.8692 -0.8489
 2080SOL    HW211088   9.985   2.642   6.983  0.3085 -0.6281  0.1130
 2081SOL     OW11089   0.679   0.662   7.375  0.0556 -0.1632 -0.2218
 2081SOL    HW111090   0.653   0.744   7.418 -0.1116  0.4754 -1.5224
 2081SOL    HW211091   0.761   0.684   7.331  0.4207 -0.9216  0.0662
 2082SOL     OW11092   1.205   2.089   6.245  0.0462  0.4708  0.2946
 2082SOL    HW111093   1.161   2.130   6.171  1.9033 -0.3097 -1.2830
 2082SOL    HW211094   1.189   1.995   6.233  1.4535  0.2401  0.1239
 2083SOL     OW11095   1.591   2.471   7.414  0.4524 -0.0467 -0.3003
 2083SOL    HW111096   1.568   2.534   7.346  0.0715  0.5856  0.4006
 2083SOL    HW211097   1.676   2.437   7.387  0.4488  0.4273 -0.9283
 2084SOL     OW11098   9.968   2.142   4.650 -0.1872  0.3091  0.1514
 2084SOL    HW111099   9.929   2.165   4.566  0.3986  0.5279 -0.0655
 2084SOL    HW211100  10.027   2.069   4.630  0.2510  0.6166  0.2928
 2085SOL     OW11101   1.579   2.713   6.044  0.0033 -0.1045 -0.0136
 2085SOL    HW111102   1.539   2.690   5.960 -0.9715  0.6459  0.2379
 2085SOL    HW211103   1.644   2.645   6.059  0.9820  0.3967 -1.9292
 2086SOL     OW11104   1.156   3.326   7.897  0.2999 -0.0503 -0.0819
 2086SOL    HW111105   1.072   3.334   7.851  1.4206  0.7695 -2.0495
 2086SOL    HW211106   1.221   3.352   7.832  1.9828  0.6877  1.8515
 2087SOL     OW11107   1.292   0.699   5.883  0.0240  0.0424  0.1744
 2087SOL    HW111108   1.331   0.721   5.798  1.6603 -0.2565  0.8314
 2087SOL    HW211109   1.281   0.604   5.881  2.4105 -0.2821  1.2475
 2088SOL     OW11110   1.257   3.216   7.488  0.3552 -0.1469  0.6242
 2088SOL    HW111111   1.199   3.176   7.553 -1.5825  2.6952  0.7860
 2088SOL    HW211112   1.198   3.240   7.416  1.7964  0.4187 -0.3841
 2089SOL     OW11113   1.100   3.050   6.437 -0.5905  0.2845  0.5011
 2089SOL    HW111114   1.137   3.138   6.425  2.3886 -1.3972 -3.5013
 2089SOL    HW211115   1.016   3.053   6.392  0.4706  0.4950 -1.5006
 2090SOL     OW11116   0.920   1.229   6.238  0.8021 -0.3196  0.3758
 2090SOL    HW111117   0.919   1.273   6.323 -0.6004 -1.6924  1.0857
 2090SOL    HW211118   0.893   1.296   6.175  0.4957  0.3245  1.1957
 2091SOL     OW11119   0.228   3.929   5.403 -0.1374 -0.3393  0.2344
 2091SOL    HW111120   0.148   3.899   5.446 -0.2059 -0.8977 -0.2738
 2091SOL    HW211121   0.239   3.869   5.329 -0.5626  1.1850 -1.1010
 2092SOL     OW11122   9.974   2.334   6.974  0.4061  0.3284  0.3625
 2092SOL    HW111123   9.912   2.365   7.040  0.3053 -0.6024  0.7097
 2092SOL    HW211124   9.927   2.342   6.892 -0.3514 -0.8133  0.6751
 2093SOL     OW11125   1.488   4.184   5.543 -0.0794  0.0598  0.4735
 2093SOL    HW111126   1.467   4.240   5.618 -0.5471 -0.7432  0.9455
 2093SOL    HW211127   1.488   4.095   5.579  1.8035 -0.1685 -0.0133
 2094SOL     OW11128   1.599   3.494   6.479 -0.0859 -0.0786 -0.6237
 2094SOL    HW111129   1.563   3.578   6.452  0.7707 -0.3091 -2.5273
 2094SOL    HW211130   1.524   3.435   6.481 -0.6927  0.7061  0.7369
 2095SOL     OW11131   0.214   2.442   7.210 -0.6256  0.8429 -0.2156
 2095SOL    HW111132   0.165   2.496   7.149 -0.7114 -1.0676 -1.8624
 2095SOL    HW211133   0.279   2.397   7.157  0.1638  0.1391  1.2943
 2096SOL     OW11134   0.625   1.524   6.523 -0.7385 -0.6548  0.4923
 2096SOL    HW111135   0.540   1.566   6.510 -0.8171 -0.8456  0.3743
 2096SOL    HW211136   0.638   1.472   6.443 -0.6237 -0.8158  0.6158
 2097SOL     OW11137   2.385   0.552   5.512  0.4149  0.2723  0.0038
 2097SOL    HW111138   2.416   0.545   5.602 -0.4886  0.2320  0.3167
 2097SOL    HW211139   2.325   0.627   5.513 -1.3670 -1.1259 -0.0528
 2098SOL     OW11140   0.358   2.290   7.030 -0.8756 -0.0132  0.1634
 2098SOL    HW111141   0.300   2.222   6.995 -1.5263  1.5213 -1.8492
 2098SOL    HW211142   0.420   2.308   6.959  0.0521  0.6314  1.1219
 2099SOL     OW11143   0.513   1.859   5.726  0.1988 -0.4496 -0.9705
 2099SOL    HW111144   0.608   1.855   5.715  0.3936  0.5493  0.3017
 2099SOL    HW211145   0.499   1.914   5.803 -1.4163 -0.5482 -1.1630
 2100SOL     OW11146   1.524   3.378   8.565 -0.2098 -0.0909 -0.6491
 2100SOL    HW111147   1.564   3.424   8.639 -0.7371  2.2465 -1.7625
 2100SOL    HW211148   1.434   3.411   8.561 -0.1575 -0.0747 -2.3979
 2101SOL     OW11149   1.772   1.905   6.809  0.3515 -0.1202 -0.1084
 2101SOL    HW111150   1.751   1.812   6.799 -0.6010  0.1763 -0.8390
 2101SOL    HW211151   1.789   1.915   6.903  1.6518 -1.2755 -0.2045
 2102SOL     OW11152   0.227   2.797   5.252  0.0314  0.3925 -0.6727
 2102SOL    HW111153   0.174   2.862   5.206  0.5066  2.8482  2.1237
 2102SOL    HW211154   0.313   2.839   5.261  0.2580 -0.4899  1.4477
 2103SOL     OW11155   1.933   2.562   5.240 -0.4493 -0.5547 -0.2133
 2103SOL    HW111156   1.890   2.648   5.249 -2.1229 -1.4246  0.4199
 2103SOL    HW211157   1.967   2.543   5.328  0.2103 -0.3892 -0.4335
 2104SOL     OW11158   0.011   2.380   6.202  0.0963 -0.8714 -0.7789
 2104SOL    HW111159   0.094   2.421   6.223 -0.0724 -0.1883 -1.4283
 2104SOL    HW211160  -0.011   2.413   6.115 -1.3075 -0.3163 -0.2291
 2105SOL     OW11161   1.350   1.045   5.436 -0.0634  0.7819 -0.2053
 2105SOL    HW111162   1.276   0.984   5.440  0.7058 -0.2395 -1.0732
 2105SOL    HW211163   1.335   1.107   5.507 -0.6733 -0.6390  0.9153
 2106SOL     OW11164   9.901   0.966   5.740  0.1834  0.3152  0.5057
 2106SOL    HW111165   9.920   0.949   5.832 -0.7024  2.4236  1.1158
 2106SOL    HW211166   9.830   1.031   5.742  0.8209  1.1289 -1.6432
 2107SOL     OW11167   0.544   2.586   5.539 -0.3893  0.0809  0.7044
 2107SOL    HW111168   0.473   2.567   5.477  1.6580 -2.7320 -0.9092
 2107SOL    HW211169   0.615   2.620   5.485  0.0071  1.5958  2.1198
 2108SOL     OW11170   0.388   1.481   7.960 -0.1851 -0.2504  0.3344
 2108SOL    HW111171   0.379   1.537   7.883  1.2169  1.4914  1.4007
 2108SOL    HW211172   0.432   1.403   7.928  1.7937  1.1104 -0.3958
 2109SOL     OW11173   0.292   2.375   8.025  0.2736  0.2180 -0.3670
 2109SOL    HW111174   0.280   2.457   7.978  0.0387 -0.0035 -0.6987
 2109SOL    HW211175   0.292   2.308   7.956  0.6884 -0.0386 -0.1216
 2110SOL     OW11176   2.551   2.161   6.809  0.0773 -0.3067 -0.2141
 2110SOL    HW111177   2.474   2.105   6.821  2.3974 -3.7129 -0.4471
 2110SOL    HW211178   2.584   2.137   6.723  2.0090  0.3167  0.3384
 2111SOL     OW11179   0.832   3.208   4.870  0.5171  0.0786 -0.4826
 2111SOL    HW111180   0.901   3.266   4.900 -0.2875  0.5368  0.5188
 2111SOL    HW211181   0.755   3.265   4.863  0.2114 -0.4431 -1.4648
 2112SOL     OW11182   9.498   2.300   5.537 -0.5527  0.2548 -0.1957
 2112SOL    HW111183   9.505   2.205   5.548 -1.4556  0.4093  1.9619
 2112SOL    HW211184   9.416   2.324   5.579 -0.8909  1.8758 -1.6911
 2113SOL     OW11185   0.553   3.203   5.835  0.1550 -0.2562  0.3177
 2113SOL    HW111186   0.544   3.258   5.757 -0.3115  0.8386  1.1325
 2113SOL    HW211187   0.631   3.235   5.878 -0.6218  0.3697  1.2700
 2114SOL     OW11188   9.637   2.410   7.994 -0.2838  0.0137 -0.2123
 2114SOL    HW111189   9.573   2.355   7.950 -0.7435  0.7236 -0.4234
 2114SOL    HW211190   9.663   2.359   8.071 -0.8974 -0.3886 -0.2711
 2115SOL     OW11191   0.795   3.217   9.175 -0.4172  0.3591 -0.1843
 2115SOL    HW111192   0.713   3.264   9.158  0.3721  1.3433 -1.3702
 2115SOL    HW211193   0.848   3.234   9.097  0.9686 -0.1373  0.6497
 2116SOL     OW11194   9.255   2.384   9.094  0.1306 -0.1776 -0.4200
 2116SOL    HW111195   9.199   2.429   9.031 -0.8653 -0.5982  0.1553
 2116SOL    HW211196   9.339   2.374   9.049 -0.2926  0.3480 -1.3280
 2117SOL     OW11197   1.112   3.048   9.086 -0.3424  0.0403  0.5100
 2117SOL    HW111198   1.062   3.086   9.014  1.7434 -1.4357 -1.7687
 2117SOL    HW211199   1.149   3.123   9.132 -0.0734  0.9527 -1.1673
 2118SOL     OW11200   1.681   0.845   7.528  0.1655  0.4017  0.1174
 2118SOL    HW111201   1.615   0.874   7.465 -0.5134 -2.9300 -0.8088
 2118SOL    HW211202   1.752   0.809   7.475  0.6437 -0.2931  1.1972
 2119SOL     OW11203   1.279   1.916   8.177 -0.2952 -0.0394 -0.4078
 2119SOL    HW111204   1.280   1.980   8.106  0.1706 -1.0114 -1.2918
 2119SOL    HW211205   1.200   1.936   8.227 -0.3513  0.9778 -0.8935
 2120SOL     OW11206   8.977   2.292   7.219 -0.0271 -0.0624  0.2867
 2120SOL    HW111207   8.956   2.201   7.197  4.6647 -0.6211 -2.7672
 2120SOL    HW211208   8.913   2.344   7.171 -2.2460 -1.6971  1.4136
 2121SOL     OW11209   1.037   1.940   9.827  0.2982  0.8431 -0.2783
 2121SOL    HW111210   0.964   1.893   9.868  2.5858 -0.7806  2.1385
 2121SOL    HW211211   1.054   1.892   9.746 -0.7170  0.6791 -0.4018
 2122SOL     OW11212   9.240   3.834   8.516  0.0483 -0.2947  0.2927
 2122SOL    HW111213   9.214   3.745   8.490  0.5184 -0.9374  2.0216
 2122SOL    HW211214   9.305   3.860   8.451 -0.3852 -1.0447 -0.4510
 2123SOL     OW11215   0.496   1.725   8.259 -0.1297  0.3633 -0.6315
 2123SOL    HW111216   0.466   1.635   8.247 -0.3762 -0.1472  3.4082
 2123SOL    HW211217   0.418   1.778   8.248 -0.1687  0.0454 -2.0468
 2124SOL     OW11218   2.224   2.264   8.745 -0.3790 -0.1429 -0.3469
 2124SOL    HW111219   2.158   2.298   8.686 -2.1116 -0.3800  1.4165
 2124SOL    HW211220   2.300   2.321   8.731 -1.8462  1.8636 -0.4256
 2125SOL     OW11221   0.273   1.482   9.327  0.2329 -0.1155 -0.0798
 2125SOL    HW111222   0.352   1.521   9.364  0.0805 -0.0969  0.2322
 2125SOL    HW211223   0.263   1.523   9.241 -0.1477  0.8311  0.4066
 2126SOL     OW11224   0.274   1.867   8.172  0.6652  0.4464 -0.3391
 2126SOL    HW111225   0.206   1.822   8.122  0.5215 -1.1761  1.2684
 2126SOL    HW211226   0.320   1.920   8.107 -2.4242  1.9597 -1.3827
 2127SOL     OW11227   0.428   2.413   8.260  0.0841 -0.3214 -0.6938
 2127SOL    HW111228   0.358   2.390   8.198 -1.9880 -0.6442  1.7100
 2127SOL    HW211229   0.422   2.347   8.329  1.8917  0.4693  0.2594
 2128SOL     OW11230   1.597   1.149   8.479 -0.2016 -0.8581  0.3478
 2128SOL    HW111231   1.670   1.187   8.528 -0.4025  0.2041 -0.1816
 2128SOL    HW211232   1.562   1.081   8.537  1.8758 -2.1094  0.1735
 2129SOL     OW11233   2.111   1.432   9.434  0.6628 -0.1611  0.0887
 2129SOL    HW111234   2.082   1.454   9.346 -0.8850 -1.2500  0.3041
 2129SOL    HW211235   2.063   1.352   9.456 -0.2022  0.9833  2.5289
 2130SOL     OW11236   9.218   2.102   8.068 -0.1658  0.4375 -0.0595
 2130SOL    HW111237   9.233   2.189   8.033 -0.9064  0.7294  0.3381
 2130SOL    HW211238   9.140   2.070   8.021  0.6336 -0.3836 -0.8728
 2131SOL     OW11239   2.047   3.258   8.990  0.0953 -0.5780 -0.5356
 2131SOL    HW111240   2.058   3.183   9.049 -0.4541  0.1704  0.5450
 2131SOL    HW211241   2.020   3.329   9.048  2.8046  1.0551 -1.2158
 2132SOL     OW11242   1.349   3.869   7.860 -0.4175  0.2308 -0.1666
 2132SOL    HW111243   1.439   3.840   7.845 -0.7344 -0.8351 -0.0315
 2132SOL    HW211244   1.322   3.823   7.940 -0.9344  0.8913  0.0473
 2133SOL     OW11245   8.613   2.703   9.275 -0.2109 -0.3170  0.1726
 2133SOL    HW111246   8.541   2.645   9.252 -1.3813  0.3175  2.0827
 2133SOL    HW211247   8.578   2.759   9.344  2.0710  0.1174  1.0472
 2134SOL     OW11248   0.742   2.603   6.520 -0.2706 -0.2649  0.4641
 2134SOL    HW111249   0.772   2.518   6.488  1.7895  0.9040 -0.7659
 2134SOL    HW211250   0.782   2.667   6.461 -0.7628  1.6368  2.1389
 2135SOL     OW11251   9.446   1.691   7.316 -0.3287 -0.2075  0.2417
 2135SOL    HW111252   9.484   1.604   7.314  0.1274 -0.0109  0.2963
 2135SOL    HW211253   9.505   1.745   7.264 -0.9120 -0.0506 -0.2665
 2136SOL     OW11254   1.175   1.740   7.613  0.4013  0.5409  0.0986
 2136SOL    HW111255   1.168   1.701   7.526  3.6938  1.3160 -0.5998
 2136SOL    HW211256   1.131   1.824   7.605 -0.2818  0.1369 -0.4855
 2137SOL     OW11257   0.094   2.930   9.188  0.8419  0.6916  0.1395
 2137SOL    HW111258   0.080   2.963   9.277  1.3597 -1.6292  1.1163
 2137SOL    HW211259   0.188   2.939   9.174  0.8423  0.5351  0.0404
 2138SOL     OW11260   0.240   1.689   8.431  0.7237 -0.0949  0.1227
 2138SOL    HW111261   0.247   1.599   8.401  0.2557  0.3524 -1.3674
 2138SOL    HW211262   0.160   1.722   8.389  1.2400  1.2124  0.1536
 2139SOL     OW11263   2.027   3.040   0.098 -0.1375  0.0951  0.3388
 2139SOL    HW111264   2.000   3.037   0.190  0.9493  2.0244  0.7389
 2139SOL    HW211265   2.011   3.130   0.071  2.1782  0.2799 -0.5458
 2140SOL     OW11266   9.737   1.599   9.415 -0.4278 -0.0480 -0.5578
 2140SOL    HW111267   9.782   1.672   9.372  0.7124  0.0399  0.7611
 2140SOL    HW211268   9.690   1.639   9.488 -1.3235 -0.3815 -0.9426
 2141SOL     OW11269   0.617   1.716   8.527  0.6623  0.0072  0.3120
 2141SOL    HW111270   0.542   1.725   8.585 -0.8300 -5.0785 -0.5412
 2141SOL    HW211271   0.587   1.751   8.443 -0.1713 -0.4360  0.4219
 2142SOL     OW11272   0.933   2.676   7.749 -0.0979 -0.3016 -0.4165
 2142SOL    HW111273   0.967   2.699   7.836 -2.8050 -0.0720  0.6286
 2142SOL    HW211274   0.983   2.731   7.689  0.5312  0.8989  1.1616
 2143SOL     OW11275   0.658   2.630   6.786 -0.1488  0.7277  0.1972
 2143SOL    HW111276   0.672   2.615   6.693 -0.1600 -0.0404  0.3153
 2143SOL    HW211277   0.709   2.562   6.830 -1.8408 -0.2577  0.6928
 2144SOL     OW11278   1.136   1.196   8.147 -0.2412  0.3938  0.2905
 2144SOL    HW111279   1.117   1.287   8.170  0.0258  0.7635 -0.9229
 2144SOL    HW211280   1.133   1.195   8.052  1.1882 -0.5610  0.2458
 2145SOL     OW11281   0.872   2.260   7.707 -0.6918 -0.4086 -0.1573
 2145SOL    HW111282   0.841   2.182   7.754 -0.1366 -0.7265 -0.3220
 2145SOL    HW211283   0.851   2.333   7.766 -0.0004 -0.8081  0.5843
 2146SOL     OW11284   0.934   1.580   0.477 -0.1183 -0.2829  0.0634
 2146SOL    HW111285   0.848   1.563   0.516  0.5535  0.2876  1.8571
 2146SOL    HW211286   0.959   1.497   0.435 -1.9076 -0.1963 -1.2417
 2147SOL     OW11287   0.492   1.508   8.735  0.2263 -0.2572  0.0037
 2147SOL    HW111288   0.444   1.590   8.720 -1.6195 -1.6344 -2.0365
 2147SOL    HW211289   0.568   1.514   8.677 -0.8384 -0.7175 -1.4588
 2148SOL     OW11290   1.441   1.220   0.344 -0.0993  0.1062 -0.4630
 2148SOL    HW111291   1.440   1.279   0.269 -0.4695 -0.6214 -1.0449
 2148SOL    HW211292   1.359   1.238   0.391 -1.0765 -1.1478 -1.6191
 2149SOL     OW11293   1.073   9.760   8.395  0.5525  0.1506  0.4605
 2149SOL    HW111294   0.992   9.737   8.441  0.4640 -0.2927  0.0798
 2149SOL    HW211295   1.135   9.691   8.418 -0.0647 -1.1487 -1.6102
 2150SOL     OW11296   0.790   2.194   7.419  0.4683  0.2683  0.2657
 2150SOL    HW111297   0.836   2.217   7.500  0.9955 -2.7272  0.8897
 2150SOL    HW211298   0.800   2.099   7.412 -5.1354 -0.4954  0.1230
 2151SOL     OW11299   0.030   3.994   8.088  0.6018  0.3950  0.2311
 2151SOL    HW111300   0.109   3.940   8.085  0.7535  0.6116  0.4157
 2151SOL    HW211301  -0.042   3.931   8.088  0.7351  0.2075 -1.4580
 2152SOL     OW11302   0.241   3.889   0.003 -0.0253  0.3770 -0.6640
 2152SOL    HW111303   0.307   3.879   0.071  0.7138  0.8186 -1.3041
 2152SOL    HW211304   0.280   3.952  -0.059 -2.0095  2.5309  0.1924
 2153SOL     OW11305   0.174   2.066   8.343 -0.2724 -0.1479 -0.2619
 2153SOL    HW111306   0.233   2.142   8.336 -1.8164  0.8518 -3.0408
 2153SOL    HW211307   0.222   1.995   8.300  1.0302 -0.7056  2.0351
 2154SOL     OW11308   1.571   2.142   0.006  0.5530 -0.0219  0.2412
 2154SOL    HW111309   1.501   2.091  -0.033  1.1679 -0.6237 -0.0862
 2154SOL    HW211310   1.611   2.188  -0.068 -0.5536  1.6264  0.6483
 2155SOL     OW11311   0.588   2.091   7.121 -0.8335  0.3306  0.1534
 2155SOL    HW111312   0.601   2.136   7.037 -0.3194  0.9017  0.5287
 2155SOL    HW211313   0.629   2.149   7.185 -1.1880 -0.1254  0.7929
 2156SOL     OW11314   8.977   1.979   7.956  0.5217 -0.4795 -0.5588
 2156SOL    HW111315   8.916   1.920   7.999 -0.2804 -0.4222 -1.5859
 2156SOL    HW211316   8.944   1.986   7.866 -0.1788  2.5726 -0.1189
 2157SOL     OW11317   0.464   3.022   8.131  0.0558 -0.1006 -0.1201
 2157SOL    HW111318   0.549   3.008   8.089  0.6197 -0.0210  0.9725
 2157SOL    HW211319   0.485   3.030   8.224 -1.0283  1.0945  0.0262
 2158SOL     OW11320   9.762   4.259   8.317 -0.3731 -0.3251  0.5019
 2158SOL    HW111321   9.742   4.335   8.371  1.3526 -0.7146  1.7355
 2158SOL    HW211322   9.771   4.187   8.379 -1.6165 -1.4849 -0.6184
 2159SOL     OW11323   0.600   2.569   9.288 -0.3925 -0.2552 -0.0130
 2159SOL    HW111324   0.517   2.611   9.308  0.1642  1.0563 -0.4085
 2159SOL    HW211325   0.618   2.591   9.196  1.4743  1.3763  0.7097
 2160SOL     OW11326   1.472   2.898   9.309  0.4176  0.5386 -0.2265
 2160SOL    HW111327   1.535   2.905   9.238  0.1955 -1.8965 -0.7140
 2160SOL    HW211328   1.498   2.966   9.372  1.7373  1.4696 -1.7594
 2161SOL     OW11329   0.092   2.240   9.321  0.1962 -0.1065  0.4544
 2161SOL    HW111330   0.102   2.205   9.409  0.8643  1.3106  0.9526
 2161SOL    HW211331   0.045   2.323   9.333 -2.2042 -1.2384 -0.7904
 2162SOL     OW11332   9.502   1.532   8.048 -0.1783 -0.4102 -0.5086
 2162SOL    HW111333   9.597   1.528   8.037  0.1615  0.8641  1.7434
 2162SOL    HW211334   9.474   1.596   7.983  0.7361  0.5567  0.0253
 2163SOL     OW11335   0.910   3.192   8.929  0.1985 -0.2546 -0.0413
 2163SOL    HW111336   0.850   3.141   8.874  1.8103 -1.0886 -1.0768
 2163SOL    HW211337   0.964   3.241   8.867 -0.4710  1.7687  0.9183
 2164SOL     OW11338   0.524   4.638   7.760 -0.1612 -0.2885 -0.1393
 2164SOL    HW111339   0.481   4.597   7.685 -0.7701 -1.1711  0.6772
 2164SOL    HW211340   0.589   4.697   7.721  1.0161 -2.3173 -1.3624
 2165SOL     OW11341   1.081   2.103   9.459 -0.4920  0.5210  0.6421
 2165SOL    HW111342   1.046   2.065   9.379 -2.9702  3.5047  0.1967
 2165SOL    HW211343   1.023   2.071   9.528  0.4667 -0.5037  0.9783
 2166SOL     OW11344   1.062   9.269   7.306  0.2069 -0.3162 -0.4545
 2166SOL    HW111345   1.052   9.283   7.212 -1.2691 -1.1986 -0.4450
 2166SOL    HW211346   1.062   9.357   7.343  2.0379  0.1030 -1.3791
 2167SOL     OW11347   0.115   2.116   7.070 -0.0336  0.3029 -0.0650
 2167SOL    HW111348   0.084   2.204   7.049 -1.2650 -0.5260 -1.8359
 2167SOL    HW211349   0.074   2.060   7.004  0.1141 -1.7071  1.5174
 2168SOL     OW11350   0.008   3.342   8.866 -0.2958 -0.9067 -0.0809
 2168SOL    HW111351   0.014   3.316   8.957  0.3803  2.7659  0.9923
 2168SOL    HW211352  -0.086   3.355   8.851 -0.5684 -3.0883 -0.4266
 2169SOL     OW11353   9.038   2.224   9.221  0.1218 -0.1073 -0.1580
 2169SOL    HW111354   9.065   2.139   9.185  1.8462 -0.1211  1.1611
 2169SOL    HW211355   9.102   2.286   9.186 -1.1094  0.6644 -1.0848
 2170SOL     OW11356   1.998   2.320   9.790 -0.9184 -0.7217 -0.1733
 2170SOL    HW111357   1.980   2.290   9.701 -3.8549 -1.4884  0.6375
 2170SOL    HW211358   2.036   2.244   9.833 -1.2922 -0.9533 -0.2476
 2171SOL     OW11359   9.549   1.425   6.651 -0.1543 -0.0377 -0.1899
 2171SOL    HW111360   9.531   1.411   6.744 -1.7334 -0.2972 -0.5092
 2171SOL    HW211361   9.614   1.495   6.649 -1.6655  1.4427  1.0625
 2172SOL     OW11362   1.457   2.734   8.464  0.1874  0.1005  0.1665
 2172SOL    HW111363   1.425   2.731   8.554  1.0053 -0.6562  0.4400
 2172SOL    HW211364   1.387   2.695   8.412 -0.5693  1.1512  0.3860
 2173SOL     OW11365   2.121   2.217   8.422 -0.2010 -0.2106  0.1158
 2173SOL    HW111366   2.042   2.167   8.441 -0.2552  0.0498  0.5916
 2173SOL    HW211367   2.187   2.151   8.402 -0.4650 -0.4406 -0.0096
 2174SOL     OW11368   0.568   3.488   8.218  0.4354  0.0340 -0.7287
 2174SOL    HW111369   0.663   3.502   8.210  0.3775  0.8919 -0.0635
 2174SOL    HW211370   0.554   3.477   8.312  0.1110 -1.9789 -0.9898
 2175SOL     OW11371   9.798   1.818   9.248  0.0151  0.4427  0.2297
 2175SOL    HW111372   9.819   1.910   9.264 -1.3301  0.8352 -0.2173
 2175SOL    HW211373   9.703   1.815   9.245  0.0670 -0.8035 -0.7335
 2176SOL     OW11374   1.098   1.977   7.209  0.0974  0.2901 -0.1830
 2176SOL    HW111375   1.175   1.926   7.233  0.7712  1.8017  0.9349
 2176SOL    HW211376   1.071   1.941   7.125  0.8688 -1.5418  0.3254
 2177SOL     OW11377   1.537   3.820   8.088  0.4854 -0.8233  0.9335
 2177SOL    HW111378   1.498   3.895   8.132 -0.0533  1.2162 -2.7780
 2177SOL    HW211379   1.631   3.831   8.101  0.6162  2.0925 -1.7716
 2178SOL     OW11380   9.664   2.686   8.392  0.2968 -0.3582  0.1048
 2178SOL    HW111381   9.633   2.678   8.301 -0.1572  2.1412  0.0262
 2178SOL    HW211382   9.698   2.775   8.398 -1.8215  0.3142  3.0534
 2179SOL     OW11383   1.793   2.582   8.540  0.4010 -0.0434 -0.0107
 2179SOL    HW111384   1.800   2.496   8.497 -3.0732 -0.2697 -0.2518
 2179SOL    HW211385   1.791   2.561   8.634 -0.8996 -0.2842 -0.0844
 2180SOL     OW11386   1.336   4.590   0.427 -0.7083  0.6336 -0.2519
 2180SOL    HW111387   1.302   4.574   0.515 -1.8568 -0.3820 -0.8774
 2180SOL    HW211388   1.410   4.650   0.441 -1.4696  1.2376  1.3077
 2181SOL     OW11389   0.520   2.268   7.360  0.1009  0.2400  0.1664
 2181SOL    HW111390   0.606   2.235   7.386  0.1487 -1.4226 -1.9279
 2181SOL    HW211391   0.539   2.329   7.288 -0.4719 -0.2993 -0.4473
 2182SOL     OW11392   0.595   3.722   6.796  0.5219 -0.0547 -0.2514
 2182SOL    HW111393   0.577   3.815   6.783 -0.4312 -0.3088 -0.8540
 2182SOL    HW211394   0.631   3.716   6.885  0.8378  0.9133 -0.3120
 2183SOL     OW11395   0.908   1.446   6.401  0.4598  0.1218 -0.2904
 2183SOL    HW111396   0.820   1.477   6.422  0.2638  0.2909 -1.3741
 2183SOL    HW211397   0.963   1.524   6.404  0.5153  0.0747  0.0072
 2184SOL     OW11398   0.468   1.191   8.555  0.2388 -0.0758  0.5639
 2184SOL    HW111399   0.378   1.225   8.556  0.0272 -0.6344  0.3482
 2184SOL    HW211400   0.523   1.270   8.556 -0.2526  0.2743  0.0478
 2185SOL     OW11401   1.706   2.007   7.999 -0.2383 -0.0059 -0.3760
 2185SOL    HW111402   1.716   1.942   7.930  1.0098  0.6302 -0.8060
 2185SOL    HW211403   1.744   1.966   8.077  2.3836  0.9211 -1.1025
 2186SOL     OW11404   9.706   0.971   8.022 -0.4646 -0.3642  0.2716
 2186SOL    HW111405   9.665   0.986   7.937  0.6864 -0.9232 -0.4112
 2186SOL    HW211406   9.763   0.895   8.007  1.8659  1.2280  0.7956
 2187SOL     OW11407   9.916   2.406   8.848  0.2784  0.0219  0.5100
 2187SOL    HW111408   9.827   2.415   8.815  0.7892  0.9362 -0.6724
 2187SOL    HW211409   9.906   2.366   8.934 -1.2351 -0.3836  0.1638
 2188SOL     OW11410   9.112   2.044   8.342 -0.0101 -0.0410  0.4116
 2188SOL    HW111411   9.193   1.997   8.366 -1.3999 -2.1060  1.2623
 2188SOL    HW211412   9.124   2.068   8.250  2.3239  1.3257  1.0356
 2189SOL     OW11413   1.007   2.000   6.573 -0.1569 -0.1261  0.7640
 2189SOL    HW111414   0.994   2.071   6.509 -0.5797  0.3604  1.3850
 2189SOL    HW211415   1.008   1.920   6.520  0.5917  0.3611  0.0232
 2190SOL     OW11416   0.482   0.948   8.801  0.1753  0.0318  0.5848
 2190SOL    HW111417   0.566   0.960   8.758  0.1730  1.2560  0.8829
 2190SOL    HW211418   0.494   0.986   8.888  0.1552 -2.3221  1.6611
 2191SOL     OW11419   1.236   1.066   8.628 -0.6848  0.4194  0.3347
 2191SOL    HW111420   1.324   1.087   8.599 -1.1556  0.6105 -1.0020
 2191SOL    HW211421   1.248   1.009   8.704  0.5770  0.2876  0.0416
 2192SOL     OW11422   0.482   0.919   8.127 -0.0855  0.1429 -0.1060
 2192SOL    HW111423   0.514   0.978   8.195  0.8333 -0.5077  0.0269
 2192SOL    HW211424   0.467   0.976   8.051  3.8633  0.1235 -1.0183
 2193SOL     OW11425   9.203   0.957   8.482  0.2997 -0.4699  0.1017
 2193SOL    HW111426   9.141   1.020   8.519 -0.8845 -1.6437  0.1504
 2193SOL    HW211427   9.182   0.954   8.389  0.8341 -0.2412 -0.0244
 2194SOL     OW11428   2.569   2.535   9.333  0.4750 -0.0749  0.2142
 2194SOL    HW111429   2.475   2.555   9.342  0.5895  1.3522 -1.3575
 2194SOL    HW211430   2.603   2.540   9.422 -0.7184  0.6023  0.6543
 2195SOL     OW11431   2.284   4.692   8.406 -0.1568 -0.4459 -0.0937
 2195SOL    HW111432   2.287   4.747   8.328  2.2948 -2.5966 -1.6043
 2195SOL    HW211433   2.193   4.698   8.436 -0.3975  2.9037 -1.2375
 2196SOL     OW11434   0.716   4.529   0.859  0.0672  0.3236  0.7372
 2196SOL    HW111435   0.681   4.604   0.812  1.8050  0.0953 -0.9761
 2196SOL    HW211436   0.804   4.517   0.823  0.0983 -2.0591  1.5228
 2197SOL     OW11437   1.005   2.852   9.460 -0.1979 -0.1414  0.1099
 2197SOL    HW111438   1.064   2.927   9.458  0.0902 -0.3075  1.8879
 2197SOL    HW211439   0.983   2.841   9.552 -0.5514 -2.0069 -0.1764
 2198SOL     OW11440   2.176   2.369   9.575  0.2869 -0.5009 -0.1868
 2198SOL    HW111441   2.119   2.429   9.527  0.1210  0.0830  0.7309
 2198SOL    HW211442   2.212   2.311   9.508 -0.6691 -0.2885 -0.8873
 2199SOL     OW11443   0.235   0.874   8.922  0.2371 -0.0360 -0.2836
 2199SOL    HW111444   0.293   0.897   8.995 -0.5286 -0.5384  0.4891
 2199SOL    HW211445   0.288   0.888   8.844  1.3698 -0.3907  0.4107
 2200SOL     OW11446   9.335   1.833   8.618  0.0319 -0.2762  0.5030
 2200SOL    HW111447   9.372   1.852   8.532 -1.9985 -2.3858 -0.9123
 2200SOL    HW211448   9.411   1.815   8.673  1.3414  0.2006 -1.0940
 2201SOL     OW11449   0.636   2.561   8.095 -0.1885 -0.2309  0.1654
 2201SOL    HW111450   0.597   2.599   8.017  0.5917  0.5693  0.1547
 2201SOL    HW211451   0.562   2.543   8.153 -0.6147  0.8066 -0.0551
 2202SOL     OW11452   9.760   1.658   8.003  0.0516 -0.7598 -0.1314
 2202SOL    HW111453   9.850   1.638   7.977  0.3827  0.1639  0.2900
 2202SOL    HW211454   9.737   1.736   7.952 -0.2721 -0.5997  0.2619
 2203SOL     OW11455   1.921   2.828   8.432 -0.2325  0.0353  0.0572
 2203SOL    HW111456   1.844   2.867   8.391 -0.0426 -1.4294 -1.7647
 2203SOL    HW211457   1.892   2.742   8.461  0.8571 -0.7836 -1.2056
 2204SOL     OW11458   8.732   3.355   7.022 -0.0666 -0.2412  0.7736
 2204SOL    HW111459   8.734   3.345   6.927 -2.2769 -2.3263  0.9105
 2204SOL    HW211460   8.778   3.438   7.038  2.4084 -1.0262 -1.9000
 2205SOL     OW11461   0.795   4.010   8.131  0.0458 -0.2384 -0.1227
 2205SOL    HW111462   0.760   3.923   8.148  0.1809  0.0074  1.4667
 2205SOL    HW211463   0.776   4.060   8.211 -0.7929  1.4383 -1.3233
 2206SOL     OW11464   1.277   3.584   8.787 -0.7590  0.0739 -0.0363
 2206SOL    HW111465   1.287   3.543   8.701 -0.0097 -0.3976  0.2734
 2206SOL    HW211466   1.183   3.582   8.804 -0.7537 -1.2130 -0.1621
 2207SOL     OW11467   1.056   1.721   7.927  0.2271 -0.1216 -0.6570
 2207SOL    HW111468   1.015   1.796   7.970 -0.7902 -0.0653 -1.6771
 2207SOL    HW211469   0.988   1.654   7.928  0.5671 -0.4724 -1.2029
 2208SOL     OW11470   9.911   3.243   8.063  0.2304  0.3163 -0.6506
 2208SOL    HW111471   9.938   3.186   8.135  0.2580  0.0365 -0.8842
 2208SOL    HW211472   9.892   3.184   7.991  1.7363  0.6825 -1.3832
 2209SOL     OW11473   0.547   3.374   9.436 -0.5921 -0.8823  0.1911
 2209SOL    HW111474   0.562   3.391   9.343 -1.9143 -0.0120  0.1239
 2209SOL    HW211475   0.622   3.416   9.480 -0.2408 -0.8354 -0.4368
 2210SOL     OW11476   1.131   2.704   8.924 -0.0355  0.2368  0.9837
 2210SOL    HW111477   1.206   2.696   8.984  1.5983  0.8648 -0.8997
 2210SOL    HW211478   1.105   2.796   8.930 -1.1275 -0.1340  2.1518
 2211SOL     OW11479   1.705   2.331   9.125  0.0321 -0.0305 -0.5243
 2211SOL    HW111480   1.788   2.361   9.163 -0.1599 -0.5032  0.2777
 2211SOL    HW211481   1.707   2.236   9.136 -0.5289 -0.0624 -0.6884
 2212SOL     OW11482   0.434   0.109   8.335  0.0650 -0.7610 -0.2217
 2212SOL    HW111483   0.472   0.158   8.408 -1.6663 -1.9799  1.5359
 2212SOL    HW211484   0.475   0.023   8.339 -0.5497 -1.0593 -0.2495
 2213SOL     OW11485   0.990   1.918   9.031  0.0607 -0.0887 -0.0062
 2213SOL    HW111486   0.981   1.929   8.937 -0.2712 -0.5155 -0.0223
 2213SOL    HW211487   1.070   1.867   9.042 -1.1188 -1.9976 -0.1655
 2214SOL     OW11488   9.087   0.965   7.631 -0.2272  0.2921  0.0512
 2214SOL    HW111489   8.996   0.992   7.643 -0.7650 -1.3929 -0.0224
 2214SOL    HW211490   9.100   0.966   7.536 -0.0319  0.9569  0.0840
 2215SOL     OW11491   0.106   3.250   9.557  0.3171 -0.3332  0.0023
 2215SOL    HW111492   0.192   3.230   9.595  0.8139 -0.4643 -1.1555
 2215SOL    HW211493   0.078   3.330   9.600  1.7752  0.6176 -0.7893
 2216SOL     OW11494   0.202   2.316   7.465  0.1325  0.9689  0.3388
 2216SOL    HW111495   0.181   2.390   7.522 -2.1726 -0.2466  1.1289
 2216SOL    HW211496   0.194   2.352   7.376  0.2879  1.9886  0.7342
 2217SOL     OW11497   3.428   0.351   0.038 -0.4547 -0.0955 -0.2035
 2217SOL    HW111498   3.342   0.361   0.079 -0.3309  2.1567 -0.4361
 2217SOL    HW211499   3.490   0.368   0.109 -0.2405  1.8937 -0.8211
 2218SOL     OW11500   1.013   2.627   8.655 -0.4791  0.1061 -0.9897
 2218SOL    HW111501   0.955   2.700   8.635 -1.4528 -0.4931 -0.3886
 2218SOL    HW211502   1.066   2.657   8.728  1.1857  1.2909 -2.6408
 2219SOL     OW11503   2.880   3.260   7.742  0.6820  0.3187 -0.2057
 2219SOL    HW111504   2.811   3.194   7.740  0.4313  0.5964 -0.8864
 2219SOL    HW211505   2.909   3.268   7.650 -0.8137  2.7355 -0.5050
 2220SOL     OW11506   0.252   0.346   8.676 -0.4606  0.0914 -0.2486
 2220SOL    HW111507   0.234   0.440   8.673 -0.9950  0.0762  2.0455
 2220SOL    HW211508   0.208   0.312   8.597  0.8012  1.9021 -1.7744
 2221SOL     OW11509   0.979   4.646   8.732  0.1590 -0.1454 -0.0308
 2221SOL    HW111510   1.004   4.585   8.802  0.7089  1.9557  1.6389
 2221SOL    HW211511   1.036   4.623   8.659  0.9575 -1.0778  0.8683
 2222SOL     OW11512   1.446   3.675   0.495  0.0785 -0.3139  0.1132
 2222SOL    HW111513   1.524   3.623   0.473 -0.6186 -1.5898  0.6119
 2222SOL    HW211514   1.416   3.709   0.411 -0.4138 -2.1030 -0.4640
 2223SOL     OW11515   0.796   2.620   9.078 -0.0053 -0.0684 -0.3558
 2223SOL    HW111516   0.849   2.698   9.091  0.0898  0.1691 -2.0510
 2223SOL    HW211517   0.830   2.557   9.141  0.4739  0.9867  0.4400
 2224SOL     OW11518   0.232   2.859   8.212 -0.1117 -0.0348  0.0797
 2224SOL    HW111519   0.310   2.863   8.157 -0.1545  1.6760  0.1188
 2224SOL    HW211520   0.248   2.923   8.280 -2.4700  1.9288 -1.1517
 2225SOL     OW11521   1.417   1.667   8.040 -0.8495 -0.0524 -0.3642
 2225SOL    HW111522   1.357   1.597   8.064 -0.0534 -0.2121  1.2090
 2225SOL    HW211523   1.504   1.634   8.065 -0.2795  0.8003 -1.1799
 2226SOL     OW11524   0.875   2.342   9.546  0.1461  1.3562 -0.6588
 2226SOL    HW111525   0.857   2.428   9.584 -1.2719  0.9976 -0.5052
 2226SOL    HW211526   0.903   2.289   9.621 -0.7492  1.1879 -0.4377
 2227SOL     OW11527   0.212   3.876   8.336  0.7894 -0.2117  0.4100
 2227SOL    HW111528   0.162   3.796   8.325  2.5750 -1.1843 -0.7463
 2227SOL    HW211529   0.240   3.900   8.248 -1.4332  2.8455  0.4295
 2228SOL     OW11530   9.126   2.682   9.225  0.1613 -0.1611  0.3926
 2228SOL    HW111531   9.139   2.591   9.198 -0.4405 -0.2082  0.2533
 2228SOL    HW211532   9.045   2.680   9.275 -0.0330  0.3614  0.0952
 2229SOL     OW11533   1.545   1.204   8.890 -0.4259  0.4827  0.2341
 2229SOL    HW111534   1.601   1.231   8.963  0.9377  2.7069 -1.5733
 2229SOL    HW211535   1.515   1.116   8.914 -0.9882  1.6216  4.0196
 2230SOL     OW11536   2.068   2.768   8.863 -0.1415 -0.1196  0.2725
 2230SOL    HW111537   1.983   2.738   8.897 -0.1019 -0.2458  0.2600
 2230SOL    HW211538   2.132   2.716   8.910 -0.0603  0.1897  0.4986
 2231SOL     OW11539   0.528   3.850   9.498  0.7375  0.5941 -0.7878
 2231SOL    HW111540   0.553   3.942   9.512  3.3581 -0.0863 -0.7757
 2231SOL    HW211541   0.611   3.803   9.496 -0.5657 -1.7352 -1.2499
 2232SOL     OW11542   9.662   2.052   0.362 -0.2141 -0.4928 -0.5227
 2232SOL    HW111543   9.707   2.004   0.292  0.2017 -1.5746  0.4780
 2232SOL    HW211544   9.648   1.987   0.430  0.5543  0.8536  0.9554
 2233SOL     OW11545   0.206   1.696   9.618  0.1553  0.0626  0.2133
 2233SOL    HW111546   0.297   1.715   9.595  0.3508 -1.7547 -0.6112
 2233SOL    HW211547   0.155   1.722   9.541 -0.0704  1.4166  0.8125
 2234SOL     OW11548   8.424   2.691   7.995  0.0756  0.0083 -0.0294
 2234SOL    HW111549   8.411   2.636   7.918 -1.3719  1.0559 -0.5729
 2234SOL    HW211550   8.403   2.780   7.964 -0.9563  0.3881  1.6599
 2235SOL     OW11551   0.298   2.390   0.134  1.0787  0.8318 -0.4201
 2235SOL    HW111552   0.376   2.443   0.145  1.7028 -0.5529  2.1023
 2235SOL    HW211553   0.330   2.306   0.101  0.5181  0.6852 -0.6010
 2236SOL     OW11554   1.167   3.061   9.467  0.3039  0.1190 -0.4356
 2236SOL    HW111555   1.208   3.103   9.391 -0.4340  2.0039  0.1654
 2236SOL    HW211556   1.200   3.110   9.542 -0.7817 -0.1974  0.2664
 2237SOL     OW11557   0.834   0.612   9.112  0.0597 -0.0434 -0.2205
 2237SOL    HW111558   0.810   0.665   9.188  0.7108 -0.9643  0.6400
 2237SOL    HW211559   0.927   0.591   9.127 -0.7763 -3.3313  0.6167
 2238SOL     OW11560   1.840   2.193   9.531  0.3224 -0.3309 -0.0027
 2238SOL    HW111561   1.762   2.137   9.523  1.5391 -2.3500  1.9642
 2238SOL    HW211562   1.908   2.145   9.484  0.8060  0.6886 -0.3561
 2239SOL     OW11563   0.137   4.264   1.231 -0.1554 -0.2658 -0.3415
 2239SOL    HW111564   0.131   4.221   1.145  1.3744 -1.3335  0.0681
 2239SOL    HW211565   0.163   4.194   1.291  1.9357  1.1024  0.4076
 2240SOL     OW11566   9.272   1.323   0.038 -0.3312  0.0132 -0.1178
 2240SOL    HW111567   9.361   1.320   0.074 -0.7869 -0.2528  1.0242
 2240SOL    HW211568   9.261   1.239  -0.007 -0.7818 -0.9445  1.6991
 2241SOL     OW11569   0.743   2.565   7.348  0.0392  0.0653 -0.5338
 2241SOL    HW111570   0.758   2.617   7.427  0.2602  0.6893 -0.9786
 2241SOL    HW211571   0.680   2.617   7.297  0.2113 -0.1346 -0.9545
 2242SOL     OW11572   1.195   3.267   9.969 -0.4451 -0.4393 -0.5193
 2242SOL    HW111573   1.176   3.212   9.893 -1.5730 -0.0565 -0.5303
 2242SOL    HW211574   1.217   3.205  10.039 -0.0059 -0.8166 -0.9907
 2243SOL     OW11575   0.984   1.414   8.238  0.0664  0.1261 -0.7154
 2243SOL    HW111576   0.949   1.501   8.257 -2.3025 -0.5771 -1.6606
 2243SOL    HW211577   0.970   1.365   8.319 -0.2609  0.1083 -0.7833
 2244SOL     OW11578   9.097   2.909   8.638 -0.4438  0.1901  0.0406
 2244SOL    HW111579   9.164   2.852   8.676 -0.1297  0.9073  0.5662
 2244SOL    HW211580   9.140   2.994   8.629 -1.0640  0.4735 -0.2859
 2245SOL     OW11581   1.722   3.621   8.406 -0.1830 -0.7433  0.0392
 2245SOL    HW111582   1.750   3.683   8.474 -2.6014  0.8191 -0.3152
 2245SOL    HW211583   1.631   3.601   8.429 -1.1207 -0.0154 -2.8347
 2246SOL     OW11584   8.735   1.841   7.306 -0.1639 -0.0779  0.9670
 2246SOL    HW111585   8.702   1.772   7.363  1.2266 -0.7070  1.0393
 2246SOL    HW211586   8.661   1.865   7.250 -0.4712 -2.0932  0.4843
 2247SOL     OW11587   1.352   1.370   8.811 -0.3156  0.4071 -0.4669
 2247SOL    HW111588   1.412   1.442   8.796 -0.3141  0.7626  1.1098
 2247SOL    HW211589   1.403   1.306   8.861  0.0409 -1.2375 -2.8563
 2248SOL     OW11590   0.050   2.957   8.536 -0.3458 -0.1307 -0.5047
 2248SOL    HW111591   0.130   2.976   8.487 -0.1483 -0.2270 -0.2199
 2248SOL    HW211592   0.071   2.879   8.587 -0.1445  0.6666  0.6620
 2249SOL     OW11593   1.390   2.855   8.976 -0.5648  0.3917 -0.6611
 2249SOL    HW111594   1.428   2.769   8.997 -0.4071  0.5569 -0.2722
 2249SOL    HW211595   1.373   2.851   8.882  1.7115  0.8270 -1.1131
 2250SOL     OW11596   1.294   2.895   8.683  0.1198 -0.1027  0.3980
 2250SOL    HW111597   1.297   2.989   8.668 -1.4474 -0.1665 -0.2959
 2250SOL    HW211598   1.229   2.862   8.622  0.5272 -1.6246  0.7575
 2251SOL     OW11599   0.190   2.887   9.510  0.5977 -0.1474  0.0309
 2251SOL    HW111600   0.110   2.838   9.528  0.3625 -0.2081 -1.1492
 2251SOL    HW211601   0.170   2.977   9.536  0.6354 -0.4367  1.0887
 2252SOL     OW11602   0.449   3.005   7.400  0.5456 -0.4249 -0.4100
 2252SOL    HW111603   0.436   2.994   7.306 -0.8754 -2.0561 -0.0414
 2252SOL    HW211604   0.430   3.098   7.416  2.7084  0.3355 -1.9964
 2253SOL     OW11605   2.725   4.449   9.036 -0.1055 -0.0811 -0.4556
 2253SOL    HW111606   2.641   4.481   9.003 -0.2474  0.9454  0.8833
 2253SOL    HW211607   2.721   4.463   9.130  1.7370  0.3955 -0.4301
 2254SOL     OW11608   1.150   0.510   8.353 -0.1477  0.1379  1.0118
 2254SOL    HW111609   1.215   0.550   8.411  0.8299  1.5131 -0.9969
 2254SOL    HW211610   1.130   0.577   8.288 -0.8997 -1.5082 -0.5132
 2255SOL     OW11611   9.902   2.214   7.823  0.3204  0.0588  0.2934
 2255SOL    HW111612   9.807   2.212   7.830  0.2829 -0.4109 -0.2658
 2255SOL    HW211613   9.926   2.125   7.796  0.8769  0.2922  0.0109
 2256SOL     OW11614   0.493   1.228   7.964 -0.1129  0.1089 -0.0586
 2256SOL    HW111615   0.586   1.223   7.988  0.0845 -0.1202 -0.8419
 2256SOL    HW211616   0.479   1.151   7.908 -0.4341  0.9034 -1.0738
 2257SOL     OW11617   9.927   1.968   8.032 -0.2769  0.2712 -0.7668
 2257SOL    HW111618   9.945   1.977   7.939 -0.6847 -0.7465 -0.9431
 2257SOL    HW211619   9.984   1.896   8.061 -1.0311 -0.2169 -0.4796
 2258SOL     OW11620   0.704   2.995   6.024  0.1755  0.1821 -0.8581
 2258SOL    HW111621   0.787   3.034   6.052  0.7735 -1.0646 -0.9048
 2258SOL    HW211622   0.729   2.931   5.957 -0.8116 -0.2701 -0.7947
 2259SOL     OW11623   1.266   3.217   8.911 -0.1834 -0.1917  0.0347
 2259SOL    HW111624   1.195   3.277   8.886  0.2496 -0.1253 -1.0203
 2259SOL    HW211625   1.307   3.192   8.829  0.5258 -0.8543  0.5872
 2260SOL     OW11626   2.307   4.909   9.384  0.1372  0.2573  0.3250
 2260SOL    HW111627   2.259   4.992   9.384 -0.6699 -0.1851 -1.4066
 2260SOL    HW211628   2.379   4.923   9.322  0.6977  0.0440  0.9188
 2261SOL     OW11629   0.680   3.239   8.326  0.5742  0.0303 -0.0328
 2261SOL    HW111630   0.660   3.236   8.233 -1.7486  1.4651  0.3818
 2261SOL    HW211631   0.633   3.165   8.364  0.1780  0.4066  0.2197
 2262SOL     OW11632   9.783   3.413   9.530  0.0166 -0.7106  0.9559
 2262SOL    HW111633   9.872   3.436   9.556 -0.4365  0.7134  1.2388
 2262SOL    HW211634   9.732   3.417   9.611 -0.8762  1.2726  0.3215
 2263SOL     OW11635   1.040   1.973   7.685  0.0591 -0.9029  0.3844
 2263SOL    HW111636   1.046   2.010   7.597 -0.4122 -0.7354  0.4225
 2263SOL    HW211637   1.062   2.045   7.743  0.1997 -0.9670  0.4101
 2264SOL     OW11638   3.294   2.143   7.929  0.0602 -0.3834  0.6387
 2264SOL    HW111639   3.358   2.186   7.872  1.5291 -1.7038  1.2352
 2264SOL    HW211640   3.241   2.089   7.869  0.4581 -0.4098  0.3092
 2265SOL     OW11641   9.065   0.113   8.939  0.7446  0.4165  0.0805
 2265SOL    HW111642   9.152   0.107   8.979  1.1119  0.0969 -0.7636
 2265SOL    HW211643   9.005   0.116   9.014  1.5417  1.7634  0.6971
 2266SOL     OW11644   0.906   0.364   7.788  0.3818 -0.4692  0.0396
 2266SOL    HW111645   0.848   0.435   7.816  1.7818  0.8975 -0.4509
 2266SOL    HW211646   0.899   0.364   7.692  1.4542 -0.0462 -0.0457
 2267SOL     OW11647   0.151   1.776   5.850 -0.2790  0.1949  0.5696
 2267SOL    HW111648   0.235   1.745   5.884  0.6604  1.3310 -0.6986
 2267SOL    HW211649   0.126   1.711   5.784  0.0714  0.3696  0.2644
 2268SOL     OW11650   0.877   2.284   8.737 -0.5161 -0.6558 -0.0772
 2268SOL    HW111651   0.841   2.227   8.669 -0.2555 -0.5087 -0.3448
 2268SOL    HW211652   0.808   2.348   8.754 -1.1532 -1.5927  0.8781
 2269SOL     OW11653   0.290   2.990   7.663 -0.3004  0.3063 -0.2811
 2269SOL    HW111654   0.358   2.927   7.639  0.1750  0.8370 -0.3490
 2269SOL    HW211655   0.324   3.074   7.633 -0.0295  0.8716  1.5565
 2270SOL     OW11656   0.051   3.698   0.073 -0.0988 -0.0121  0.5668
 2270SOL    HW111657   0.047   3.792   0.088  0.0333 -0.0856  1.0614
 2270SOL    HW211658   0.133   3.684   0.025  0.0374  0.0844  0.7730
 2271SOL     OW11659   1.493   2.436   7.660  0.1843  0.4939 -0.4663
 2271SOL    HW111660   1.525   2.454   7.571  1.1063 -0.9955 -0.4647
 2271SOL    HW211661   1.442   2.355   7.650 -0.8556  1.0776  0.1236
 2272SOL     OW11662   8.628   3.063   7.899  0.2608 -0.4067  0.0181
 2272SOL    HW111663   8.655   2.996   7.962  2.0895  0.0326 -0.2577
 2272SOL    HW211664   8.675   3.041   7.819  1.7263  1.7893  0.2329
 2273SOL     OW11665   9.623   2.215   8.213 -1.0954  0.1585  0.3058
 2273SOL    HW111666   9.714   2.204   8.239 -0.9145  0.2192 -0.2859
 2273SOL    HW211667   9.601   2.134   8.166 -1.6219 -0.2411  1.2241
 2274SOL     OW11668   1.213   4.940   7.298 -0.1517  0.6802 -0.2194
 2274SOL    HW111669   1.128   4.898   7.309 -0.1366  0.8488  0.5789
 2274SOL    HW211670   1.208   5.020   7.350  1.0156 -0.0541  1.0591
 2275SOL     OW11671   1.469   1.390   9.120 -0.2508 -0.1583 -0.1442
 2275SOL    HW111672   1.556   1.368   9.154 -0.0754 -1.2790 -1.2816
 2275SOL    HW211673   1.479   1.477   9.083  0.3791 -0.2702 -0.2418
 2276SOL     OW11674   0.978   0.976   8.545  0.5480  0.2784 -0.4328
 2276SOL    HW111675   0.994   0.884   8.567  0.8680  0.6025  0.6686
 2276SOL    HW211676   1.062   1.019   8.558 -0.0029  1.0419  0.6365
 2277SOL     OW11677   9.624   2.142   7.769 -0.3536  0.0173  0.1842
 2277SOL    HW111678   9.536   2.177   7.784 -0.2745  0.2517  0.1015
 2277SOL    HW211679   9.647   2.171   7.681 -0.1440  0.0600  0.2537
 2278SOL     OW11680   2.949   2.175   8.498 -0.0648 -0.0028 -0.0492
 2278SOL    HW111681   2.866   2.156   8.455  0.5859 -1.4543 -0.7063
 2278SOL    HW211682   2.954   2.271   8.499 -0.1626  0.0874 -3.1067
 2279SOL     OW11683   9.761   2.924   8.433 -0.2758  0.1963 -0.7943
 2279SOL    HW111684   9.761   2.975   8.352 -0.3411 -1.2659 -1.7531
 2279SOL    HW211685   9.850   2.930   8.466  0.1703 -0.5008 -1.8443
 2280SOL     OW11686   0.916   2.851   9.172  0.3716 -0.4058  0.2823
 2280SOL    HW111687   0.983   2.910   9.139 -0.3076 -0.0843 -0.5295
 2280SOL    HW211688   0.937   2.841   9.265  1.2184  0.1223  0.1533
 2281SOL     OW11689   0.071   1.171   9.047  0.1429  0.0357  0.1976
 2281SOL    HW111690   0.155   1.217   9.043  0.3635 -0.4839 -1.7749
 2281SOL    HW211691   0.006   1.239   9.059  0.8633  0.4344  1.8685
 2282SOL     OW11692   0.001   1.734   8.310 -0.0148 -0.2798 -0.3279
 2282SOL    HW111693   0.038   1.742   8.222 -1.0706  0.6041 -0.7009
 2282SOL    HW211694  -0.066   1.666   8.302  0.5009 -0.8403  0.0121
 2283SOL     OW11695   1.783   1.288   8.674  0.6220 -0.4556  0.1053
 2283SOL    HW111696   1.786   1.379   8.643  0.7454  0.1042  1.6801
 2283SOL    HW211697   1.696   1.279   8.713  1.1419 -0.5421  1.2711
 2284SOL     OW11698   0.913   1.616   0.849  0.4626 -0.7045  0.0624
 2284SOL    HW111699   0.859   1.597   0.773 -0.9058  2.1092  0.2641
 2284SOL    HW211700   0.997   1.643   0.812  0.0793 -0.1771 -0.4301
 2285SOL     OW11701   9.692   3.071   8.205 -0.2153  0.6218 -0.0262
 2285SOL    HW111702   9.624   3.009   8.179 -0.6928  1.2160 -0.2011
 2285SOL    HW211703   9.760   3.062   8.138 -0.1094  0.0160  0.1570
 2286SOL     OW11704   1.346   3.154   8.663 -0.3787 -0.3400  0.6941
 2286SOL    HW111705   1.435   3.169   8.631 -0.0784 -0.9889  1.2032
 2286SOL    HW211706   1.292   3.216   8.615  0.3933  0.2560  0.5914
 2287SOL     OW11707   9.749   1.934   8.322 -0.0811  0.3329 -0.2164
 2287SOL    HW111708   9.659   1.952   8.350  0.1153 -0.2681  0.8553
 2287SOL    HW211709   9.756   1.838   8.325  1.6744  0.4899  3.2988
 2288SOL     OW11710   0.035   1.984   9.745 -0.2748  0.4466 -0.0218
 2288SOL    HW111711   0.074   1.965   9.830  0.5524  0.5762 -0.3751
 2288SOL    HW211712  -0.013   1.905   9.722  2.7714 -1.1065 -1.2799
 2289SOL     OW11713   0.321   2.789   8.703  0.6198  0.1491  0.1689
 2289SOL    HW111714   0.358   2.876   8.718  1.5249 -0.7003  3.1487
 2289SOL    HW211715   0.245   2.785   8.761 -0.3286 -0.5047 -1.0943
 2290SOL     OW11716   0.002   4.256   8.085  0.0020  0.6402 -0.7028
 2290SOL    HW111717   0.033   4.166   8.086 -1.3859  0.1474  0.2759
 2290SOL    HW211718   0.023   4.289   8.173 -0.1620  1.0214 -0.8054
 2291SOL     OW11719   1.661   2.017   8.619  0.4020  0.4484 -0.0561
 2291SOL    HW111720   1.738   1.985   8.667  0.5798 -0.0079 -0.6477
 2291SOL    HW211721   1.587   1.991   8.673  0.6517  0.8006  0.4670
 2292SOL     OW11722   0.484   2.620   9.898  0.1399  0.0442  0.2626
 2292SOL    HW111723   0.393   2.649   9.890  0.3109  1.5763  3.1158
 2292SOL    HW211724   0.488   2.579   9.985  1.2881 -3.5155 -1.3849
 2293SOL     OW11725   0.453   3.285   7.333 -0.1089  0.1022 -0.0106
 2293SOL    HW111726   0.453   3.274   7.429 -1.8909 -2.0507 -0.1974
 2293SOL    HW211727   0.360   3.289   7.310  0.2765 -0.8303 -1.7801
 2294SOL     OW11728   0.386   3.550   8.851 -0.3341 -0.0083  0.7737
 2294SOL    HW111729   0.475   3.540   8.886  0.9147 -1.3978 -2.5645
 2294SOL    HW211730   0.363   3.641   8.868  1.5474  0.2443  2.0972
 2295SOL     OW11731   1.451   0.327   7.751 -0.6661 -0.1454 -0.0806
 2295SOL    HW111732   1.526   0.303   7.804  0.0612  1.7525 -0.2012
 2295SOL    HW211733   1.395   0.249   7.751  0.7681 -1.1991  0.9122
 2296SOL     OW11734   1.400   0.942   9.086 -0.0672 -0.0004 -0.7131
 2296SOL    HW111735   1.386   0.867   9.144  0.6134  0.4969  0.1104
 2296SOL    HW211736   1.370   1.017   9.137 -1.2937  0.2351 -1.7552
 2297SOL     OW11737   1.373   1.915   7.509 -0.1112 -0.1532  0.1972
 2297SOL    HW111738   1.298   1.864   7.539 -0.1994 -1.2032 -1.7354
 2297SOL    HW211739   1.388   1.885   7.420  0.5228  2.4336 -0.6036
 2298SOL     OW11740   7.999   2.673   7.007  0.4811 -0.0240  0.0721
 2298SOL    HW111741   8.064   2.726   6.961 -0.9503  1.3762 -0.3779
 2298SOL    HW211742   7.915   2.703   6.973 -0.4508 -1.2826  1.1947
 2299SOL     OW11743   1.632   3.832   8.798  0.2506 -0.1589 -0.4705
 2299SOL    HW111744   1.650   3.770   8.868  0.6674 -1.7336 -1.9312
 2299SOL    HW211745   1.665   3.916   8.830 -0.9375 -0.5314  1.8050
 2300SOL     OW11746   1.444   1.441   0.654  0.3465 -0.3620  0.0529
 2300SOL    HW111747   1.528   1.429   0.612  1.2887  1.7284  1.2289
 2300SOL    HW211748   1.407   1.519   0.612 -0.2541 -0.3035  0.6756
 2301SOL     OW11749   1.904   2.107   0.483  0.4135 -0.4480  0.4608
 2301SOL    HW111750   1.994   2.078   0.496 -0.7389 -3.7516  1.6586
 2301SOL    HW211751   1.898   2.126   0.389  2.5838  0.7939  0.5343
 2302SOL     OW11752   9.932   2.950   9.713 -0.2106 -0.1909 -0.4961
 2302SOL    HW111753  10.019   2.980   9.737 -0.5286 -0.7816  1.4342
 2302SOL    HW211754   9.947   2.880   9.649  0.6951  0.0883 -0.5979
 2303SOL     OW11755   0.166   4.647   9.687  0.9700  0.1684  0.3422
 2303SOL    HW111756   0.255   4.619   9.668  1.0964  1.5949 -1.2937
 2303SOL    HW211757   0.119   4.566   9.708  1.8680 -1.0100 -2.0195
 2304SOL     OW11758   0.615   2.906   9.606  0.6323 -0.1142 -0.2445
 2304SOL    HW111759   0.659   2.977   9.559  1.3213 -0.2257  0.2161
 2304SOL    HW211760   0.576   2.949   9.682 -1.4689  0.2654 -1.4959
 2305SOL     OW11761   9.812   2.268   0.902 -0.0555  0.0326 -0.0250
 2305SOL    HW111762   9.874   2.331   0.939 -1.0769  0.1626  1.5029
 2305SOL    HW211763   9.864   2.188   0.890  1.1223  0.9892 -1.5064
 2306SOL     OW11764   0.502   3.464   9.790  0.0883 -0.0909 -0.7184
 2306SOL    HW111765   0.527   3.374   9.813  0.6335  0.5287  1.2217
 2306SOL    HW211766   0.583   3.514   9.797 -0.8994  1.2168  1.8333
 2307SOL     OW11767   9.333   1.851   9.626 -0.3398  0.4580  0.0224
 2307SOL    HW111768   9.281   1.871   9.548  0.2920  0.5387 -0.3841
 2307SOL    HW211769   9.371   1.935   9.651  0.0300  0.2988 -0.0044
 2308SOL     OW11770   1.684   1.671   1.132  0.1386 -0.8019  0.7865
 2308SOL    HW111771   1.596   1.638   1.151  0.8128 -2.7561  0.6201
 2308SOL    HW211772   1.669   1.747   1.076 -1.3677 -3.2699 -2.3492
 2309SOL     OW11773   1.193   3.074   9.754 -0.2025 -0.2518  0.5103
 2309SOL    HW111774   1.115   3.054   9.807 -1.2596  0.7755 -0.6233
 2309SOL    HW211775   1.215   2.992   9.712 -1.1143 -0.3884  0.2860
 2310SOL     OW11776   2.091   2.527   8.698  0.3262 -0.3586 -0.2719
 2310SOL    HW111777   2.103   2.611   8.742  2.0442  0.2592 -1.8850
 2310SOL    HW211778   2.011   2.538   8.647  1.1627  0.6972 -1.3707
 2311SOL     OW11779   1.065   2.087   8.637  0.6140 -0.3044 -0.1339
 2311SOL    HW111780   1.146   2.134   8.656  0.3773  0.1848 -0.3342
 2311SOL    HW211781   0.996   2.145   8.668  0.3738 -1.2047  1.0867
 2312SOL     OW11782   9.765   2.179   9.547 -0.3284 -0.4687  0.2161
 2312SOL    HW111783   9.755   2.104   9.605 -0.9972 -0.3907  0.2057
 2312SOL    HW211784   9.828   2.151   9.482 -0.2431 -0.8670  0.4699
 2313SOL     OW11785   2.354   3.176   0.410  0.2387  0.0263 -0.2437
 2313SOL    HW111786   2.446   3.164   0.435  0.7236  0.3345 -1.7719
 2313SOL    HW211787   2.306   3.115   0.465  1.4967 -1.0334 -0.2744
 2314SOL     OW11788   1.169   2.112   1.756 -0.2187 -0.6080 -0.1770
 2314SOL    HW111789   1.188   2.180   1.820  1.4773  0.0557 -1.3231
 2314SOL    HW211790   1.150   2.034   1.808 -0.4679  0.3126  1.1340
 2315SOL     OW11791   0.337   3.482   9.591  0.1780  0.1120  1.4745
 2315SOL    HW111792   0.364   3.418   9.525 -1.0468  0.6408  0.4554
 2315SOL    HW211793   0.408   3.481   9.655  1.0101 -0.9717  0.5559
 2316SOL     OW11794   2.315   0.861   8.857 -0.1280 -0.2448 -0.1282
 2316SOL    HW111795   2.279   0.772   8.866 -0.3592 -0.1338  0.0647
 2316SOL    HW211796   2.249   0.908   8.804 -1.1469  0.4555  1.7255
 2317SOL     OW11797   0.301   2.677   0.326  0.0615  0.1732  0.0431
 2317SOL    HW111798   0.332   2.644   0.242  1.1348  1.6206 -0.1557
 2317SOL    HW211799   0.273   2.767   0.308 -3.4773 -0.7993  0.4211
 2318SOL     OW11800   0.986   4.608   0.204 -0.5129  0.4687 -0.5973
 2318SOL    HW111801   0.907   4.618   0.259  0.5366 -1.4366  1.3368
 2318SOL    HW211802   0.993   4.513   0.190  1.8081  0.5513 -0.1469
 2319SOL     OW11803   9.848   2.099   9.283 -0.1832  1.0034 -0.3780
 2319SOL    HW111804   9.797   2.168   9.240  0.7644  1.5616 -0.6253
 2319SOL    HW211805   9.936   2.137   9.292  0.6119 -0.5444 -1.4208
 2320SOL     OW11806   9.671   3.067   1.341  0.1247  0.1859 -0.6745
 2320SOL    HW111807   9.601   3.019   1.296  0.6810  0.9368 -2.3854
 2320SOL    HW211808   9.650   3.159   1.326 -0.1870  0.4993  1.4451
 2321SOL     OW11809   0.661   2.641   9.563  0.3236 -0.7688  0.0098
 2321SOL    HW111810   0.658   2.737   9.563  1.7358 -0.7041  2.2284
 2321SOL    HW211811   0.644   2.617   9.472  1.4924  1.6436 -0.8876
 2322SOL     OW11812   1.534   2.678   1.564 -0.0660  0.6324  0.2051
 2322SOL    HW111813   1.511   2.586   1.549 -1.3995  0.6572  1.8984
 2322SOL    HW211814   1.592   2.677   1.640 -1.7290  1.3328  1.5226
 2323SOL     OW11815   9.700   2.603   9.750 -0.4899  0.0044  0.4632
 2323SOL    HW111816   9.689   2.555   9.832  0.7210 -1.7054 -0.3494
 2323SOL    HW211817   9.716   2.536   9.684 -0.9448  1.3910 -1.0976
 2324SOL     OW11818   0.615   1.959   9.022 -0.0954  0.1685 -0.0459
 2324SOL    HW111819   0.616   1.926   9.112  1.1685 -0.4396 -0.2762
 2324SOL    HW211820   0.524   1.951   8.995 -0.9285  2.2524  1.8658
 2325SOL     OW11821   9.925   4.574   1.605 -0.0404  1.0913 -0.0132
 2325SOL    HW111822  10.002   4.572   1.662 -0.0966 -1.0597  0.0308
 2325SOL    HW211823   9.948   4.517   1.531 -1.8008 -0.1036  0.3172
 2326SOL     OW11824   9.298   2.885   9.195  0.9132  0.9932 -0.0583
 2326SOL    HW111825   9.233   2.817   9.214  0.9372  1.0706  0.2968
 2326SOL    HW211826   9.343   2.899   9.278  1.4277  0.8975 -0.3247
 2327SOL     OW11827   1.443   1.993   9.821  0.0327 -0.0981  0.0531
 2327SOL    HW111828   1.364   2.028   9.780 -1.2754 -0.4890  2.1771
 2327SOL    HW211829   1.417   1.909   9.856  1.1994  0.0976  1.4453
 2328SOL     OW11830   0.193   2.810   0.861 -0.5263  0.4497 -0.2833
 2328SOL    HW111831   0.137   2.877   0.898  0.2546  0.5356  0.7701
 2328SOL    HW211832   0.282   2.838   0.883 -0.2011 -1.0360  0.3886
 2329SOL     OW11833   0.225   4.364   0.483  0.0941 -0.7182  0.0605
 2329SOL    HW111834   0.180   4.346   0.565 -0.8412  1.2405  0.0029
 2329SOL    HW211835   0.160   4.345   0.415 -0.4249  1.3587 -0.0524
 2330SOL     OW11836   0.363   1.505   7.664  0.5321  0.4232  0.0443
 2330SOL    HW111837   0.288   1.450   7.686  0.5925  1.5439  3.3241
 2330SOL    HW211838   0.417   1.451   7.607 -1.7425 -1.1502 -0.6588
 2331SOL     OW11839   0.910   1.070   8.895  0.0659 -0.5328 -0.5119
 2331SOL    HW111840   1.002   1.091   8.907 -0.1044 -0.5224  0.8365
 2331SOL    HW211841   0.864   1.152   8.912 -0.3095 -0.9628  0.5587
 2332SOL     OW11842   9.961   2.195   8.558 -0.5375  0.0831  0.3906
 2332SOL    HW111843   9.903   2.271   8.552 -0.6417  0.1431  1.8322
 2332SOL    HW211844   9.978   2.186   8.652  0.4410 -0.9527  0.1233
 2333SOL     OW11845   0.338   3.196   9.691  0.2625  0.3222  0.0299
 2333SOL    HW111846   0.351   3.270   9.751  1.2298  2.1075 -2.3248
 2333SOL    HW211847   0.412   3.137   9.710 -0.1196  0.2514  1.4133
 2334SOL     OW11848   2.057   3.494   1.019  0.1484  0.2006  0.1691
 2334SOL    HW111849   2.109   3.413   1.020 -0.4804 -0.2007  1.0937
 2334SOL    HW211850   1.974   3.468   0.979  0.0576  0.4515  0.1990
 2335SOL     OW11851   8.882   2.248   9.433  0.1628  0.7622 -0.3442
 2335SOL    HW111852   8.913   2.225   9.345 -2.1684  1.9961 -1.5098
 2335SOL    HW211853   8.901   2.169   9.486  1.4359 -0.0417 -1.9487
 2336SOL     OW11854   9.544   3.503   0.013  0.4835  0.5282 -0.5088
 2336SOL    HW111855   9.468   3.477   0.065 -0.3226  2.6153 -0.5578
 2336SOL    HW211856   9.591   3.566   0.068  1.6010  0.0505 -0.8949
 2337SOL     OW11857   1.358   3.170   0.390  0.1377 -0.0096  0.0865
 2337SOL    HW111858   1.387   3.182   0.300 -0.6835  0.1315 -0.1643
 2337SOL    HW211859   1.267   3.139   0.383  0.1630 -0.2959  0.8557
 2338SOL     OW11860   1.078   2.416   8.922  0.0527 -0.0489  0.2327
 2338SOL    HW111861   1.036   2.379   8.845 -2.9939  3.2655  0.1912
 2338SOL    HW211862   1.094   2.508   8.899  0.9800  0.4634  2.7938
 2339SOL     OW11863   1.471   2.345   9.368  0.3624 -0.0422 -0.3256
 2339SOL    HW111864   1.561   2.367   9.345  0.0240  1.8842  0.1191
 2339SOL    HW211865   1.441   2.418   9.421 -0.9962 -1.3572  0.7774
 2340SOL     OW11866   0.064   0.640   0.967  0.1182 -0.3826  0.4302
 2340SOL    HW111867   0.106   0.628   1.052 -0.9474 -0.2369  0.9886
 2340SOL    HW211868   0.120   0.594   0.905  0.5776 -1.0046  1.3018
 2341SOL     OW11869   2.273   2.897   8.691  0.1131  0.3317 -0.5698
 2341SOL    HW111870   2.346   2.835   8.701  0.9597  1.5452  0.8990
 2341SOL    HW211871   2.200   2.855   8.736  0.1932 -0.4149 -1.1308
 2342SOL     OW11872   1.971   3.438   9.456  0.2441  0.3951 -0.7800
 2342SOL    HW111873   2.003   3.528   9.468  1.1065  0.1695 -1.3758
 2342SOL    HW211874   1.876   3.448   9.449  0.3120  1.2393 -0.6032
 2343SOL     OW11875   9.574   1.713   9.624  0.1104 -0.1594  0.2546
 2343SOL    HW111876   9.481   1.735   9.621 -0.0394 -0.6082  1.4415
 2343SOL    HW211877   9.582   1.649   9.695  1.2093 -0.6923 -0.3366
 2344SOL     OW11878   0.824   1.555   9.422 -0.0272 -0.0050 -0.1984
 2344SOL    HW111879   0.771   1.477   9.437 -0.5461  0.4707  0.4813
 2344SOL    HW211880   0.883   1.558   9.497  0.8523 -0.4418 -0.8690
 2345SOL     OW11881   9.196   2.696   1.731 -0.3861 -0.2706 -0.7382
 2345SOL    HW111882   9.243   2.620   1.766 -0.1596  0.3869  0.4035
 2345SOL    HW211883   9.265   2.755   1.701 -0.3913  1.3406  2.2797
 2346SOL     OW11884   2.295   1.354   0.564 -0.7204 -0.5628  0.1201
 2346SOL    HW111885   2.249   1.339   0.481  0.1067 -1.7100 -0.1547
 2346SOL    HW211886   2.376   1.303   0.555  0.5026  1.2064  0.6797
 2347SOL     OW11887   1.308   2.557   9.754  0.2794  0.1498  0.8364
 2347SOL    HW111888   1.267   2.633   9.796 -0.5379 -1.0411  2.2263
 2347SOL    HW211889   1.327   2.497   9.826 -0.1901 -1.4959 -0.3878
 2348SOL     OW11890   0.572   5.082   0.013  0.2380  0.3226  0.0380
 2348SOL    HW111891   0.548   5.112  -0.075 -0.5034 -1.9741 -0.5943
 2348SOL    HW211892   0.667   5.072   0.009 -0.0048 -1.7995 -1.2143
 2349SOL     OW11893   0.244   3.997   9.623  0.2057 -0.4672 -0.4262
 2349SOL    HW111894   0.287   4.036   9.547 -1.3732 -1.9649 -2.1327
 2349SOL    HW211895   0.222   3.908   9.596 -1.5071 -0.6266  1.3378
 2350SOL     OW11896   0.620   2.893   0.329 -0.1051  0.3752  0.2120
 2350SOL    HW111897   0.691   2.932   0.278  1.6994 -0.4109  2.0824
 2350SOL    HW211898   0.663   2.831   0.387 -2.3260 -0.0730  1.4306
 2351SOL     OW11899   0.780   3.776   0.100 -0.3158  0.2861 -0.2473
 2351SOL    HW111900   0.846   3.729   0.152 -0.2572  1.1372  0.4495
 2351SOL    HW211901   0.828   3.847   0.058 -0.5013  0.0161 -0.9300
 2352SOL     OW11902   9.088   2.736   9.930 -0.1460 -0.6296 -0.6154
 2352SOL    HW111903   9.104   2.718   9.837  0.1713 -1.0741 -0.4742
 2352SOL    HW211904   9.035   2.663   9.960  1.9811 -1.8625  0.2019
 2353SOL     OW11905   9.988   2.063   0.820 -0.3530  0.5378  0.1120
 2353SOL    HW111906  10.012   2.017   0.900  0.3069 -0.4743 -0.6356
 2353SOL    HW211907   9.963   1.993   0.759  3.9220  0.7894 -2.1710
 2354SOL     OW11908   0.355   1.771   0.167  0.7557  0.3730 -0.2753
 2354SOL    HW111909   0.283   1.834   0.162 -0.3294 -0.8457 -0.3146
 2354SOL    HW211910   0.377   1.766   0.260 -0.0853 -0.2009 -0.1022
 2355SOL     OW11911   9.769   3.155   9.511  0.2599  0.0641 -0.3994
 2355SOL    HW111912   9.767   3.250   9.506  2.3155  0.1037 -0.9176
 2355SOL    HW211913   9.792   3.136   9.602  0.9455  0.1024 -0.5586
 2356SOL     OW11914   0.521   0.311   0.372  0.5294 -0.0286  0.6498
 2356SOL    HW111915   0.478   0.230   0.397  0.7971 -0.7215 -1.0702
 2356SOL    HW211916   0.450   0.375   0.367 -0.1513 -0.9089 -1.1210
 2357SOL     OW11917   1.194   0.751   8.604  0.3349 -0.0026 -0.0209
 2357SOL    HW111918   1.232   0.760   8.516 -0.6889  3.0348 -0.2165
 2357SOL    HW211919   1.230   0.825   8.653  0.1567 -1.1412  1.8588
 2358SOL     OW11920   1.398   1.664   8.625  0.4463  0.1518  1.2198
 2358SOL    HW111921   1.377   1.673   8.532  0.6078 -1.1465  1.0500
 2358SOL    HW211922   1.340   1.726   8.668  0.4794  0.8827  0.2409
 2359SOL     OW11923   0.918   2.163   9.757 -0.4411  0.1369 -0.0010
 2359SOL    HW111924   0.823   2.152   9.750 -0.4925 -0.4264  1.3603
 2359SOL    HW211925   0.949   2.078   9.789  0.4710  0.4569 -0.0453
 2360SOL     OW11926   9.009   3.492   2.292 -0.4792  0.2042  0.3118
 2360SOL    HW111927   9.045   3.514   2.378 -1.4357  1.0973  0.4809
 2360SOL    HW211928   8.915   3.499   2.303 -0.5428  2.4399 -1.3878
 2361SOL     OW11929   2.623   4.374   0.959 -0.1835 -0.0907 -0.5386
 2361SOL    HW111930   2.578   4.419   1.030 -0.3245 -1.1276  0.0518
 2361SOL    HW211931   2.589   4.284   0.963  1.1759 -0.6253 -0.7338
 2362SOL     OW11932   2.226   5.068   0.001  0.2479  0.3877 -0.4251
 2362SOL    HW111933   2.155   5.087  -0.060 -0.1808 -0.2041 -0.1086
 2362SOL    HW211934   2.211   4.978   0.029 -0.1906  1.0139  1.3931
 2363SOL     OW11935   9.740   3.713   1.113 -0.3060  0.6609 -0.3518
 2363SOL    HW111936   9.794   3.745   1.186 -0.9737  0.0184  0.4317
 2363SOL    HW211937   9.778   3.628   1.092 -1.9829 -0.5256  1.2654
 2364SOL     OW11938   9.008   3.863   1.409  0.3809  0.3744  0.0305
 2364SOL    HW111939   8.933   3.916   1.437  0.1629 -0.2732  0.7111
 2364SOL    HW211940   8.975   3.814   1.334  0.6954  1.4687 -0.8295
 2365SOL     OW11941   0.035   6.815   9.626 -0.3223 -0.7029 -0.2338
 2365SOL    HW111942   0.092   6.738   9.618  0.0270 -0.2056 -3.3294
 2365SOL    HW211943   0.074   6.880   9.567 -1.6984  1.1835  0.8686
 2366SOL     OW11944   0.710   5.737   1.369  0.0990  0.4673 -0.3165
 2366SOL    HW111945   0.752   5.814   1.407 -2.3535  1.2369  0.9681
 2366SOL    HW211946   0.737   5.737   1.277  0.4802  2.6072 -0.2201
 2367SOL     OW11947   0.456   5.098   0.968  0.2298 -0.2441 -0.0876
 2367SOL    HW111948   0.496   5.113   1.053  1.4963 -0.0634 -0.6912
 2367SOL    HW211949   0.487   5.011   0.942 -2.3311 -1.4870  0.8026
 2368SOL     OW11950   0.747   2.509   1.866 -0.5179 -0.2032 -0.2174
 2368SOL    HW111951   0.696   2.572   1.917  0.1421 -1.1141  1.6514
 2368SOL    HW211952   0.681   2.459   1.817 -1.4165 -0.9039  1.6287
 2369SOL     OW11953   1.839   6.188   9.225  0.1201  0.3707  0.1601
 2369SOL    HW111954   1.771   6.125   9.247 -0.3692  1.0721  0.7184
 2369SOL    HW211955   1.911   6.168   9.284  0.4899 -0.5121 -0.5785
 2370SOL     OW11956   1.845   4.097   2.146 -0.1484 -0.4100 -0.1165
 2370SOL    HW111957   1.896   4.071   2.070 -0.4773 -0.4284 -0.3306
 2370SOL    HW211958   1.755   4.080   2.122 -0.3370  0.5472 -0.1081
 2371SOL     OW11959   1.845   5.159   0.542  0.4720 -0.2133 -0.1742
 2371SOL    HW111960   1.907   5.130   0.476 -0.5852 -0.9356 -0.8603
 2371SOL    HW211961   1.847   5.091   0.609  0.3400 -0.2895 -0.2475
 2372SOL     OW11962   1.219   4.042   1.429 -0.7243  0.4465 -0.0320
 2372SOL    HW111963   1.291   3.982   1.412 -1.5973 -0.0491 -2.1904
 2372SOL    HW211964   1.249   4.096   1.501  1.5796 -0.0999 -0.5495
 2373SOL     OW11965   9.506   4.886   0.369 -0.1847 -0.2195 -0.0645
 2373SOL    HW111966   9.440   4.931   0.421  0.2776 -0.6969  0.9507
 2373SOL    HW211967   9.474   4.891   0.279 -0.7845  0.9777  0.2074
 2374SOL     OW11968   2.959   5.322   9.450  0.0944  0.0910 -0.3333
 2374SOL    HW111969   3.028   5.258   9.433 -0.7417 -1.5983  2.3732
 2374SOL    HW211970   2.916   5.335   9.365  2.6468 -0.0872 -1.6864
 2375SOL     OW11971   9.766   4.162   0.348  0.1279 -0.1236 -0.5580
 2375SOL    HW111972   9.733   4.087   0.399 -2.1394 -0.6238 -2.6529
 2375SOL    HW211973   9.729   4.238   0.393  0.3555 -0.3999  0.1106
 2376SOL     OW11974   8.987   6.492   0.498  0.0458  0.0227  0.0964
 2376SOL    HW111975   9.021   6.577   0.469  1.0199 -0.6599 -0.8043
 2376SOL    HW211976   9.064   6.447   0.534 -0.2561 -0.8560 -0.3439
 2377SOL     OW11977   0.785   5.127   1.940 -0.5441  0.1231  0.3579
 2377SOL    HW111978   0.725   5.198   1.962 -0.4312 -0.1405  1.5441
 2377SOL    HW211979   0.841   5.118   2.017  0.3299 -0.3514 -0.3151
 2378SOL     OW11980   9.675   2.866   9.774  0.8380  0.4014 -0.0403
 2378SOL    HW111981   9.751   2.919   9.749  2.3478 -1.1137  1.2405
 2378SOL    HW211982   9.704   2.776   9.762  0.4259 -0.2832  3.6762
 2379SOL     OW11983   0.671   4.358   1.067  0.0699  0.2620 -0.1523
 2379SOL    HW111984   0.583   4.395   1.077  1.0636  2.8004 -0.5006
 2379SOL    HW211985   0.711   4.411   0.998  2.5655  0.4803  1.4216
 2380SOL     OW11986   0.166   5.342   2.686  0.2267  0.1409  0.2835
 2380SOL    HW111987   0.234   5.279   2.709  1.4829  2.0888  2.0984
 2380SOL    HW211988   0.140   5.318   2.597 -0.6050 -3.9781  1.5629
 2381SOL     OW11989   9.962   5.882   9.210  0.4857  0.0981  0.1318
 2381SOL    HW111990  10.044   5.863   9.165  0.7046 -1.5737  1.1878
 2381SOL    HW211991   9.984   5.953   9.270  0.4595  1.5752 -1.5817
 2382SOL     OW11992   9.420   1.768   9.900  0.3446  0.1016 -0.2664
 2382SOL    HW111993   9.380   1.775   9.813 -0.5671 -0.4144  0.1024
 2382SOL    HW211994   9.471   1.688   9.896 -0.0908 -0.1836 -0.1758
 2383SOL     OW11995   2.189   5.238   8.883  0.6053 -0.1592 -0.2805
 2383SOL    HW111996   2.163   5.312   8.939 -0.5119 -0.7638  0.0231
 2383SOL    HW211997   2.184   5.273   8.794  1.8275  0.6414 -0.0526
 2384SOL     OW11998   8.381   5.368   9.467 -0.2059 -0.4185 -0.3652
 2384SOL    HW111999   8.440   5.433   9.504 -1.0492  0.1262  0.0457
 2384SOL    HW212000   8.340   5.412   9.392 -0.1343 -0.7690 -0.6110
 2385SOL     OW12001   2.372   5.403   0.255 -0.0307  0.4462 -0.1567
 2385SOL    HW112002   2.427   5.336   0.216 -1.8208  0.2624 -2.4629
 2385SOL    HW212003   2.283   5.368   0.249 -0.8551  2.4635 -0.2444
 2386SOL     OW12004   1.607   4.057   9.995  0.5583  0.5312 -0.5759
 2386SOL    HW112005   1.597   4.003  10.074  3.4053  1.0049  0.1678
 2386SOL    HW212006   1.570   4.142  10.020  0.2665  0.2927 -0.1822
 2387SOL     OW12007   8.929   4.807   0.519  0.3306 -0.2780  0.4330
 2387SOL    HW112008   8.987   4.860   0.573 -1.7626  1.0881  1.4078
 2387SOL    HW212009   8.904   4.733   0.575  0.8412 -0.6898  0.1273
 2388SOL     OW12010   9.860   5.511   1.106 -0.1272 -0.0675  0.6493
 2388SOL    HW112011   9.798   5.576   1.074  0.5281  0.1246 -0.2749
 2388SOL    HW212012   9.905   5.554   1.178 -0.1099  0.2992  0.4227
 2389SOL     OW12013   0.311   4.773   0.411 -0.0372  0.0062 -0.3723
 2389SOL    HW112014   0.356   4.852   0.440 -0.6578  0.2255  0.0269
 2389SOL    HW212015   0.300   4.784   0.317 -1.4860  1.1277 -0.1015
 2390SOL     OW12016   1.465   3.966   0.551 -0.1119 -0.5690 -0.7364
 2390SOL    HW112017   1.454   3.872   0.565  0.9670 -0.5997 -0.0007
 2390SOL    HW212018   1.376   4.000   0.546 -0.5257 -1.4390  0.3694
 2391SOL     OW12019   0.086   5.501   0.339  0.0665  0.1315  0.2294
 2391SOL    HW112020   0.086   5.410   0.310  0.5316  0.6189 -1.3275
 2391SOL    HW212021   0.157   5.506   0.403  0.6620 -0.3685 -0.3982
 2392SOL     OW12022   1.321   4.883   9.910 -0.3148  0.2257 -0.0633
 2392SOL    HW112023   1.319   4.906  10.002 -1.1256  1.1250 -0.2981
 2392SOL    HW212024   1.259   4.810   9.903  2.3207 -2.1615  0.6917
 2393SOL     OW12025   0.505   5.635   1.520  0.4059  0.7453  0.0963
 2393SOL    HW112026   0.574   5.694   1.488  0.2859  0.5651 -0.4977
 2393SOL    HW212027   0.423   5.676   1.492  0.3335  0.1383 -0.5909
 2394SOL     OW12028   9.833   4.270   1.403 -0.4510  0.6006 -0.1720
 2394SOL    HW112029   9.790   4.185   1.395 -0.1221  0.5257 -1.2296
 2394SOL    HW212030   9.763   4.334   1.395 -1.0181  0.4094  2.8389
 2395SOL     OW12031   0.864   5.548   9.668  0.1532  0.4223 -0.0249
 2395SOL    HW112032   0.855   5.453   9.657  1.5327  0.1761  0.8781
 2395SOL    HW212033   0.945   5.559   9.717  0.6294  2.1337 -1.1418
 2396SOL     OW12034   2.150   4.790   2.155  0.3880  0.3346 -0.2148
 2396SOL    HW112035   2.146   4.873   2.106 -0.5439  0.2975 -0.2202
 2396SOL    HW212036   2.089   4.803   2.228  1.3463  0.1792  0.6178
 2397SOL     OW12037   0.697   4.783   9.562 -0.0227 -0.5325  0.3919
 2397SOL    HW112038   0.717   4.700   9.519  0.5716  0.2116 -0.7969
 2397SOL    HW212039   0.762   4.844   9.528  0.1758  0.1888  2.0239
 2398SOL     OW12040   0.170   3.715   0.850 -0.2482  0.2169 -0.0585
 2398SOL    HW112041   0.161   3.700   0.944 -0.8806 -0.4138 -0.2115
 2398SOL    HW212042   0.252   3.670   0.826 -0.7423 -0.7251 -0.0267
 2399SOL     OW12043   1.497   6.358   0.824 -0.2402 -0.1179 -0.2672
 2399SOL    HW112044   1.508   6.315   0.909 -0.8740 -0.8405 -0.5393
 2399SOL    HW212045   1.455   6.441   0.844  0.5474  0.1651  0.2233
 2400SOL     OW12046   0.313   4.196   0.162 -0.2272  0.2316 -0.6407
 2400SOL    HW112047   0.288   4.283   0.133  0.1142  0.5662  0.0518
 2400SOL    HW212048   0.234   4.160   0.202 -0.0534  0.6933  0.1486
 2401SOL     OW12049   1.002   4.065   1.934  0.4177  0.2224  0.9505
 2401SOL    HW112050   0.958   4.047   2.017  2.2031  0.6617  2.0129
 2401SOL    HW212051   0.991   4.159   1.921 -0.8258 -0.0312  0.1157
 2402SOL     OW12052   0.405   3.382   0.667  0.4328 -0.1223  0.4783
 2402SOL    HW112053   0.426   3.442   0.595  1.7401 -0.2650  0.7348
 2402SOL    HW212054   0.421   3.295   0.630 -2.3777 -0.4276 -0.2117
 2403SOL     OW12055   0.181   3.990   2.448  0.3916  0.2380 -0.2148
 2403SOL    HW112056   0.265   4.023   2.414  0.8330 -0.2313  0.4151
 2403SOL    HW212057   0.181   4.018   2.540 -0.7208  1.3498 -0.5376
 2404SOL     OW12058   9.718   5.264   9.697 -0.1573 -0.2880  0.2687
 2404SOL    HW112059   9.728   5.188   9.640 -1.4092 -0.1674 -0.1406
 2404SOL    HW212060   9.626   5.260   9.725  0.4640 -0.4000  2.3597
 2405SOL     OW12061   0.046   4.677   0.404 -0.5847  0.2461  0.1950
 2405SOL    HW112062   0.135   4.708   0.419 -1.4723  2.9798  0.1878
 2405SOL    HW212063   0.056   4.586   0.377  2.3171  0.9182 -1.2235
 2406SOL     OW12064   9.966   5.111   0.787  0.5287 -0.0005 -0.3328
 2406SOL    HW112065   9.951   5.017   0.798  2.6724 -0.6719 -2.6522
 2406SOL    HW212066   9.879   5.150   0.791 -0.3322 -1.9875  1.3229
 2407SOL     OW12067   0.951   4.866   0.903  0.2490 -0.2704  0.1767
 2407SOL    HW112068   0.925   4.820   0.983 -1.1237 -0.8320 -0.5780
 2407SOL    HW212069   0.875   4.919   0.879  1.5487  1.8544  0.6147
 2408SOL     OW12070   1.908   4.755   9.114 -0.8427 -0.6044 -0.3044
 2408SOL    HW112071   1.821   4.778   9.147  0.6164  0.5443  2.9943
 2408SOL    HW212072   1.941   4.690   9.176  1.9219  1.4426  0.4769
 2409SOL     OW12073   9.479   3.470   0.586 -0.3302 -0.4798 -0.2934
 2409SOL    HW112074   9.490   3.440   0.496 -0.5197  0.1119 -0.5157
 2409SOL    HW212075   9.387   3.454   0.606 -1.5024  3.6592 -1.8097
 2410SOL     OW12076   9.240   5.445   0.287 -0.0521 -0.2467  0.1116
 2410SOL    HW112077   9.190   5.519   0.253 -0.6449 -1.3352 -1.5068
 2410SOL    HW212078   9.271   5.400   0.208  2.4829 -0.2724  1.0747
 2411SOL     OW12079   9.235   6.044   0.228 -0.4601  0.5503  0.3086
 2411SOL    HW112080   9.155   6.077   0.268  0.4017  1.9506  0.9489
 2411SOL    HW212081   9.252   5.961   0.273 -0.6259  1.0942  1.3819
 2412SOL     OW12082   9.194   4.343   0.879  0.0868  0.1619 -0.2101
 2412SOL    HW112083   9.217   4.313   0.791  0.4154  0.1039 -0.1052
 2412SOL    HW212084   9.266   4.313   0.934 -1.7246 -2.7615  0.6847
 2413SOL     OW12085   1.389   5.118   9.310 -0.3967 -0.5052 -0.4435
 2413SOL    HW112086   1.311   5.069   9.337  0.1300 -1.1488 -0.0992
 2413SOL    HW212087   1.427   5.067   9.239 -1.1068  0.5752 -1.6446
 2414SOL     OW12088   8.652   5.359   9.714 -0.4532 -0.4578 -0.2844
 2414SOL    HW112089   8.686   5.324   9.631  0.4448  0.2412 -0.2283
 2414SOL    HW212090   8.719   5.421   9.742 -0.3538 -1.3097  1.3975
 2415SOL     OW12091   9.556   4.787   0.074 -0.4325  0.4676  0.5160
 2415SOL    HW112092   9.607   4.708   0.091 -1.6253 -0.1269  1.4070
 2415SOL    HW212093   9.614   4.859   0.099  1.0654 -0.0497 -1.3314
 2416SOL     OW12094   1.833   5.637   0.009 -0.6813  0.1058  0.6313
 2416SOL    HW112095   1.746   5.662  -0.023 -0.4471  0.9947  0.6781
 2416SOL    HW212096   1.839   5.679   0.095  0.6444  1.8519 -0.2951
 2417SOL     OW12097   8.812   4.468   0.349  0.6576  0.3280 -0.1185
 2417SOL    HW112098   8.878   4.509   0.294  1.9607 -0.6252  0.7134
 2417SOL    HW212099   8.834   4.497   0.438 -0.1383  0.1376  0.1441
 2418SOL     OW12100   2.049   5.484   9.917 -0.4297  0.3963  0.2551
 2418SOL    HW112101   2.120   5.482   9.981 -1.7695 -1.0644  1.7468
 2418SOL    HW212102   1.989   5.552   9.948  0.3530  1.7421 -1.0900
 2419SOL     OW12103   0.335   6.388   0.756 -0.3380 -0.6310  0.4612
 2419SOL    HW112104   0.292   6.473   0.759 -0.2452 -0.5137 -1.0867
 2419SOL    HW212105   0.371   6.382   0.667 -0.5022 -2.3521  0.4902
 2420SOL     OW12106   1.069   3.564   0.204  0.3224  0.0333 -0.0304
 2420SOL    HW112107   1.130   3.509   0.254  0.2871 -1.5116 -1.6656
 2420SOL    HW212108   1.050   3.637   0.263 -0.1420 -2.0169  2.4557
 2421SOL     OW12109   0.628   5.640   2.886  0.3088 -0.2541 -0.1046
 2421SOL    HW112110   0.569   5.631   2.811  0.0831  0.5171 -0.0229
 2421SOL    HW212111   0.571   5.636   2.962  0.5275 -0.9286  0.0300
 2422SOL     OW12112   0.154   4.724   1.326  0.2567 -0.5172  0.3473
 2422SOL    HW112113   0.203   4.694   1.402  1.3576  0.1490 -0.0894
 2422SOL    HW212114   0.207   4.795   1.289 -1.1940  0.4614  0.0727
 2423SOL     OW12115   3.112   4.996   9.678  0.2564 -0.2323  0.1938
 2423SOL    HW112116   3.080   5.078   9.640 -2.2388 -1.5484 -0.6194
 2423SOL    HW212117   3.114   4.934   9.605  1.5365 -1.0692  0.9265
 2424SOL     OW12118   2.405   3.792   1.252  0.2899  0.1669  0.2222
 2424SOL    HW112119   2.422   3.709   1.208  1.5521  0.7991 -0.4979
 2424SOL    HW212120   2.335   3.772   1.314  1.2238 -1.6525  0.7264
 2425SOL     OW12121   0.859   4.770   1.326 -0.0278  0.1640  0.5132
 2425SOL    HW112122   0.764   4.768   1.330 -0.0995 -0.4614 -1.2952
 2425SOL    HW212123   0.883   4.708   1.257  1.8578 -1.9369  2.9426
 2426SOL     OW12124   9.890   4.043   2.100 -0.3610  0.1558 -0.1728
 2426SOL    HW112125   9.882   4.121   2.155  1.8186 -0.2176  0.7429
 2426SOL    HW212126   9.807   3.997   2.112 -1.4001  1.9909 -0.1972
 2427SOL     OW12127   9.659   5.351   0.258 -0.0465  0.0756  0.4628
 2427SOL    HW112128   9.660   5.276   0.318 -1.0488  1.3070  2.0271
 2427SOL    HW212129   9.696   5.423   0.309  2.4718  0.2983 -1.5618
 2428SOL     OW12130   0.872   6.845   0.136  0.2306  1.0015 -0.0087
 2428SOL    HW112131   0.889   6.825   0.228  0.2313 -0.1861 -0.2603
 2428SOL    HW212132   0.953   6.883   0.104  0.5734  0.4782  0.2284
 2429SOL     OW12133   0.381   6.167   1.498 -0.1240  0.0698  0.2783
 2429SOL    HW112134   0.369   6.110   1.422  1.2009  0.7570 -0.4735
 2429SOL    HW212135   0.334   6.248   1.474 -3.2530 -1.1430  1.9392
 2430SOL     OW12136   1.139   3.372   1.161 -0.0963  0.0758 -0.5889
 2430SOL    HW112137   1.095   3.443   1.114 -2.0410  0.1744  1.3083
 2430SOL    HW212138   1.159   3.308   1.094  0.2511  1.7037 -2.0794
 2431SOL     OW12139   1.099   3.921   0.943  0.5675  0.9429  0.0365
 2431SOL    HW112140   1.072   4.008   0.973  1.7089  1.5335 -0.5915
 2431SOL    HW212141   1.105   3.869   1.023 -0.2167  1.4175  0.4081
 2432SOL     OW12142   2.032   3.984   1.093 -0.9229  0.4342  0.3317
 2432SOL    HW112143   2.115   4.005   1.051 -0.0251  0.3324  1.9897
 2432SOL    HW212144   1.966   4.009   1.029  0.4086 -1.1374 -1.7224
 2433SOL     OW12145   8.630   5.528   1.436  0.0546 -0.6784 -0.2638
 2433SOL    HW112146   8.701   5.478   1.476  1.1070  1.2703  0.3752
 2433SOL    HW212147   8.654   5.535   1.344  0.8733  0.2154  0.0021
 2434SOL     OW12148   9.868   4.149   0.997 -0.0024  0.1771 -0.1602
 2434SOL    HW112149   9.852   4.232   1.041 -0.5520  0.8967 -1.6949
 2434SOL    HW212150   9.836   4.083   1.058 -0.7127  1.1580  0.5444
 2435SOL     OW12151   0.271   5.728   1.007  0.2558  0.2934  0.1592
 2435SOL    HW112152   0.255   5.715   1.100 -1.1158  1.2226  0.0684
 2435SOL    HW212153   0.224   5.657   0.964 -1.3202  1.3680  0.0524
 2436SOL     OW12154   0.447   5.285   0.756  0.1193  0.5784  0.2579
 2436SOL    HW112155   0.395   5.234   0.818  0.3272  0.2649  0.1746
 2436SOL    HW212156   0.486   5.354   0.809  1.0690 -0.2575  0.6579
 2437SOL     OW12157   1.708   7.111   1.729 -0.5913 -0.3748  0.4045
 2437SOL    HW112158   1.661   7.148   1.804  0.3005 -0.2285  0.8964
 2437SOL    HW212159   1.719   7.018   1.752  0.1155 -0.2256  0.6830
 2438SOL     OW12160   8.157   4.165   2.490 -0.4894  0.2373 -0.7026
 2438SOL    HW112161   8.251   4.163   2.506 -0.5714 -1.5021 -0.3548
 2438SOL    HW212162   8.144   4.242   2.434  1.2860 -0.1620 -1.7108
 2439SOL     OW12163   1.215   3.150   1.010  0.4037 -0.3276  0.0402
 2439SOL    HW112164   1.267   3.114   0.938 -0.8537  0.3715 -1.2319
 2439SOL    HW212165   1.170   3.074   1.047  0.2703 -0.5479 -0.5642
 2440SOL     OW12166   1.177   3.785   0.588  0.7270 -0.2982  0.1436
 2440SOL    HW112167   1.123   3.732   0.647 -1.0087 -0.4418 -1.5205
 2440SOL    HW212168   1.266   3.752   0.601  0.4955  0.1405  3.1546
 2441SOL     OW12169   9.976   4.158   9.887 -0.0214 -0.3522 -0.7147
 2441SOL    HW112170   9.978   4.068   9.917  1.7494 -0.1542 -0.1604
 2441SOL    HW212171   9.952   4.153   9.795  0.3990 -1.4223 -0.7702
 2442SOL     OW12172   0.897   4.537   9.225 -0.1070 -0.4330 -0.2050
 2442SOL    HW112173   0.816   4.507   9.265 -0.6229 -1.8289 -2.2211
 2442SOL    HW212174   0.878   4.628   9.199 -1.4177 -1.0897 -1.6371
 2443SOL     OW12175   1.447   3.785   9.946  0.5256  0.1699  0.5431
 2443SOL    HW112176   1.477   3.762  10.034  1.7899  0.3856  0.1737
 2443SOL    HW212177   1.376   3.847   9.961  0.3021 -0.2895  1.4294
 2444SOL     OW12178   0.968   4.541   8.154 -0.2498  0.0947 -0.3726
 2444SOL    HW112179   0.941   4.570   8.067 -1.5427  0.5754  0.1623
 2444SOL    HW212180   0.892   4.561   8.210  0.9715  0.8398  1.0781
 2445SOL     OW12181   1.450   5.052   0.937  0.4825 -0.2421 -0.0156
 2445SOL    HW112182   1.434   5.118   1.004 -0.3828  0.7723 -1.2007
 2445SOL    HW212183   1.497   4.983   0.983  1.4245  1.1979  1.2398
 2446SOL     OW12184   1.788   5.592   9.709  0.0196 -0.3396  0.0432
 2446SOL    HW112185   1.785   5.497   9.716 -0.8517 -0.4968 -2.1113
 2446SOL    HW212186   1.697   5.620   9.719  0.1250  0.1793 -0.4455
 2447SOL     OW12187   1.595   4.530   9.825 -0.5816 -0.2119 -0.0212
 2447SOL    HW112188   1.616   4.579   9.746 -0.3228 -0.4105 -0.0752
 2447SOL    HW212189   1.647   4.450   9.819  0.9509  0.6553  1.3114
 2448SOL     OW12190   1.995   4.464   1.752 -0.5436  0.2571 -0.1656
 2448SOL    HW112191   1.979   4.401   1.823 -0.9774 -0.8175 -1.2035
 2448SOL    HW212192   1.999   4.549   1.796 -0.1882 -0.4673  1.2229
 2449SOL     OW12193   0.477   5.354   0.464  0.0214  0.2576 -0.3299
 2449SOL    HW112194   0.442   5.410   0.534  0.9724 -2.2721  2.2298
 2449SOL    HW212195   0.399   5.318   0.422 -0.5622 -0.8186  1.6071
 2450SOL     OW12196   0.139   5.990   1.434  0.0440 -0.8488 -0.1750
 2450SOL    HW112197   0.213   5.990   1.373  0.7049  1.7552  0.5592
 2450SOL    HW212198   0.067   6.029   1.385  0.5481  1.1528  0.6044
 2451SOL     OW12199   0.913   6.088   0.600  0.3669 -0.0335 -0.5770
 2451SOL    HW112200   0.827   6.130   0.596 -0.2853 -1.1613  0.9395
 2451SOL    HW212201   0.950   6.117   0.683  1.0238 -0.3958 -0.7379
 2452SOL     OW12202   9.592   5.644   0.427 -0.0815  0.3586  0.4238
 2452SOL    HW112203   9.686   5.642   0.441  0.1497  1.7383 -0.8161
 2452SOL    HW212204   9.555   5.595   0.501  1.5277  0.6586  1.4353
 2453SOL     OW12205   0.570   3.578   2.224 -0.0981 -0.2317  0.0149
 2453SOL    HW112206   0.661   3.580   2.193 -0.4996 -2.3620 -1.4234
 2453SOL    HW212207   0.578   3.574   2.319  1.4359 -2.8762 -0.1539
 2454SOL     OW12208   1.194   4.974   9.689  0.2537 -0.0479  0.2042
 2454SOL    HW112209   1.246   5.039   9.642  0.1956 -0.3642 -0.2965
 2454SOL    HW212210   1.249   4.946   9.762 -0.5946  2.2685  1.8063
 2455SOL     OW12211   1.553   4.909   1.768 -0.2531 -0.1445  0.3733
 2455SOL    HW112212   1.540   4.833   1.825  1.8233 -0.4328  0.5023
 2455SOL    HW212213   1.497   4.977   1.804 -3.0477 -1.9546 -0.4304
 2456SOL     OW12214   9.898   4.836   1.311  0.1612 -0.2246 -0.5324
 2456SOL    HW112215   9.987   4.805   1.329 -0.0072 -0.9929 -1.0246
 2456SOL    HW212216   9.855   4.833   1.397  0.6677  0.3585 -0.2502
 2457SOL     OW12217   0.384   4.056   9.855 -0.5334  0.0479  0.0578
 2457SOL    HW112218   0.323   4.042   9.783 -0.2987  2.6468 -0.6825
 2457SOL    HW212219   0.470   4.064   9.813 -0.4383  1.9062  0.5722
 2458SOL     OW12220   9.740   5.265   8.842  0.5200  0.2252  0.0787
 2458SOL    HW112221   9.719   5.304   8.927 -1.9184  0.7592 -0.7295
 2458SOL    HW212222   9.748   5.340   8.783  0.2320 -0.2336 -0.5536
 2459SOL     OW12223   9.699   5.748   1.457  0.4440  0.3901 -0.5201
 2459SOL    HW112224   9.720   5.812   1.389  2.5388  0.5045  0.1983
 2459SOL    HW212225   9.732   5.787   1.538  0.5380 -1.0164  0.1367
 2460SOL     OW12226   0.622   3.704   1.811  0.2590  0.5401  0.1181
 2460SOL    HW112227   0.613   3.753   1.893 -2.4841 -0.0429  0.2112
 2460SOL    HW212228   0.576   3.622   1.828 -0.8342  0.6658 -2.2286
 2461SOL     OW12229   1.538   6.941   0.629  0.3478  0.1587 -0.2494
 2461SOL    HW112230   1.483   7.019   0.622 -0.6496 -0.6005 -1.0390
 2461SOL    HW212231   1.479   6.868   0.610  1.0915 -0.8549  1.1964
 2462SOL     OW12232   1.816   4.483   1.532  0.5596  0.2779 -0.4285
 2462SOL    HW112233   1.742   4.446   1.579  1.1703  0.0562  0.3730
 2462SOL    HW212234   1.889   4.477   1.593  1.7453 -1.4955 -1.9443
 2463SOL     OW12235   9.743   4.995   9.635  0.4453  0.2483  0.0941
 2463SOL    HW112236   9.673   4.936   9.607  0.8802  0.3144 -1.1638
 2463SOL    HW212237   9.816   4.937   9.656  0.4794  0.2668  0.0263
 2464SOL     OW12238   1.559   5.165   1.435  0.3600 -0.5927  0.0901
 2464SOL    HW112239   1.576   5.084   1.484 -0.0211 -0.2248  0.8288
 2464SOL    HW212240   1.467   5.184   1.451  0.4069 -0.0995 -0.2243
 2465SOL     OW12241   2.504   4.349   0.326  0.0366  0.0233 -0.4614
 2465SOL    HW112242   2.472   4.274   0.275  0.0623  0.1831 -0.7129
 2465SOL    HW212243   2.486   4.425   0.270 -0.0469  0.2111 -0.1806
 2466SOL     OW12244   1.185   2.530   0.687 -0.0532  0.0491 -0.5334
 2466SOL    HW112245   1.102   2.577   0.688  0.0877  0.3825  2.4604
 2466SOL    HW212246   1.174   2.462   0.754  1.6874 -0.6242 -0.9166
 2467SOL     OW12247   0.340   5.186   3.098  0.3741 -0.6464 -0.1519
 2467SOL    HW112248   0.325   5.101   3.057 -0.7636 -0.8931  0.7603
 2467SOL    HW212249   0.382   5.165   3.182  1.8990 -0.1944 -0.7959
 2468SOL     OW12250   1.850   5.322   9.815 -0.1802 -0.2374  0.3793
 2468SOL    HW112251   1.861   5.229   9.837 -0.0518 -0.5856 -1.1376
 2468SOL    HW212252   1.929   5.364   9.850  1.0576 -1.1245 -1.2620
 2469SOL     OW12253   9.531   4.831   1.382 -0.1642 -0.3138  0.8258
 2469SOL    HW112254   9.612   4.867   1.419  0.3493 -1.6468  1.0153
 2469SOL    HW212255   9.514   4.752   1.433 -1.1766 -0.4423  0.2921
 2470SOL     OW12256   0.409   3.906   1.483 -0.7350  0.3771 -0.2089
 2470SOL    HW112257   0.434   3.822   1.443 -1.0521  0.3191 -0.2841
 2470SOL    HW212258   0.475   3.968   1.452 -0.8958  0.3010 -0.7040
 2471SOL     OW12259   0.118   3.086   0.826 -1.0838  0.1176  0.2275
 2471SOL    HW112260   0.099   3.099   0.733 -0.8169 -0.8655  0.0335
 2471SOL    HW212261   0.032   3.088   0.868 -1.5996 -3.2837 -0.5277
 2472SOL     OW12262   9.831   5.597   1.634  0.1321 -0.0174 -0.0266
 2472SOL    HW112263   9.864   5.682   1.661  0.5916  0.5115 -2.1877
 2472SOL    HW212264   9.790   5.613   1.549 -0.8166 -1.7313  0.0841
 2473SOL     OW12265   1.119   5.151   8.477  0.7356 -0.2189  0.1342
 2473SOL    HW112266   1.099   5.061   8.451  0.7613 -0.3753  0.6510
 2473SOL    HW212267   1.043   5.180   8.526  0.1241  0.5348 -1.2227
 2474SOL     OW12268   9.991   4.489   1.248 -0.1844  0.0649  0.4779
 2474SOL    HW112269  10.055   4.552   1.281 -0.1898  0.0618  0.4941
 2474SOL    HW212270  10.040   4.409   1.235 -0.4834 -0.3499  1.8276
 2475SOL     OW12271   0.170   4.375   9.987  0.5911  0.2269 -0.7403
 2475SOL    HW112272   0.082   4.344  10.007  0.1360  1.6981 -0.4391
 2475SOL    HW212273   0.160   4.469   9.975  2.1019  0.3779 -0.8482
 2476SOL     OW12274   2.771   4.725   0.870  0.4005 -0.2474 -0.3665
 2476SOL    HW112275   2.720   4.666   0.925  0.4762 -0.1108 -0.1492
 2476SOL    HW212276   2.776   4.680   0.785  0.7967 -0.7351 -0.0859
 2477SOL     OW12277   1.253   4.427   2.200  0.1359  0.1046  0.3661
 2477SOL    HW112278   1.318   4.362   2.174  1.3084 -0.1605  3.6695
 2477SOL    HW212279   1.260   4.496   2.135  2.1477 -0.9486 -0.5827
 2478SOL     OW12280   2.063   4.748   1.216  0.4745 -0.2267 -0.3430
 2478SOL    HW112281   1.997   4.680   1.206 -0.7999  0.9455  0.0165
 2478SOL    HW212282   2.034   4.800   1.291  0.4195  1.8414 -1.7545
 2479SOL     OW12283   2.541   6.332   1.673  0.4325  0.1340 -0.0558
 2479SOL    HW112284   2.515   6.272   1.743  0.3669  0.1554 -0.0627
 2479SOL    HW212285   2.576   6.409   1.719  0.5148  0.0917 -0.0470
 2480SOL     OW12286   1.066   5.965   1.840 -0.0143 -0.3214 -0.3549
 2480SOL    HW112287   1.127   5.922   1.900  1.1743  1.2949 -0.3690
 2480SOL    HW212288   0.982   5.963   1.886  1.2349  2.4445  2.2060
 2481SOL     OW12289   8.945   4.636   0.183  0.2261 -0.3280  0.4571
 2481SOL    HW112290   8.961   4.729   0.163 -0.7574 -0.4353 -0.8747
 2481SOL    HW212291   9.022   4.609   0.234  0.5469  1.2002  0.8062
 2482SOL     OW12292   0.142   6.062   0.964  0.0820 -0.2143  0.7037
 2482SOL    HW112293   0.095   6.140   0.995 -1.3899 -0.9919  0.4846
 2482SOL    HW212294   0.116   5.994   1.027  0.9094 -0.6580  0.5584
 2483SOL     OW12295   9.773   4.794   1.568  0.2874  0.8021  0.3751
 2483SOL    HW112296   9.828   4.716   1.572 -0.5323 -0.2013 -4.8549
 2483SOL    HW212297   9.715   4.786   1.644 -0.0234 -3.9037 -0.2283
 2484SOL     OW12298   9.022   4.371   0.576  0.0120  0.0032 -0.2336
 2484SOL    HW112299   9.021   4.433   0.650  2.5074 -1.5786  1.2145
 2484SOL    HW212300   9.083   4.410   0.513 -0.7939  0.5094 -0.7096
 2485SOL     OW12301   1.427   3.898   1.345  0.2316  0.3189  0.1985
 2485SOL    HW112302   1.388   3.813   1.364 -0.0675  0.9243  2.4230
 2485SOL    HW212303   1.517   3.891   1.377  0.4014  0.6469 -0.1941
 2486SOL     OW12304   0.561   3.815   2.049 -0.4674 -0.2200 -0.1609
 2486SOL    HW112305   0.633   3.866   2.087  1.1466 -1.3458 -1.6193
 2486SOL    HW212306   0.539   3.751   2.117 -0.4099  0.4289  0.4733
 2487SOL     OW12307   9.903   2.552   2.941 -0.2385  0.1675  0.4675
 2487SOL    HW112308   9.883   2.646   2.942 -1.6735 -0.1246  0.4252
 2487SOL    HW212309   9.851   2.518   2.868  0.0154 -0.7246  0.7015
 2488SOL     OW12310   0.685   6.217   0.573  0.4915 -0.0503 -0.0901
 2488SOL    HW112311   0.671   6.275   0.648  0.5962  0.2893 -0.3299
 2488SOL    HW212312   0.648   6.265   0.499 -2.3446 -1.6507  0.1995
 2489SOL     OW12313   9.322   5.250   0.999  0.0042  0.2212 -0.1007
 2489SOL    HW112314   9.241   5.292   0.969 -0.2222 -0.0290  0.1591
 2489SOL    HW212315   9.390   5.289   0.945 -0.3594  0.0296 -0.7083
 2490SOL     OW12316   1.356   5.400   0.940 -0.4882  0.6197  0.6605
 2490SOL    HW112317   1.400   5.333   0.991 -1.1925  0.1898  0.7139
 2490SOL    HW212318   1.266   5.369   0.932 -0.6678  1.2489  0.1487
 2491SOL     OW12319   0.921   3.871   2.674 -0.1862  0.2197 -0.2074
 2491SOL    HW112320   0.868   3.924   2.614  1.6438  1.5620 -0.6716
 2491SOL    HW212321   0.867   3.865   2.754 -0.9115  1.8579 -0.5408
 2492SOL     OW12322   0.203   4.435   3.274  0.3320 -0.0504  0.3338
 2492SOL    HW112323   0.118   4.402   3.245 -0.1119  0.3530  1.1388
 2492SOL    HW212324   0.266   4.396   3.214 -0.3886 -0.6453 -0.0470
 2493SOL     OW12325   1.426   3.232   1.542 -0.2050  0.0598 -0.2644
 2493SOL    HW112326   1.367   3.267   1.475  0.4246 -0.8723 -1.3317
 2493SOL    HW212327   1.506   3.211   1.494  0.6035  0.2756  0.9681
 2494SOL     OW12328   8.385   6.626   0.081 -0.1134 -0.0857 -0.4092
 2494SOL    HW112329   8.409   6.698   0.022 -1.3808  0.0605 -0.7762
 2494SOL    HW212330   8.289   6.624   0.078 -0.1186 -1.2622  0.2448
 2495SOL     OW12331   0.980   4.130   0.484 -0.1920 -0.7102 -0.3951
 2495SOL    HW112332   0.920   4.114   0.557 -0.6028 -0.1959 -0.6120
 2495SOL    HW212333   0.929   4.111   0.406 -0.6843  1.4758 -0.6569
 2496SOL     OW12334   0.565   4.706   1.980 -0.1639  0.2438  0.1123
 2496SOL    HW112335   0.510   4.650   1.925 -0.3373  0.1435  0.3912
 2496SOL    HW212336   0.530   4.697   2.068 -0.2109  0.8136  0.1545
 2497SOL     OW12337   9.914   2.884   2.384 -0.3056  0.2036  0.0904
 2497SOL    HW112338   9.923   2.796   2.422  1.8128  0.7672  0.9527
 2497SOL    HW212339   9.829   2.915   2.416 -0.9448 -1.4137  0.0084
 2498SOL     OW12340   1.903   4.215   2.373  0.2858  0.5767 -0.1443
 2498SOL    HW112341   1.862   4.180   2.294 -1.7561  0.0093  1.1161
 2498SOL    HW212342   1.987   4.170   2.379  1.0679  1.5969 -2.6807
 2499SOL     OW12343   0.047   5.421   9.666 -0.0712 -0.0623 -0.4892
 2499SOL    HW112344   0.035   5.372   9.585  0.5549 -0.4644 -0.3461
 2499SOL    HW212345   0.034   5.356   9.735 -1.8559  0.5536 -0.2271
 2500SOL     OW12346   9.550   4.779   0.915  0.3128  0.2901  0.5069
 2500SOL    HW112347   9.570   4.700   0.864  0.8535  0.8537 -0.1612
 2500SOL    HW212348   9.613   4.778   0.987  0.1282 -0.0452  0.6639
 2501SOL     OW12349   0.103   5.077   9.766  0.6132 -0.1256 -0.1197
 2501SOL    HW112350   0.049   5.131   9.824  1.6031  1.0197 -0.2542
 2501SOL    HW212351   0.079   5.105   9.678 -0.5082 -1.5001 -0.2685
 2502SOL     OW12352   0.685   4.552   0.007 -0.5026 -0.0721  0.1651
 2502SOL    HW112353   0.728   4.480   0.052 -0.8179 -0.2762  0.1391
 2502SOL    HW212354   0.599   4.517  -0.019  0.6365 -0.8116 -2.8560
 2503SOL     OW12355   0.527   6.399   1.251  0.2683 -0.0447  0.1593
 2503SOL    HW112356   0.486   6.313   1.235 -0.0095  0.0066  0.5861
 2503SOL    HW212357   0.454   6.461   1.246 -0.2430 -0.2319  3.7063
 2504SOL     OW12358   1.182   5.587   0.754  0.2982 -0.7240 -0.6311
 2504SOL    HW112359   1.222   5.501   0.773  0.9102 -0.4687 -0.7365
 2504SOL    HW212360   1.225   5.647   0.814 -1.3287 -0.7680  0.5932
 2505SOL     OW12361   1.314   4.642   1.701  0.3288  0.1225  0.1158
 2505SOL    HW112362   1.278   4.553   1.706  1.0623 -0.1620  0.3972
 2505SOL    HW212363   1.388   4.641   1.762  0.4468  0.8805 -0.0133
 2506SOL     OW12364   2.233   2.983   1.868  0.3119 -0.0855  0.2179
 2506SOL    HW112365   2.192   2.912   1.818  0.2532 -1.2770  1.9339
 2506SOL    HW212366   2.263   2.942   1.948  1.3408  1.6072  0.7260
 2507SOL     OW12367   0.093   2.449   1.335  0.0847 -0.2367  0.1638
 2507SOL    HW112368   0.080   2.356   1.356  0.9372 -0.7726 -1.5366
 2507SOL    HW212369   0.173   2.473   1.381  1.5247 -1.1899 -1.7493
 2508SOL     OW12370   9.931   5.644   1.355  0.4699 -0.3727  0.1229
 2508SOL    HW112371   9.908   5.704   1.426  3.2739  0.8162  0.0749
 2508SOL    HW212372   9.999   5.588   1.391  0.4957 -1.0886 -0.9979
 2509SOL     OW12373   0.675   3.288   9.902 -0.0637  0.4397  0.0948
 2509SOL    HW112374   0.730   3.318   9.975  1.7321 -2.2294 -0.0671
 2509SOL    HW212375   0.726   3.217   9.862 -3.6406 -2.1699 -0.0410
 2510SOL     OW12376   9.813   5.763   9.658 -0.3370 -0.6556 -0.3291
 2510SOL    HW112377   9.780   5.749   9.746 -2.7242  1.9894 -0.7363
 2510SOL    HW212378   9.741   5.804   9.611  1.3194 -0.8406 -3.1686
 2511SOL     OW12379   9.461   5.543   9.924 -0.3182  0.4609 -0.1342
 2511SOL    HW112380   9.421   5.456   9.921  1.1758 -0.3511  2.3873
 2511SOL    HW212381   9.469   5.564  10.017  1.9320  2.0690 -0.6263
 2512SOL     OW12382   2.017   4.990   0.716  0.5986 -0.1737 -0.1507
 2512SOL    HW112383   2.111   5.001   0.701  0.7353 -1.6771 -0.4778
 2512SOL    HW212384   2.012   4.936   0.795  0.0137 -0.5034 -0.4150
 2513SOL     OW12385   1.403   2.453   1.485 -0.2223 -0.2267 -0.4047
 2513SOL    HW112386   1.427   2.360   1.490 -0.3526 -0.2079  0.8302
 2513SOL    HW212387   1.325   2.460   1.540 -1.9507  0.0839 -2.7988
 2514SOL     OW12388   0.322   3.857   1.144  0.2453 -0.2381  0.2327
 2514SOL    HW112389   0.360   3.927   1.197 -0.3373 -0.3994  0.8753
 2514SOL    HW212390   0.397   3.802   1.120  0.1211 -2.1503  3.8757
 2515SOL     OW12391   0.928   3.166   0.900 -0.1264 -0.2949 -0.3899
 2515SOL    HW112392   0.971   3.158   0.985 -0.5442  1.7839  0.0449
 2515SOL    HW212393   0.997   3.147   0.836  0.1624 -1.9664  0.4081
 2516SOL     OW12394   9.253   4.764   9.571  0.4554  0.1898  0.0857
 2516SOL    HW112395   9.181   4.741   9.631 -0.4955  1.4814 -0.5412
 2516SOL    HW212396   9.325   4.707   9.598 -0.3344 -0.0937  1.6893
 2517SOL     OW12397   0.484   5.347   1.390 -0.2379 -0.2057 -0.5244
 2517SOL    HW112398   0.416   5.376   1.329 -0.3761 -1.4815 -0.9886
 2517SOL    HW212399   0.532   5.427   1.412 -1.8395  0.6895 -0.2552
 2518SOL     OW12400   2.673   7.322   3.020  0.2437 -0.8592  0.2055
 2518SOL    HW112401   2.677   7.251   2.956 -0.7282 -3.3051  2.7380
 2518SOL    HW212402   2.763   7.331   3.052  0.5765 -0.1800 -0.9097
 2519SOL     OW12403   0.937   4.957   0.586  0.4015 -0.6357 -0.2820
 2519SOL    HW112404   0.939   5.046   0.623  0.8669 -0.4089 -0.8601
 2519SOL    HW212405   0.871   4.912   0.638 -0.1583  0.1794 -0.2774
 2520SOL     OW12406   9.311   3.612   1.346 -0.0626 -0.2860  0.3331
 2520SOL    HW112407   9.298   3.670   1.421  1.0055  1.9848 -1.1977
 2520SOL    HW212408   9.251   3.646   1.279  0.4067 -1.0902 -0.5057
 2521SOL     OW12409   0.280   3.881   1.715 -0.1569 -0.2855  0.0929
 2521SOL    HW112410   0.343   3.882   1.642  0.9383 -1.6678  0.9990
 2521SOL    HW212411   0.325   3.926   1.786 -1.4182  1.4971 -0.2072
 2522SOL     OW12412   1.027   4.267   1.523  0.4902 -0.2139 -0.2805
 2522SOL    HW112413   0.953   4.325   1.538  1.7821  1.5739 -0.7540
 2522SOL    HW212414   1.005   4.187   1.571 -2.4010 -0.2689 -1.5946
 2523SOL     OW12415   0.250   6.453   9.522 -0.1303 -0.2061  0.9238
 2523SOL    HW112416   0.231   6.501   9.603  0.2389  1.9058 -0.2144
 2523SOL    HW212417   0.293   6.516   9.466  2.6259 -2.5838  0.2538
 2524SOL     OW12418   1.395   4.235   2.067  0.1056  0.1067  0.0909
 2524SOL    HW112419   1.489   4.229   2.053 -0.0501 -1.1044 -0.5873
 2524SOL    HW212420   1.368   4.145   2.085 -1.4703 -0.2299 -3.5503
 2525SOL     OW12421   9.529   5.029   8.434  0.1584 -0.2818  0.0243
 2525SOL    HW112422   9.484   5.080   8.502  0.4635 -1.2806  0.9916
 2525SOL    HW212423   9.516   4.938   8.461 -1.2860 -0.7817 -2.2490
 2526SOL     OW12424   0.594   6.001   9.376 -0.7852 -0.1406 -0.3190
 2526SOL    HW112425   0.604   6.002   9.471 -0.0883 -1.2363 -0.3653
 2526SOL    HW212426   0.500   6.010   9.362 -0.9488 -0.5293  0.4992
 2527SOL     OW12427   0.163   4.628   0.950  0.6112 -0.2276  0.2568
 2527SOL    HW112428   0.102   4.563   0.985 -0.7868  1.0056  0.1323
 2527SOL    HW212429   0.127   4.712   0.978  1.0009  0.6363 -1.7744
 2528SOL     OW12430   1.570   5.278   9.446  0.2255  0.4809 -0.3377
 2528SOL    HW112431   1.533   5.236   9.368 -0.8412 -0.0644  0.4446
 2528SOL    HW212432   1.643   5.330   9.413  0.3505 -0.4561 -1.5826
 2529SOL     OW12433   1.035   6.548   2.087 -0.1606 -0.6917 -0.1922
 2529SOL    HW112434   1.058   6.529   1.996 -0.7249 -0.3118 -0.4188
 2529SOL    HW212435   0.968   6.616   2.081  2.8909  2.5250  0.6366
 2530SOL     OW12436   2.119   4.747   9.684 -0.4578  0.2849  0.4533
 2530SOL    HW112437   2.132   4.722   9.775  0.5954  1.0406  0.5214
 2530SOL    HW212438   2.024   4.751   9.673 -0.5837  0.3981  1.5647
 2531SOL     OW12439   9.485   5.897   1.775 -0.2679  0.3028  0.1528
 2531SOL    HW112440   9.499   5.929   1.864  2.5655 -1.1575  0.3072
 2531SOL    HW212441   9.573   5.894   1.737 -1.4433  1.0900 -2.7905
 2532SOL     OW12442   1.349   3.714   0.243  0.0334 -0.1973 -0.2678
 2532SOL    HW112443   1.281   3.774   0.212 -1.0930 -0.9022  0.7802
 2532SOL    HW212444   1.340   3.637   0.187 -1.2063 -0.9941  1.0277
 2533SOL     OW12445   9.889   6.002   0.576 -0.0424 -0.2513 -0.3681
 2533SOL    HW112446   9.796   5.982   0.580 -0.0466 -0.4052 -1.1854
 2533SOL    HW212447   9.932   5.926   0.614 -0.2052 -0.5495 -0.7845
 2534SOL     OW12448   1.749   5.355   0.752  0.4277 -0.0796  0.2077
 2534SOL    HW112449   1.827   5.363   0.807  0.0834  2.2685  0.4107
 2534SOL    HW212450   1.777   5.301   0.678  1.7655 -0.6823  1.1359
 2535SOL     OW12451   0.781   6.310   0.284 -0.1551 -0.0570 -0.0856
 2535SOL    HW112452   0.723   6.351   0.348  1.9934  0.3964  1.6607
 2535SOL    HW212453   0.729   6.240   0.246 -1.7117  0.0888  1.6852
 2536SOL     OW12454   0.559   4.125   0.699 -0.1615  0.2738  0.3947
 2536SOL    HW112455   0.652   4.105   0.687 -0.0784  1.4172 -0.8866
 2536SOL    HW212456   0.513   4.055   0.652  0.0468  0.1735  0.3419
 2537SOL     OW12457   1.488   3.252   0.603  0.3964 -0.3780  0.2077
 2537SOL    HW112458   1.435   3.246   0.523  0.5425  1.1052 -0.0187
 2537SOL    HW212459   1.578   3.261   0.570  0.5920 -1.0611  0.5605
 2538SOL     OW12460   1.382   5.971   9.836 -0.5439 -0.6820 -0.0922
 2538SOL    HW112461   1.351   6.060   9.856 -2.8112 -2.0776  2.9220
 2538SOL    HW212462   1.362   5.920   9.914  3.6269 -3.2116 -0.5348
 2539SOL     OW12463   2.187   6.471   9.543 -0.6977 -0.7305 -0.1436
 2539SOL    HW112464   2.200   6.404   9.610 -0.1671 -0.8587 -0.3758
 2539SOL    HW212465   2.164   6.422   9.464  1.1482 -0.7365 -0.6954
 2540SOL     OW12466   0.399   4.007   1.919 -0.2142 -0.3655  0.6639
 2540SOL    HW112467   0.341   4.039   1.987 -0.0076  0.0394  0.6513
 2540SOL    HW212468   0.466   3.957   1.965 -0.6155 -0.9001  0.6711
 2541SOL     OW12469   2.358   3.485   1.242  0.6081  0.0447  0.3466
 2541SOL    HW112470   2.452   3.482   1.229  0.7193 -0.4161  1.1878
 2541SOL    HW212471   2.337   3.402   1.285  0.0222  0.7081  1.3751
 2542SOL     OW12472   0.551   5.773   1.745  0.2676  0.2902  0.0009
 2542SOL    HW112473   0.518   5.699   1.694  0.8919 -0.2121  0.3192
 2542SOL    HW212474   0.535   5.850   1.690  1.1834 -0.2797 -1.0840
 2543SOL     OW12475   2.311   4.680   9.131 -0.0777 -0.0749 -0.1875
 2543SOL    HW112476   2.379   4.615   9.113 -0.7798 -0.7055 -0.5727
 2543SOL    HW212477   2.237   4.629   9.163 -0.7893  0.4900 -0.9099
 2544SOL     OW12478   0.108   4.875   1.864 -0.5387 -0.3278  0.1373
 2544SOL    HW112479   0.137   4.888   1.954 -2.9137 -2.9355  1.3536
 2544SOL    HW212480   0.023   4.919   1.860 -0.3482 -0.0493 -0.9210
 2545SOL     OW12481   0.271   5.246   0.301  0.0824  0.0484  0.0274
 2545SOL    HW112482   0.228   5.259   0.386  0.3018 -0.8306  0.2727
 2545SOL    HW212483   0.208   5.197   0.249 -0.6743  1.8881 -0.8499
 2546SOL     OW12484   9.593   3.043   2.163  0.0388  0.2067 -0.4063
 2546SOL    HW112485   9.546   3.124   2.142  0.1315  0.1507 -0.8486
 2546SOL    HW212486   9.686   3.068   2.155  0.0616 -0.5524 -2.9755
 2547SOL     OW12487   0.405   4.924   0.182  0.7285 -0.0286 -0.4082
 2547SOL    HW112488   0.462   4.847   0.177 -0.2812 -0.6881 -2.6518
 2547SOL    HW212489   0.445   4.987   0.122 -1.5278 -0.9843 -3.0300
 2548SOL     OW12490   1.900   4.509   1.226  0.2282  0.4805 -0.5416
 2548SOL    HW112491   1.904   4.492   1.320  0.8954  0.0648 -0.6395
 2548SOL    HW212492   1.908   4.423   1.185  0.6696  0.7290 -0.9905
 2549SOL     OW12493   0.677   3.555   0.987  0.4543 -0.3740  0.0421
 2549SOL    HW112494   0.656   3.558   1.080  1.8313 -0.6359  0.3758
 2549SOL    HW212495   0.758   3.606   0.979  0.6648 -0.8525 -0.9120
 2550SOL     OW12496   9.967   4.151   9.606  0.9029  0.5525  0.9194
 2550SOL    HW112497  10.020   4.186   9.535  0.4255  1.2259  0.8928
 2550SOL    HW212498   9.953   4.059   9.583 -1.5865  1.4156 -1.2997
 2551SOL     OW12499   1.420   2.500   0.304 -0.7936  0.1477 -0.1299
 2551SOL    HW112500   1.475   2.429   0.271 -0.9986 -0.4881  0.8784
 2551SOL    HW212501   1.465   2.580   0.277 -0.0037 -0.3687 -0.3456
 2552SOL     OW12502   2.045   1.682   9.864  0.5892 -0.5092  0.0081
 2552SOL    HW112503   1.996   1.764   9.875 -0.4641 -1.2367  0.8120
 2552SOL    HW212504   2.022   1.630   9.941  0.7365 -1.8210 -0.8195
 2553SOL     OW12505   0.956   5.271   1.139  0.1425 -0.4935 -0.0597
 2553SOL    HW112506   0.900   5.244   1.212  1.4545 -1.6887  0.5333
 2553SOL    HW212507   0.903   5.335   1.090 -2.7744 -3.5474 -1.0694
 2554SOL     OW12508   0.025   5.092   1.553 -0.0734  0.7484  0.1108
 2554SOL    HW112509   0.010   5.144   1.475  1.5031  1.7475  0.4531
 2554SOL    HW212510   0.098   5.035   1.531 -1.9412 -1.5362 -0.3430
 2555SOL     OW12511   0.068   3.369   0.258 -0.8311 -0.1515  0.5344
 2555SOL    HW112512   0.053   3.430   0.330 -2.0680  0.7116 -0.4187
 2555SOL    HW212513   0.147   3.401   0.214  0.5543 -1.3161  2.1363
 2556SOL     OW12514   1.116   4.227   0.706 -0.2367  0.1660 -0.0480
 2556SOL    HW112515   1.117   4.135   0.732  0.2030  0.4723  1.0749
 2556SOL    HW212516   1.075   4.228   0.619 -0.9288 -0.9953  0.2595
 2557SOL     OW12517   9.940   4.027   9.229 -0.5142  0.3826  0.4567
 2557SOL    HW112518   9.961   3.965   9.160 -0.4814 -0.1543  0.9436
 2557SOL    HW212519   9.893   3.975   9.295  1.4143  0.3463  1.8733
 2558SOL     OW12520   0.039   5.829   0.734 -0.3299 -0.0270 -0.7125
 2558SOL    HW112521   0.014   5.737   0.747  0.8869 -0.4867 -1.5269
 2558SOL    HW212522   0.040   5.866   0.822  2.6453 -1.7241  0.0376
 2559SOL     OW12523   0.196   5.202   0.921  0.3445  0.0185 -0.7833
 2559SOL    HW112524   0.134   5.156   0.865  1.5748 -1.1231 -1.2432
 2559SOL    HW212525   0.261   5.136   0.944  0.3379  0.6940  1.2884
 2560SOL     OW12526   8.122   5.160   3.437 -0.2468 -0.2374  0.7501
 2560SOL    HW112527   8.153   5.071   3.455 -0.1654 -0.3248  0.1875
 2560SOL    HW212528   8.201   5.208   3.412 -0.7008 -0.7368 -1.7550
 2561SOL     OW12529   0.989   5.426   2.244  0.3551 -0.0304 -0.0285
 2561SOL    HW112530   1.039   5.355   2.284 -0.2789 -0.0571  0.7300
 2561SOL    HW212531   1.045   5.503   2.253  0.6661 -0.2539 -0.0511
 2562SOL     OW12532   0.484   5.181   1.609 -0.3849  0.2245 -0.1226
 2562SOL    HW112533   0.478   5.231   1.528 -0.3100 -0.1375 -0.3535
 2562SOL    HW212534   0.395   5.179   1.643 -0.8160 -1.4146 -1.2808
 2563SOL     OW12535   2.075   5.825   2.070 -0.1864  0.5387  0.4895
 2563SOL    HW112536   2.123   5.904   2.044  0.3202  0.7215  1.9533
 2563SOL    HW212537   2.006   5.816   2.004  0.9501  1.1022 -0.7919
 2564SOL     OW12538   1.649   4.314   2.038  0.8216  0.1420  0.5808
 2564SOL    HW112539   1.641   4.380   2.106 -0.1653  1.8473 -1.1415
 2564SOL    HW212540   1.743   4.305   2.023  0.9332  1.6217  0.3832
 2565SOL     OW12541   9.529   4.925   5.087  0.1744  0.5639  0.7696
 2565SOL    HW112542   9.517   5.016   5.060  0.5437  0.2755 -0.4048
 2565SOL    HW212543   9.624   4.914   5.090  0.1310  0.4722  1.7943
 2566SOL     OW12544   0.560   4.760   2.923  0.7062 -0.5734 -0.1219
 2566SOL    HW112545   0.576   4.668   2.947  3.0446  0.0459  0.8486
 2566SOL    HW212546   0.633   4.782   2.865  1.7678  1.4713  1.8921
 2567SOL     OW12547   9.887   4.991   4.287 -0.3650 -0.5115 -0.2983
 2567SOL    HW112548   9.913   4.934   4.215 -0.9233 -0.3356 -0.6400
 2567SOL    HW212549   9.886   4.934   4.364  0.8046 -0.5732 -0.3128
 2568SOL     OW12550   9.728   2.797   1.991 -0.2764  0.1933 -0.2368
 2568SOL    HW112551   9.724   2.746   1.910  2.9597  1.6849 -1.4376
 2568SOL    HW212552   9.647   2.848   1.991 -1.2756 -1.3402 -1.4733
 2569SOL     OW12553   3.512   6.705   1.935 -0.5437 -0.2237 -0.3533
 2569SOL    HW112554   3.595   6.751   1.926  0.4256 -1.5919  1.2175
 2569SOL    HW212555   3.497   6.701   2.030 -2.1289 -0.4711 -0.5973
 2570SOL     OW12556   0.246   5.417   3.911  0.0288 -0.6086 -0.8739
 2570SOL    HW112557   0.178   5.371   3.861 -1.2717  2.7126 -2.3130
 2570SOL    HW212558   0.315   5.435   3.847  1.1824 -1.6957  0.0108
 2571SOL     OW12559   0.012   4.084   2.855 -0.4534 -0.7439 -0.1992
 2571SOL    HW112560  -0.047   4.037   2.913  0.1376 -1.8264 -0.4562
 2571SOL    HW212561  -0.024   4.069   2.767 -0.7190 -0.0379 -0.2145
 2572SOL     OW12562   0.498   4.296   1.435  0.9317  0.4700  0.2044
 2572SOL    HW112563   0.501   4.335   1.522  0.6778 -0.6291  0.7080
 2572SOL    HW212564   0.581   4.248   1.427 -0.6549 -2.5683  1.3302
 2573SOL     OW12565   1.717   6.198   3.087 -0.9498 -0.1888 -0.4292
 2573SOL    HW112566   1.663   6.167   3.160 -1.8048 -0.3527 -1.1265
 2573SOL    HW212567   1.675   6.279   3.058  0.6230  1.0468  0.6411
 2574SOL     OW12568   0.570   4.973   2.014 -0.7359  0.2027  0.5352
 2574SOL    HW112569   0.581   4.878   2.023 -2.9210 -0.1279 -0.1738
 2574SOL    HW212570   0.652   5.002   1.973  0.6940 -1.1108  2.3595
 2575SOL     OW12571   9.926   3.973   3.279  0.1131  0.2726  0.2826
 2575SOL    HW112572   9.998   3.981   3.216 -0.3479 -2.9951 -0.7700
 2575SOL    HW212573   9.847   3.990   3.227 -0.1322 -0.3891  0.4288
 2576SOL     OW12574   9.654   5.612   3.613 -0.4641  0.1213 -0.3610
 2576SOL    HW112575   9.733   5.598   3.561 -0.8285 -1.3198 -0.5663
 2576SOL    HW212576   9.675   5.573   3.698 -0.7554  0.2233 -0.2449
 2577SOL     OW12577   0.828   4.078   0.993 -0.3898 -0.1197  0.2932
 2577SOL    HW112578   0.762   4.144   1.015 -0.4140  0.1861 -0.7103
 2577SOL    HW212579   0.862   4.049   1.078  1.8149  3.3630  0.6953
 2578SOL     OW12580   0.429   3.103   0.874 -0.6432  0.3660  0.0989
 2578SOL    HW112581   0.334   3.113   0.863 -0.6328  0.7547  0.3604
 2578SOL    HW212582   0.440   3.012   0.899 -0.8448 -0.0025 -1.1263
 2579SOL     OW12583   0.790   5.920   1.851 -0.6669  0.1192 -0.0302
 2579SOL    HW112584   0.781   5.841   1.905  1.6332 -0.9326 -1.1078
 2579SOL    HW212585   0.727   5.907   1.780 -0.1813 -0.8737 -0.2981
 2580SOL     OW12586   8.714   6.030   3.017  0.6025  0.4918  0.1608
 2580SOL    HW112587   8.776   5.978   2.966  0.3016 -0.1028  0.3916
 2580SOL    HW212588   8.677   5.968   3.080 -0.5156  0.7499 -0.2387
 2581SOL     OW12589   1.676   5.043   2.344 -0.0106  0.2863  0.2634
 2581SOL    HW112590   1.659   5.009   2.432 -1.2434  1.3135  0.4335
 2581SOL    HW212591   1.599   5.018   2.293  1.3910 -1.6689 -0.9538
 2582SOL     OW12592   0.976   4.333   1.857 -0.2407  0.4308  0.0624
 2582SOL    HW112593   0.940   4.338   1.769  0.2290  0.2019 -0.1442
 2582SOL    HW212594   0.931   4.402   1.906 -2.7391 -1.3969  0.4506
 2583SOL     OW12595   1.767   3.898   3.580  0.3687 -0.0439  0.1286
 2583SOL    HW112596   1.757   3.993   3.585  0.7132  0.0320 -0.6333
 2583SOL    HW212597   1.708   3.865   3.648  1.7155  0.7904  1.7497
 2584SOL     OW12598   1.493   6.688   2.257  0.4300 -0.2724 -0.2391
 2584SOL    HW112599   1.489   6.613   2.315  0.1180 -0.2391 -0.2190
 2584SOL    HW212600   1.467   6.654   2.171  0.5630 -0.2489 -0.2895
 2585SOL     OW12601   9.073   4.585   2.691 -0.0190  0.2248 -0.1204
 2585SOL    HW112602   9.037   4.496   2.698 -2.6972  1.2146 -0.7597
 2585SOL    HW212603   9.124   4.596   2.771 -0.8593 -1.3627  0.6709
 2586SOL     OW12604   0.809   4.532   1.983  0.1894 -0.4596 -0.0049
 2586SOL    HW112605   0.778   4.450   2.022  0.1872 -0.3873  0.1443
 2586SOL    HW212606   0.729   4.582   1.967  0.0201 -1.3087 -1.9676
 2587SOL     OW12607   0.882   5.106   3.704 -0.0088 -0.4439  0.6854
 2587SOL    HW112608   0.897   5.013   3.683  0.4377 -0.0967 -0.5958
 2587SOL    HW212609   0.787   5.113   3.716 -0.1937 -0.8182 -0.4953
 2588SOL     OW12610   1.740   4.144   4.968 -0.4196  0.1098  0.5683
 2588SOL    HW112611   1.672   4.111   4.909  1.0137 -0.3280 -0.8644
 2588SOL    HW212612   1.694   4.206   5.024 -2.5631 -2.2004  1.4269
 2589SOL     OW12613   9.930   7.002   4.273  0.0704  0.2210  0.0598
 2589SOL    HW112614   9.950   6.912   4.301 -0.5838  0.4613  1.3886
 2589SOL    HW212615   9.911   7.048   4.355 -0.9737  1.2207 -0.7222
 2590SOL     OW12616   0.812   5.520   0.739 -0.5675 -0.3196  0.2836
 2590SOL    HW112617   0.848   5.446   0.690 -1.5269 -0.4584 -0.2255
 2590SOL    HW212618   0.776   5.577   0.671 -2.3192 -0.7398  0.8478
 2591SOL     OW12619   9.733   2.726   2.674  0.3785 -1.0088 -0.1354
 2591SOL    HW112620   9.827   2.728   2.657  0.2230  0.3343 -0.9206
 2591SOL    HW212621   9.724   2.754   2.765  0.7627 -1.5957  0.0867
 2592SOL     OW12622   9.356   2.800   2.359 -0.4867  0.0011 -0.1702
 2592SOL    HW112623   9.304   2.881   2.350 -2.4668 -1.3326 -1.0814
 2592SOL    HW212624   9.369   2.770   2.269  0.9064 -0.3090  0.1243
 2593SOL     OW12625   1.040   6.204   0.812  0.5753  0.0280  0.5673
 2593SOL    HW112626   1.008   6.294   0.822 -2.5594 -1.0477  0.5651
 2593SOL    HW212627   1.094   6.190   0.890  1.8736  2.1678  0.1237
 2594SOL     OW12628   0.965   3.464   3.734  0.1308  0.1141  0.2160
 2594SOL    HW112629   0.885   3.425   3.770  0.7926 -0.7291  0.7849
 2594SOL    HW212630   1.035   3.434   3.792  0.9802  0.1302 -0.7858
 2595SOL     OW12631   9.867   3.712   4.266 -0.1315 -0.6255 -0.3327
 2595SOL    HW112632   9.922   3.742   4.193  0.8248 -0.8525  0.2875
 2595SOL    HW212633   9.834   3.627   4.237 -2.7559  0.9165 -2.0448
 2596SOL     OW12634   1.509   4.958   3.029  0.8244 -0.6222  0.6696
 2596SOL    HW112635   1.514   4.973   3.123 -0.8813  1.2804  0.4729
 2596SOL    HW212636   1.446   4.887   3.020 -0.4946  0.5122  0.8564
 2597SOL     OW12637   0.439   4.682   4.714  0.3359 -0.7576 -0.3097
 2597SOL    HW112638   0.387   4.673   4.793  1.0093  0.2941  0.2789
 2597SOL    HW212639   0.501   4.609   4.718  2.9292  1.4474  2.1733
 2598SOL     OW12640   1.835   3.825   1.789  0.2852 -0.4510 -0.1912
 2598SOL    HW112641   1.753   3.871   1.768  0.3833 -0.5436 -0.7774
 2598SOL    HW212642   1.811   3.732   1.789  0.4407 -0.4921 -0.5958
 2599SOL     OW12643   9.619   5.080   2.462 -0.2215  0.4594  0.4535
 2599SOL    HW112644   9.565   5.113   2.390 -0.2860  0.5531  0.5442
 2599SOL    HW212645   9.665   5.158   2.495  1.3641  0.0711 -0.7961
 2600SOL     OW12646   9.798   6.209   3.357  0.2937  0.3325 -0.2060
 2600SOL    HW112647   9.874   6.170   3.312  0.8389  0.1974  0.8283
 2600SOL    HW212648   9.772   6.144   3.422 -0.7704  0.3423 -0.6129
 2601SOL     OW12649   2.752   3.703   1.813  0.3021  0.7643  0.1179
 2601SOL    HW112650   2.717   3.626   1.770  2.7090 -1.1431  1.4567
 2601SOL    HW212651   2.684   3.730   1.875 -0.9230  0.2783 -0.9979
 2602SOL     OW12652   0.956   6.824   5.243  0.0901  0.3293 -0.4872
 2602SOL    HW112653   0.911   6.891   5.192  0.2486  0.8660  0.0778
 2602SOL    HW212654   1.010   6.777   5.179  2.1968  2.5841 -0.3789
 2603SOL     OW12655   1.155   5.215   2.835  0.4599  0.1894  0.5079
 2603SOL    HW112656   1.185   5.266   2.760  2.1193 -1.0047  0.3407
 2603SOL    HW212657   1.074   5.259   2.863 -0.6584  0.1291 -2.4678
 2604SOL     OW12658   9.183   5.795   2.087 -0.0765 -0.2926  0.0771
 2604SOL    HW112659   9.132   5.770   2.010  1.5431  2.1211 -1.8300
 2604SOL    HW212660   9.259   5.737   2.086  0.7846  0.8396 -1.1036
 2605SOL     OW12661   2.282   4.684   3.605 -0.2446  0.1409 -0.2070
 2605SOL    HW112662   2.277   4.772   3.641 -1.3073 -0.0103  0.0378
 2605SOL    HW212663   2.366   4.681   3.559 -0.0321  1.1491  0.1147
 2606SOL     OW12664   9.940   5.495   3.656  0.1618  0.3727  0.4097
 2606SOL    HW112665   9.955   5.417   3.603  1.4165  1.0659 -0.2860
 2606SOL    HW212666  10.014   5.498   3.716  1.0426  1.9623 -0.7263
 2607SOL     OW12667   1.092   5.190   2.382  0.3103  0.4626 -0.2012
 2607SOL    HW112668   1.108   5.108   2.334  0.1001  0.7007 -0.6780
 2607SOL    HW212669   1.179   5.223   2.403  0.4638  1.3744 -2.1500
 2608SOL     OW12670   0.236   2.400   2.019  1.0516 -0.1793  0.1084
 2608SOL    HW112671   0.211   2.417   2.110  1.3101  0.3788  0.0768
 2608SOL    HW212672   0.331   2.383   2.023  1.2513  0.8395 -0.1851
 2609SOL     OW12673   2.311   5.970   0.656 -0.6126  0.2782  0.0407
 2609SOL    HW112674   2.231   5.921   0.674  0.3929 -1.0737  0.9798
 2609SOL    HW212675   2.288   6.061   0.672 -1.7024 -0.1926  1.2665
 2610SOL     OW12676   9.398   5.106   3.522  0.0889 -0.5860 -0.1702
 2610SOL    HW112677   9.405   5.202   3.521  0.1535 -0.5841  0.1184
 2610SOL    HW212678   9.304   5.089   3.529 -0.0246 -0.5666 -1.6666
 2611SOL     OW12679   1.963   3.706   1.202  0.2610  0.4270  0.2727
 2611SOL    HW112680   2.012   3.639   1.156 -0.4134 -0.4104  0.7519
 2611SOL    HW212681   1.986   3.788   1.158  0.8559 -0.1560 -0.5076
 2612SOL     OW12682   0.787   5.293   2.683 -0.0584  0.7298 -0.0906
 2612SOL    HW112683   0.765   5.264   2.771  1.1313 -1.3782 -0.4646
 2612SOL    HW212684   0.822   5.381   2.695 -0.2815  0.6191  1.4800
 2613SOL     OW12685   1.150   5.188   0.441 -0.3009  0.0712  0.1664
 2613SOL    HW112686   1.206   5.215   0.514 -1.5762 -0.3325  1.3217
 2613SOL    HW212687   1.187   5.105   0.412  0.2148  0.2333  0.3455
 2614SOL     OW12688   9.935   2.635   2.514  0.2814 -0.2829  0.7079
 2614SOL    HW112689   9.869   2.582   2.470  2.4506 -1.1837 -1.5885
 2614SOL    HW212690   9.981   2.574   2.572  1.0389 -0.3405  0.0557
 2615SOL     OW12691   0.412   5.221   2.731  0.3639 -0.4282  0.2944
 2615SOL    HW112692   0.473   5.199   2.660  0.5389  0.4792  0.1536
 2615SOL    HW212693   0.469   5.247   2.804  0.1572  0.2884  0.2060
 2616SOL     OW12694   0.611   3.819   2.360 -0.2690 -0.0164 -0.3325
 2616SOL    HW112695   0.551   3.756   2.400 -1.0013  0.0470 -1.3026
 2616SOL    HW212696   0.686   3.766   2.331  0.3295 -0.0454  1.1971
 2617SOL     OW12697   8.855   4.815   2.969 -0.1529  0.0895 -0.2447
 2617SOL    HW112698   8.822   4.888   3.022  1.4575  0.5743  0.1202
 2617SOL    HW212699   8.948   4.810   2.991  0.3101 -0.4006 -2.2262
 2618SOL     OW12700   2.141   5.415   1.306  0.2625  0.0680 -0.7840
 2618SOL    HW112701   2.183   5.408   1.392 -1.6107  2.0062  0.3356
 2618SOL    HW212702   2.077   5.344   1.305  1.3008 -0.8784 -1.1983
 2619SOL     OW12703   1.065   4.418   4.248 -0.0982  0.3113 -0.5643
 2619SOL    HW112704   1.019   4.452   4.171 -1.4823 -0.0974  0.0686
 2619SOL    HW212705   1.038   4.476   4.319  1.8903  1.2517 -0.5344
 2620SOL     OW12706   2.241   5.572   2.642  0.4507 -0.3564 -0.0654
 2620SOL    HW112707   2.263   5.499   2.584 -0.6714 -0.2233 -0.6737
 2620SOL    HW212708   2.315   5.578   2.702  0.8538 -1.5725 -0.4259
 2621SOL     OW12709   0.434   3.085   2.844  0.1506  0.1654  0.1105
 2621SOL    HW112710   0.523   3.116   2.829  0.3337  0.3401  1.5052
 2621SOL    HW212711   0.379   3.163   2.835  0.3666  0.4703  1.2756
 2622SOL     OW12712   9.430   3.924   3.125 -0.2025  0.4829 -0.3451
 2622SOL    HW112713   9.524   3.913   3.111 -0.0638 -0.2849  1.1214
 2622SOL    HW212714   9.390   3.847   3.085 -0.1900  0.6571 -0.6974
 2623SOL     OW12715   1.162   4.181   1.078  0.0958 -0.3098 -0.5589
 2623SOL    HW112716   1.205   4.256   1.036 -0.2081 -0.4156 -1.0674
 2623SOL    HW212717   1.231   4.115   1.085 -0.1018 -0.6686 -1.8479
 2624SOL     OW12718   2.367   4.011   1.600  0.7098 -0.0522 -0.0471
 2624SOL    HW112719   2.350   3.923   1.566 -0.7317 -0.5967  1.9548
 2624SOL    HW212720   2.295   4.064   1.566  2.1286  0.6075 -2.0780
 2625SOL     OW12721   1.117   4.062   2.727 -0.7846 -0.3059  0.9058
 2625SOL    HW112722   1.060   3.989   2.702 -0.2533 -0.3085 -0.3261
 2625SOL    HW212723   1.078   4.138   2.685 -1.3413  0.1313  2.1944
 2626SOL     OW12724   0.936   4.646   3.363  0.0855 -0.1000  0.1622
 2626SOL    HW112725   1.006   4.622   3.302  0.5903  0.7596  0.4067
 2626SOL    HW212726   0.862   4.668   3.307  0.2460 -0.2481 -0.1117
 2627SOL     OW12727   2.889   6.618   3.435 -0.6185 -0.4547 -0.0716
 2627SOL    HW112728   2.843   6.539   3.464 -0.8935 -0.8698 -1.6211
 2627SOL    HW212729   2.982   6.596   3.443 -0.6962 -1.1394 -1.0516
 2628SOL     OW12730   1.383   5.515   2.381  0.4950  0.0953  0.2204
 2628SOL    HW112731   1.370   5.587   2.319 -1.9939  0.1534  0.7847
 2628SOL    HW212732   1.380   5.557   2.467 -2.2141 -0.8012  0.6102
 2629SOL     OW12733   0.893   3.486   0.510 -0.3309  0.4158 -0.0798
 2629SOL    HW112734   0.870   3.400   0.545 -1.0733  0.5357 -0.2782
 2629SOL    HW212735   0.989   3.483   0.501  0.2144  1.1632  4.1156
 2630SOL     OW12736   0.628   6.309   3.198  0.1311  0.1444 -0.3517
 2630SOL    HW112737   0.578   6.346   3.270  0.5984 -2.4197  1.3322
 2630SOL    HW212738   0.564   6.294   3.129 -1.1799 -1.6922  1.2333
 2631SOL     OW12739   0.873   3.970   2.149 -0.2709 -0.1603  0.8971
 2631SOL    HW112740   0.874   3.874   2.154 -1.7645 -0.1256  1.9915
 2631SOL    HW212741   0.782   3.994   2.165 -0.1615  1.3855 -0.6599
 2632SOL     OW12742   1.395   3.366   0.837 -0.1997  0.4997 -0.5199
 2632SOL    HW112743   1.477   3.410   0.863  0.3245  0.3113 -1.8191
 2632SOL    HW212744   1.418   3.317   0.758 -0.9006 -1.7409  0.6132
 2633SOL     OW12745   1.807   5.748   1.052  0.1103 -0.1220  0.1914
 2633SOL    HW112746   1.812   5.835   1.090 -0.7895 -0.3445  0.8461
 2633SOL    HW212747   1.785   5.762   0.960  0.8201  0.3672  0.0946
 2634SOL     OW12748   0.480   5.496   0.936  0.0729  0.1143 -0.1780
 2634SOL    HW112749   0.548   5.555   0.966 -0.8112  0.8485  0.4109
 2634SOL    HW212750   0.401   5.550   0.932 -0.3297 -0.5564 -1.5185
 2635SOL     OW12751   1.161   5.521   1.925 -0.6954 -0.5355 -0.0776
 2635SOL    HW112752   1.138   5.569   2.005  2.3731 -0.7082  0.9393
 2635SOL    HW212753   1.192   5.436   1.956  0.8838 -0.4623 -1.4339
 2636SOL     OW12754   0.126   3.882   2.173  0.1047 -0.3094 -0.0350
 2636SOL    HW112755   0.169   3.963   2.202  0.8010 -0.5559 -0.3513
 2636SOL    HW212756   0.037   3.909   2.149 -0.4181 -0.0738  2.1192
 2637SOL     OW12757   8.558   4.314   9.551 -0.4384 -0.4649  0.0417
 2637SOL    HW112758   8.616   4.372   9.601  0.4698  0.1789 -1.7502
 2637SOL    HW212759   8.479   4.307   9.605  0.7480 -0.2529  1.8553
 2638SOL     OW12760   0.543   6.331   2.822 -0.1153 -0.2049  0.1035
 2638SOL    HW112761   0.471   6.287   2.777 -0.7230  0.6267  0.2542
 2638SOL    HW212762   0.504   6.368   2.901  0.8661 -1.3399  1.1524
 2639SOL     OW12763   9.284   4.507   4.731 -0.5757  0.3201 -0.4406
 2639SOL    HW112764   9.309   4.480   4.642  1.6834 -0.0244  0.2599
 2639SOL    HW212765   9.358   4.559   4.762 -0.8966 -0.3994  1.6122
 2640SOL     OW12766   1.837   5.298   1.436 -0.0425  0.4498  0.2236
 2640SOL    HW112767   1.750   5.286   1.398  0.1907  0.4364 -0.3115
 2640SOL    HW212768   1.821   5.330   1.525 -0.6051 -0.2825  0.3855
 2641SOL     OW12769   1.871   4.708   2.562 -0.3694  0.0214  0.2770
 2641SOL    HW112770   1.922   4.696   2.643 -0.5142 -2.0632  0.0973
 2641SOL    HW212771   1.785   4.673   2.583 -0.9146  1.0408 -0.2670
 2642SOL     OW12772   1.672   2.839   3.636  0.2702  0.2006 -0.0238
 2642SOL    HW112773   1.627   2.795   3.564 -1.7248  1.8845  0.1397
 2642SOL    HW212774   1.634   2.800   3.715  0.2173  0.5311  0.1152
 2643SOL     OW12775   0.572   2.453   2.902 -0.3665  0.5340  0.8082
 2643SOL    HW112776   0.639   2.384   2.910 -0.3480  0.4028 -0.2976
 2643SOL    HW212777   0.588   2.491   2.815 -2.0846  0.1053  0.2743
 2644SOL     OW12778   2.378   7.634   4.308 -0.9212 -0.1344  0.5811
 2644SOL    HW112779   2.337   7.659   4.225  1.0588 -0.7533 -0.6034
 2644SOL    HW212780   2.335   7.552   4.332 -0.6929 -0.5584 -0.4363
 2645SOL     OW12781   1.352   3.800   2.779  0.2091  0.5158  0.0814
 2645SOL    HW112782   1.357   3.859   2.855 -1.1375 -0.2070  0.7570
 2645SOL    HW212783   1.276   3.745   2.797 -0.0757  0.2731 -1.7585
 2646SOL     OW12784   0.518   6.004   3.209  0.1075  0.3394  0.0195
 2646SOL    HW112785   0.457   6.078   3.214 -0.7974 -0.3008 -1.1609
 2646SOL    HW212786   0.593   6.030   3.263  0.5624  2.8521 -1.7437
 2647SOL     OW12787   1.279   4.393   2.885 -0.0174  0.3380 -0.3244
 2647SOL    HW112788   1.208   4.412   2.947 -1.9181  0.1301 -2.3625
 2647SOL    HW212789   1.277   4.298   2.874 -1.7953  0.6104 -3.0056
 2648SOL     OW12790   9.376   4.360   2.822  0.1199 -0.0290  0.0181
 2648SOL    HW112791   9.336   4.369   2.736  1.3344 -0.7199 -0.6367
 2648SOL    HW212792   9.358   4.443   2.866 -0.2679  0.4380 -1.0123
 2649SOL     OW12793   0.604   5.330   2.037 -0.2286 -0.5430  0.6198
 2649SOL    HW112794   0.574   5.400   1.980 -1.5364 -1.5914  0.0135
 2649SOL    HW212795   0.527   5.275   2.052  0.7872 -1.8949  1.0405
 2650SOL     OW12796   1.530   6.660   3.007  0.2254  0.1477  0.0838
 2650SOL    HW112797   1.457   6.658   2.945  2.1535  0.7089 -2.3392
 2650SOL    HW212798   1.495   6.702   3.085 -1.3913  2.8809 -2.0026
 2651SOL     OW12799   0.688   3.355   1.786 -0.1678 -0.4007  0.5217
 2651SOL    HW112800   0.703   3.337   1.879  2.5891  0.2160  0.2310
 2651SOL    HW212801   0.631   3.283   1.756  0.1499 -1.4275  2.3242
 2652SOL     OW12802   1.929   5.151   3.530  0.0782  0.4921 -0.4772
 2652SOL    HW112803   1.885   5.190   3.454 -2.0682  0.5769  0.7691
 2652SOL    HW212804   1.968   5.225   3.576  1.5430  0.4236 -1.5446
 2653SOL     OW12805   9.809   4.606   3.273 -0.0798 -0.6392 -0.8269
 2653SOL    HW112806   9.892   4.609   3.321 -0.6587  0.0625  0.1523
 2653SOL    HW212807   9.761   4.533   3.313 -0.5652 -0.0526 -0.3538
 2654SOL     OW12808   9.671   4.681   3.590 -0.4954 -0.4120  0.3325
 2654SOL    HW112809   9.602   4.616   3.575 -1.1675  0.1812  0.8121
 2654SOL    HW212810   9.658   4.745   3.520 -0.4000 -0.3255  0.3948
 2655SOL     OW12811   1.698   2.464   4.536 -0.0949 -0.4168  0.1910
 2655SOL    HW112812   1.663   2.510   4.612 -0.4799 -2.1487  1.1051
 2655SOL    HW212813   1.625   2.408   4.507  0.4430 -0.6550 -0.7201
 2656SOL     OW12814   0.729   5.017   3.413  0.1281 -0.6081 -0.4902
 2656SOL    HW112815   0.709   4.975   3.329 -1.2997 -1.0852  0.0804
 2656SOL    HW212816   0.644   5.042   3.449  0.6883 -0.8751  1.0582
 2657SOL     OW12817   1.336   4.075   2.455 -0.2655  0.2043 -0.2300
 2657SOL    HW112818   1.256   4.088   2.403  0.2356  0.3691 -0.9671
 2657SOL    HW212819   1.328   3.987   2.489 -0.4920  0.0041 -0.7916
 2658SOL     OW12820   1.800   3.582   3.647 -0.2176  0.2697 -0.1353
 2658SOL    HW112821   1.740   3.508   3.639  1.0492 -0.7892  0.0435
 2658SOL    HW212822   1.752   3.656   3.611 -2.1782 -0.2732  1.3198
 2659SOL     OW12823   9.550   4.367   3.872 -0.1745 -0.0071 -0.2733
 2659SOL    HW112824   9.488   4.308   3.915  1.5829 -1.4010  0.3614
 2659SOL    HW212825   9.636   4.332   3.893  0.8710  2.1914 -0.7675
 2660SOL     OW12826   0.077   4.527   3.756  0.2423 -0.2490  0.2890
 2660SOL    HW112827   0.078   4.552   3.664 -1.2811  0.2658  0.4072
 2660SOL    HW212828   0.168   4.534   3.784  0.7521 -0.6155 -1.2253
 2661SOL     OW12829   9.564   4.656   3.872  0.8402  0.1799  0.0522
 2661SOL    HW112830   9.567   4.562   3.888  1.4665  0.0766 -0.6906
 2661SOL    HW212831   9.585   4.666   3.779  2.3125  1.1688  0.4865
 2662SOL     OW12832   1.729   5.681   2.341  0.4290  0.1832 -0.3163
 2662SOL    HW112833   1.722   5.632   2.259  1.6716  1.7603 -1.4211
 2662SOL    HW212834   1.675   5.759   2.327 -0.1906 -0.0447  0.7746
 2663SOL     OW12835   1.257   4.760   3.349  0.0051 -0.5134 -0.0808
 2663SOL    HW112836   1.292   4.679   3.387 -0.2988  0.4558  2.3122
 2663SOL    HW212837   1.197   4.729   3.281  1.5901 -2.2573 -0.7456
 2664SOL     OW12838   1.412   5.214   2.870 -0.0718 -0.3454 -0.6345
 2664SOL    HW112839   1.320   5.194   2.885 -0.7427  2.2694 -0.9857
 2664SOL    HW212840   1.459   5.134   2.894 -2.3055 -1.2186  0.9307
 2665SOL     OW12841   0.270   5.468   5.666  0.4351  0.5300  0.1772
 2665SOL    HW112842   0.209   5.400   5.638  0.4436  0.6264 -0.0740
 2665SOL    HW212843   0.317   5.493   5.587  2.4154 -1.1567  0.7781
 2666SOL     OW12844   3.035   1.613   1.141 -0.8349 -0.1353  0.9159
 2666SOL    HW112845   3.024   1.703   1.111 -1.2657 -0.2085  0.8544
 2666SOL    HW212846   2.994   1.611   1.227 -0.7518 -0.2540  0.9534
 2667SOL     OW12847   0.986   3.725   1.727 -0.1831  0.0759  0.0701
 2667SOL    HW112848   1.046   3.718   1.801 -1.0765  0.2597  0.8175
 2667SOL    HW212849   1.013   3.806   1.683 -0.4404  0.6251  0.9105
 2668SOL     OW12850   9.373   4.450   4.483  0.2756  0.1916  0.2031
 2668SOL    HW112851   9.298   4.426   4.429  1.0660  2.4296 -2.0072
 2668SOL    HW212852   9.449   4.414   4.435  0.8554  0.6933  0.7328
 2669SOL     OW12853   9.409   3.403   3.124 -0.0900 -0.7307  0.6974
 2669SOL    HW112854   9.406   3.312   3.152  1.3811 -0.4882  1.6377
 2669SOL    HW212855   9.501   3.420   3.105  0.0009  1.1879  2.6432
 2670SOL     OW12856   0.657   4.928   4.250  0.3755  0.2524 -0.3106
 2670SOL    HW112857   0.572   4.907   4.289  0.7595  0.0026  0.4112
 2670SOL    HW212858   0.638   4.944   4.158 -0.5669  0.9006 -0.0169
 2671SOL     OW12859   1.255   4.101   3.154 -0.0455  0.0391 -0.3924
 2671SOL    HW112860   1.292   4.048   3.225 -1.0470 -0.3803 -0.1746
 2671SOL    HW212861   1.238   4.038   3.084 -2.2911 -0.1266  0.2798
 2672SOL     OW12862   0.580   4.731   1.309  0.1020 -0.3148 -0.5225
 2672SOL    HW112863   0.498   4.769   1.338 -0.2526 -1.8312  0.5311
 2672SOL    HW212864   0.558   4.686   1.227 -0.1153 -0.7073 -0.2492
 2673SOL     OW12865   1.468   5.039   3.670 -0.3375 -0.1967 -0.4250
 2673SOL    HW112866   1.388   5.020   3.622 -0.4283 -2.1862  0.4578
 2673SOL    HW212867   1.511   4.954   3.680  0.7186  0.4974  1.1706
 2674SOL     OW12868   0.014   5.417   4.564  0.0734  0.0698  0.0150
 2674SOL    HW112869   0.004   5.323   4.582 -1.9354 -0.0641 -1.5133
 2674SOL    HW212870   0.075   5.421   4.491  0.3161 -0.0484  0.2129
 2675SOL     OW12871   9.736   6.253   2.468  0.5148  0.2969 -0.5023
 2675SOL    HW112872   9.784   6.170   2.470  2.0597  1.1859 -0.4797
 2675SOL    HW212873   9.801   6.318   2.441 -1.2735  1.1218 -2.9411
 2676SOL     OW12874   0.670   4.414   4.526 -0.2114 -0.0067  0.6805
 2676SOL    HW112875   0.603   4.471   4.490  1.7005  0.9366 -1.5380
 2676SOL    HW212876   0.711   4.465   4.596  0.1836  0.5871  0.0186
 2677SOL     OW12877   0.535   6.096   1.973  0.3648  0.4726 -0.1913
 2677SOL    HW112878   0.519   6.170   2.031 -0.5446 -0.5347  0.8594
 2677SOL    HW212879   0.630   6.084   1.974  0.4708  1.3493 -0.0183
 2678SOL     OW12880   2.976   7.117   4.076  0.3190 -0.0761 -0.1241
 2678SOL    HW112881   2.909   7.059   4.114  0.1514  0.7197  0.8032
 2678SOL    HW212882   2.927   7.190   4.040  0.5921 -0.1103 -0.5615
 2679SOL     OW12883   9.507   5.078   2.046 -0.9022 -0.3328 -0.1278
 2679SOL    HW112884   9.439   5.016   2.069 -0.0045 -0.7533  1.4389
 2679SOL    HW212885   9.467   5.164   2.060 -1.6197 -0.5658 -0.7481
 2680SOL     OW12886   9.036   4.548   3.766  1.0650 -0.2814  0.0067
 2680SOL    HW112887   9.068   4.631   3.733 -1.7566  1.3956  1.3271
 2680SOL    HW212888   9.010   4.565   3.857 -1.6093 -1.9794 -0.3619
 2681SOL     OW12889   1.304   3.849   3.681 -0.0953  0.3228  0.3667
 2681SOL    HW112890   1.208   3.854   3.691  0.0482  2.5847  0.8551
 2681SOL    HW212891   1.317   3.832   3.588 -1.0155 -2.1224  0.6533
 2682SOL     OW12892   2.162   4.182   2.000 -0.6121 -0.0997 -0.2314
 2682SOL    HW112893   2.235   4.129   2.032  0.6656  1.5721 -0.3134
 2682SOL    HW212894   2.090   4.120   1.989  0.5944 -1.6556  0.5029
 2683SOL     OW12895   2.161   6.579   2.323  0.3783  0.6451  0.2265
 2683SOL    HW112896   2.171   6.661   2.372  0.6700 -0.5533  2.2092
 2683SOL    HW212897   2.250   6.544   2.316 -0.1344 -1.1685  2.3651
 2684SOL     OW12898   9.986   6.835   2.806  0.4082  0.1595 -0.2112
 2684SOL    HW112899  10.041   6.872   2.737 -1.1068 -1.2670 -2.2314
 2684SOL    HW212900   9.902   6.817   2.763 -0.3015 -1.5315  1.7971
 2685SOL     OW12901   9.983   5.517   2.858 -0.3385  0.0666 -0.2667
 2685SOL    HW112902  10.053   5.543   2.919  0.2048  0.3643 -1.0109
 2685SOL    HW212903  10.026   5.457   2.797 -0.9546 -0.4559 -0.1870
 2686SOL     OW12904   9.901   6.495   2.762  0.4046 -0.2050 -0.2714
 2686SOL    HW112905   9.935   6.567   2.709  0.6357  0.5537  0.9075
 2686SOL    HW212906   9.865   6.537   2.840  1.7322 -1.4727  1.0413
 2687SOL     OW12907   1.910   3.467   2.192 -0.1746  0.3108  0.1409
 2687SOL    HW112908   1.962   3.472   2.112  0.5503 -0.7771  0.5307
 2687SOL    HW212909   1.974   3.471   2.263 -0.6534 -0.5537  0.6287
 2688SOL     OW12910   1.337   4.716   2.202  0.2419 -0.0651 -0.2510
 2688SOL    HW112911   1.244   4.729   2.221 -0.1005  0.0988 -1.9527
 2688SOL    HW212912   1.380   4.795   2.235 -0.5825  1.0699 -1.8381
 2689SOL     OW12913   0.580   4.480   3.341 -0.1657 -0.3376 -0.3845
 2689SOL    HW112914   0.514   4.441   3.283  0.2077 -1.6318  0.0262
 2689SOL    HW212915   0.662   4.471   3.293 -0.1566  0.4231 -0.5065
 2690SOL     OW12916   1.493   5.529   1.266 -0.2688 -0.4476 -0.4866
 2690SOL    HW112917   1.455   5.444   1.243  0.7935 -1.1617  0.3582
 2690SOL    HW212918   1.543   5.554   1.189 -1.4079 -0.1147 -1.1169
 2691SOL     OW12919   2.129   5.303   3.020 -0.1816  0.5970 -0.3646
 2691SOL    HW112920   2.213   5.279   2.981  0.7533  0.9766  1.3637
 2691SOL    HW212921   2.153   5.352   3.099 -2.0341  1.2822 -0.2230
 2692SOL     OW12922   2.846   2.224   2.769 -0.2787  0.5446  0.2962
 2692SOL    HW112923   2.841   2.129   2.779  0.0132  0.6675  1.6402
 2692SOL    HW212924   2.762   2.249   2.730 -0.3921 -0.2472  0.0314
 2693SOL     OW12925   0.900   3.218   4.237  0.0581 -0.2483  0.4589
 2693SOL    HW112926   0.848   3.297   4.255  0.1536 -0.6460  2.6497
 2693SOL    HW212927   0.946   3.201   4.319  1.6807 -1.3874 -0.6625
 2694SOL     OW12928   1.309   5.021   1.415 -0.7300 -0.3629 -0.0001
 2694SOL    HW112929   1.264   5.083   1.472 -1.1082  0.3359 -1.0362
 2694SOL    HW212930   1.303   5.060   1.328  0.7889 -0.8811 -0.3557
 2695SOL     OW12931   2.176   5.310   3.388  0.2388 -0.5976  0.1092
 2695SOL    HW112932   2.196   5.274   3.475 -0.8352  1.0073  1.0288
 2695SOL    HW212933   2.233   5.387   3.381 -1.1806  0.4804  0.2589
 2696SOL     OW12934   8.780   5.277   2.536 -0.2643 -0.2066 -0.7695
 2696SOL    HW112935   8.868   5.290   2.573 -1.4265 -1.4585  2.6090
 2696SOL    HW212936   8.772   5.182   2.527 -2.3362 -0.3259  1.8003
 2697SOL     OW12937   1.040   5.774   0.619  0.0718  0.1267  0.4607
 2697SOL    HW112938   1.082   5.707   0.674 -0.6150 -1.4015 -0.8257
 2697SOL    HW212939   1.111   5.834   0.597  0.8308 -0.4843  1.1974
 2698SOL     OW12940   1.055   3.661   2.760 -0.2082  0.0087 -0.9069
 2698SOL    HW112941   1.005   3.626   2.834 -0.8987  1.0147 -0.8888
 2698SOL    HW212942   1.013   3.745   2.739  0.1271 -0.1419 -2.2818
 2699SOL     OW12943   1.383   5.851   1.483  0.0571 -0.6400  0.2865
 2699SOL    HW112944   1.289   5.854   1.501  0.4487  0.1298  2.3835
 2699SOL    HW212945   1.416   5.783   1.542  0.8384 -0.7441 -0.2682
 2700SOL     OW12946   1.860   3.883   2.708 -0.0212 -0.4147 -0.6489
 2700SOL    HW112947   1.892   3.973   2.710  0.2116 -0.5211  1.2530
 2700SOL    HW212948   1.777   3.888   2.661  0.1240  0.7577 -0.7946
 2701SOL     OW12949   9.886   4.701   2.581 -0.1430 -0.1076  0.2129
 2701SOL    HW112950   9.851   4.687   2.669 -1.4331  1.1072 -0.0941
 2701SOL    HW212951   9.944   4.777   2.589 -0.4365  0.1445 -0.0213
 2702SOL     OW12952   8.198   4.633   3.636 -0.8395 -0.1323 -0.2678
 2702SOL    HW112953   8.256   4.707   3.648 -0.7845 -0.0081 -1.2720
 2702SOL    HW212954   8.129   4.665   3.578  0.8822 -1.7400 -3.3083
 2703SOL     OW12955   1.324   2.062   3.983 -0.3343 -0.4365 -0.2156
 2703SOL    HW112956   1.371   1.994   3.935  0.4529  1.0051 -1.5193
 2703SOL    HW212957   1.388   2.131   3.997 -1.2055  0.1748  0.8377
 2704SOL     OW12958   0.129   2.410   2.285 -0.1207 -0.5534  0.3788
 2704SOL    HW112959   0.123   2.468   2.361  1.2963 -0.1561  0.2110
 2704SOL    HW212960   0.165   2.329   2.320  0.0069 -0.5577  0.2387
 2705SOL     OW12961   9.976   2.893   3.355  0.1522 -0.2603 -0.6390
 2705SOL    HW112962  10.041   2.863   3.291 -0.7533 -2.8259 -0.4048
 2705SOL    HW212963   9.892   2.883   3.310 -0.3058  0.2634  0.0932
 2706SOL     OW12964   0.723   3.658   1.536  0.7048 -0.2261 -0.3523
 2706SOL    HW112965   0.731   3.652   1.441  0.2318  1.3546 -0.4891
 2706SOL    HW212966   0.629   3.656   1.553  0.7900 -0.5730  0.0877
 2707SOL     OW12967   1.164   3.669   3.921  0.1544  0.0074 -0.1532
 2707SOL    HW112968   1.149   3.693   3.830  2.5284  1.4954 -0.1972
 2707SOL    HW212969   1.153   3.751   3.970 -0.4757 -0.6520  0.8277
 2708SOL     OW12970   9.997   5.776   3.218  0.0617 -0.0960 -0.4319
 2708SOL    HW112971  10.058   5.845   3.190  0.4416  0.0689  0.7936
 2708SOL    HW212972   9.910   5.813   3.201  0.2271  1.3983  1.8181
 2709SOL     OW12973   8.966   4.915   3.432 -0.7927 -0.9975 -0.4267
 2709SOL    HW112974   9.016   4.975   3.486  0.5207 -2.0401 -0.4604
 2709SOL    HW212975   8.877   4.952   3.430 -0.4081  0.0132  0.9163
 2710SOL     OW12976   0.219   5.820   2.868 -0.5049 -0.2285  0.3898
 2710SOL    HW112977   0.206   5.884   2.799 -1.5331  0.0117  0.7990
 2710SOL    HW212978   0.238   5.738   2.822 -0.0156  0.1798 -0.1452
 2711SOL     OW12979   0.723   3.910   3.632  0.6009  0.4594 -0.1942
 2711SOL    HW112980   0.742   3.943   3.720  0.6492 -0.2945  0.0806
 2711SOL    HW212981   0.631   3.884   3.636  1.2354 -1.7837  0.3423
 2712SOL     OW12982   0.821   4.352   3.373 -0.0200 -0.1769  0.6987
 2712SOL    HW112983   0.825   4.380   3.281 -0.2984 -0.2569  0.6616
 2712SOL    HW212984   0.910   4.367   3.406 -0.3175  1.3634  0.8548
 2713SOL     OW12985   2.701   5.148   3.071 -0.1236  0.5676 -0.5445
 2713SOL    HW112986   2.727   5.069   3.025 -1.7352  0.4279 -1.2527
 2713SOL    HW212987   2.634   5.119   3.133 -0.1221  1.2353 -0.2271
 2714SOL     OW12988   0.762   5.022   2.962  0.2300 -0.7300 -0.2797
 2714SOL    HW112989   0.767   4.949   2.901 -2.1966 -2.0398  1.0223
 2714SOL    HW212990   0.736   4.983   3.045 -1.0671  1.6089  0.4700
 2715SOL     OW12991   1.443   5.564   1.569 -0.1838 -0.0311 -0.5097
 2715SOL    HW112992   1.465   5.513   1.492 -2.0093  0.1788 -1.1891
 2715SOL    HW212993   1.528   5.587   1.608  0.6768 -2.4512 -0.8992
 2716SOL     OW12994   0.981   4.592   1.119 -0.5182  0.4139  0.1426
 2716SOL    HW112995   0.983   4.544   1.037  0.3047 -1.5444  1.2552
 2716SOL    HW212996   1.055   4.653   1.113  0.6110 -0.9245  0.1009
 2717SOL     OW12997   0.683   3.902   1.637  0.1027 -0.5132 -0.1850
 2717SOL    HW112998   0.656   3.828   1.692  0.3773  0.1933  0.9173
 2717SOL    HW212999   0.731   3.861   1.565 -3.0704 -1.6998 -1.7068
 2718SOL     OW13000   1.862   4.410   3.146  0.5085  0.1309 -0.2318
 2718SOL    HW113001   1.875   4.366   3.062  0.2539 -0.7239  0.1744
 2718SOL    HW213002   1.786   4.466   3.131  0.5560  0.0980 -0.6157
 2719SOL     OW13003   0.067   4.293   1.545  0.0402 -0.4833  0.2577
 2719SOL    HW113004  -0.012   4.288   1.491  1.7189  1.3512 -2.4523
 2719SOL    HW213005   0.126   4.228   1.508  1.4696  1.2725 -0.5982
 2720SOL     OW13006   0.089   5.703   3.860 -0.5341  0.7665 -0.8018
 2720SOL    HW113007   0.175   5.701   3.902 -0.4479 -0.0712 -1.0148
 2720SOL    HW213008   0.107   5.682   3.768 -1.0044  0.2408 -0.7744
 2721SOL     OW13009   3.326   2.105   3.770  0.2710 -0.4581  0.2185
 2721SOL    HW113010   3.274   2.057   3.706 -0.7700 -0.2005  0.8572
 2721SOL    HW213011   3.278   2.187   3.784  0.7158 -0.3259  0.9951
 2722SOL     OW13012   9.897   4.142   2.357 -0.0175 -0.0880  0.0725
 2722SOL    HW113013   9.973   4.197   2.378 -0.5789  0.3633  0.9205
 2722SOL    HW213014   9.864   4.114   2.442 -1.8987  1.2066 -0.2050
 2723SOL     OW13015   1.951   4.150   2.667  0.0417 -0.0935  0.2850
 2723SOL    HW113016   2.041   4.122   2.655  0.3313  0.6578  0.7068
 2723SOL    HW213017   1.921   4.175   2.580  1.1561  2.3848  0.5717
 2724SOL     OW13018   1.889   5.691   2.806 -0.1789  0.2389  0.5139
 2724SOL    HW113019   1.901   5.738   2.724  0.7730 -2.2364 -0.8218
 2724SOL    HW213020   1.795   5.695   2.823 -0.3968  0.6624 -0.7695
 2725SOL     OW13021   1.075   3.765   4.305 -0.2369  0.2155  0.0704
 2725SOL    HW113022   0.986   3.767   4.270 -0.8509 -0.7144  1.5108
 2725SOL    HW213023   1.064   3.776   4.400  1.0685 -1.0420  0.4024
 2726SOL     OW13024   1.101   5.341   0.889  0.2197 -0.3157  0.3351
 2726SOL    HW113025   1.062   5.296   0.814 -0.5014  1.8213 -0.6007
 2726SOL    HW213026   1.033   5.340   0.956 -0.0775  0.0796  0.0385
 2727SOL     OW13027   1.041   4.424   2.622  0.1231  0.1388 -0.1912
 2727SOL    HW113028   1.001   4.343   2.591  0.9116 -0.5081  0.4651
 2727SOL    HW213029   1.123   4.430   2.574  0.2722  0.3217  0.0840
 2728SOL     OW13030   1.110   3.029   0.709  0.0616  0.0703  0.1318
 2728SOL    HW113031   1.191   2.978   0.704  0.3688  0.5978 -0.4415
 2728SOL    HW213032   1.046   2.971   0.750  1.9648  1.2106  5.0434
 2729SOL     OW13033   1.064   4.636   2.061 -0.2314  0.0920  0.2650
 2729SOL    HW113034   0.979   4.600   2.039 -0.9210  0.9052  1.5052
 2729SOL    HW213035   1.057   4.660   2.154  1.7349 -0.9384  0.7096
 2730SOL     OW13036   0.519   3.383   2.945  0.2626  0.0781 -0.2966
 2730SOL    HW113037   0.524   3.478   2.937  2.5713 -0.0203 -0.3190
 2730SOL    HW213038   0.592   3.360   3.002 -0.7028 -1.6295  0.2846
 2731SOL     OW13039   1.076   4.000   2.346 -0.5129  0.3855  0.5407
 2731SOL    HW113040   1.134   3.933   2.310 -1.3056 -0.2711  0.4844
 2731SOL    HW213041   0.993   3.987   2.300 -0.2215  2.4487 -0.6865
 2732SOL     OW13042   0.736   5.307   0.387  0.1779  0.2900  0.1256
 2732SOL    HW113043   0.657   5.340   0.429  0.7739 -0.7345  2.1041
 2732SOL    HW213044   0.807   5.359   0.425  0.6399 -0.0767 -0.2248
 2733SOL     OW13045   8.394   4.303   4.279 -0.2138 -0.0150 -0.0569
 2733SOL    HW113046   8.418   4.396   4.283  0.1788 -0.1375  0.5069
 2733SOL    HW213047   8.299   4.302   4.293 -0.2838  0.3366 -0.5115
 2734SOL     OW13048   0.931   2.696   5.563  0.1337  0.1240 -0.0732
 2734SOL    HW113049   0.896   2.607   5.577 -1.2625  0.2154 -2.7280
 2734SOL    HW213050   0.880   2.730   5.490  0.3401  3.3190  1.2107
 2735SOL     OW13051   0.993   3.296   5.187  0.4289  0.1860  0.0604
 2735SOL    HW113052   0.989   3.334   5.099 -0.1466 -0.7494 -0.3217
 2735SOL    HW213053   1.056   3.351   5.233 -1.7897  2.8349  0.1213
 2736SOL     OW13054   1.222   5.634   5.773 -0.3043 -0.1820 -0.4612
 2736SOL    HW113055   1.154   5.694   5.742  0.3578  0.9630  0.3190
 2736SOL    HW213056   1.229   5.651   5.866 -1.1169 -2.4858  0.0641
 2737SOL     OW13057   0.899   4.981   4.040  0.2225 -0.1620  0.2985
 2737SOL    HW113058   0.961   4.914   4.069  1.5366  0.9031  0.0588
 2737SOL    HW213059   0.927   5.060   4.087 -0.3490  0.5630 -0.5787
 2738SOL     OW13060   1.369   3.788   5.217  0.1574 -0.0690 -0.2628
 2738SOL    HW113061   1.421   3.728   5.164  0.3614  1.2454 -1.6086
 2738SOL    HW213062   1.318   3.732   5.275  1.1647 -1.4789 -0.7193
 2739SOL     OW13063   1.824   4.040   3.889  0.5472 -0.1111  0.0805
 2739SOL    HW113064   1.908   4.008   3.856  0.1014 -0.8170 -0.3888
 2739SOL    HW213065   1.786   4.089   3.816  0.7195  0.5263  0.4182
 2740SOL     OW13066   9.770   5.273   4.056 -0.0716 -0.1823  0.3392
 2740SOL    HW113067   9.783   5.295   4.148 -1.6958  0.0673  0.5246
 2740SOL    HW213068   9.676   5.284   4.042  0.5335  2.5115 -2.0485
 2741SOL     OW13069   9.353   4.243   4.937 -0.4210  0.1935  0.1788
 2741SOL    HW113070   9.350   4.268   4.845 -0.8931 -1.9287 -0.4132
 2741SOL    HW213071   9.445   4.253   4.962  0.2352 -1.8542 -1.3120
 2742SOL     OW13072   1.322   4.632   5.302  0.1780  0.4920  0.0080
 2742SOL    HW113073   1.302   4.575   5.376  0.9920  1.4534  0.9886
 2742SOL    HW213074   1.250   4.695   5.300 -0.4219 -0.1989 -0.7217
 2743SOL     OW13075   9.754   5.576   4.211  0.7341 -0.2308  0.2918
 2743SOL    HW113076   9.828   5.580   4.151 -1.2427 -0.7818 -2.3056
 2743SOL    HW213077   9.717   5.665   4.208  0.9214 -0.1281  1.0704
 2744SOL     OW13078   2.792   4.504   6.374  0.0355  0.3991 -0.0778
 2744SOL    HW113079   2.879   4.477   6.347 -0.4284 -0.9378 -0.2524
 2744SOL    HW213080   2.745   4.422   6.391 -1.7589  1.0490 -1.8007
 2745SOL     OW13081   9.106   2.894   6.392  0.2262  0.2680  0.1103
 2745SOL    HW113082   9.119   2.908   6.485  0.7458  2.0081 -0.2171
 2745SOL    HW213083   9.131   2.802   6.378 -0.2411 -0.1156  1.7353
 2746SOL     OW13084   1.166   3.786   4.614 -0.4792 -0.1240 -0.3891
 2746SOL    HW113085   1.077   3.751   4.617 -1.3566  2.0076 -0.6497
 2746SOL    HW213086   1.162   3.868   4.662  1.3578  0.0053 -0.3944
 2747SOL     OW13087   8.529   4.004   2.996 -0.1722  0.1566 -0.5570
 2747SOL    HW113088   8.440   4.030   3.021  0.0413  0.6509 -0.2920
 2747SOL    HW213089   8.583   4.030   3.071  0.2241  0.0577 -0.8063
 2748SOL     OW13090   1.086   5.880   6.098  0.4223 -0.3071  0.0621
 2748SOL    HW113091   1.009   5.885   6.155  1.1857  2.3047  0.9480
 2748SOL    HW213092   1.069   5.945   6.029  0.3101 -2.1754 -1.7189
 2749SOL     OW13093   9.670   4.141   4.064 -0.6487 -0.3312  0.0652
 2749SOL    HW113094   9.713   4.057   4.051 -0.8185 -0.8593  2.5873
 2749SOL    HW213095   9.740   4.201   4.088 -0.6979 -0.0631 -0.4578
 2750SOL     OW13096   1.498   4.703   4.576  0.0422 -0.5883  0.1633
 2750SOL    HW113097   1.525   4.623   4.530  1.8390 -0.3937  0.8450
 2750SOL    HW213098   1.534   4.693   4.664  0.3142  0.9937  0.2425
 2751SOL     OW13099   9.787   6.710   4.306  0.3323  0.1941 -0.8203
 2751SOL    HW113100   9.738   6.645   4.255 -0.1763  0.7116 -0.9992
 2751SOL    HW213101   9.791   6.673   4.395 -0.8790  0.4003 -0.6709
 2752SOL     OW13102   0.268   3.235   3.729  0.8693  0.3275 -0.2165
 2752SOL    HW113103   0.249   3.307   3.789 -1.6279 -0.3815 -0.1242
 2752SOL    HW213104   0.271   3.158   3.786  1.6510  0.0875 -0.5765
 2753SOL     OW13105   0.843   4.065   4.969  0.1461  0.2134 -0.1446
 2753SOL    HW113106   0.829   3.980   5.009 -0.1177  0.6139  0.6342
 2753SOL    HW213107   0.880   4.119   5.039  2.0901  0.2196 -1.1387
 2754SOL     OW13108   9.842   6.025   4.889 -0.5303 -0.4763  0.5059
 2754SOL    HW113109   9.903   6.032   4.963  0.0025  0.5192 -0.0258
 2754SOL    HW213110   9.834   6.114   4.855 -2.3584 -0.5826  0.6172
 2755SOL     OW13111   2.208   3.685   3.820  0.0110  0.2994  0.0099
 2755SOL    HW113112   2.195   3.592   3.841 -0.1756 -0.2743 -2.3758
 2755SOL    HW213113   2.300   3.691   3.795  0.2031  0.9163  0.8508
 2756SOL     OW13114   2.289   5.035   4.592  0.1660  0.3697  0.1794
 2756SOL    HW113115   2.341   5.098   4.542 -1.2913  0.5552 -1.1152
 2756SOL    HW213116   2.326   4.950   4.569 -0.5637  0.4451 -1.3271
 2757SOL     OW13117   9.298   4.705   3.944 -0.2206 -0.5532  0.1449
 2757SOL    HW113118   9.279   4.780   3.886  1.4683  0.8956  1.4169
 2757SOL    HW213119   9.382   4.672   3.914 -0.2333 -0.9869  0.5820
 2758SOL     OW13120   2.093   4.175   4.181  0.5204  0.2782  0.3392
 2758SOL    HW113121   2.087   4.111   4.253  1.5336 -1.8833 -1.4446
 2758SOL    HW213122   2.007   4.172   4.139  0.2309  0.8619  0.8828
 2759SOL     OW13123   0.679   3.036   3.943 -0.3364 -0.0918 -0.4059
 2759SOL    HW113124   0.626   2.958   3.927  0.8572 -0.9461 -0.2420
 2759SOL    HW213125   0.623   3.092   3.998 -1.3203 -0.6795 -0.7977
 2760SOL     OW13126   1.505   4.863   3.328  0.0929 -0.0127  0.3299
 2760SOL    HW113127   1.419   4.823   3.340 -0.9863  1.6822 -1.5175
 2760SOL    HW213128   1.541   4.822   3.250  1.4938 -1.5691  1.7630
 2761SOL     OW13129   9.920   3.529   3.508  0.5573  0.1030 -0.2506
 2761SOL    HW113130   9.915   3.563   3.419 -0.3699  0.1546 -0.1907
 2761SOL    HW213131   9.905   3.435   3.499 -1.6064  0.3933  0.0363
 2762SOL     OW13132   1.046   5.070   5.308 -0.0112  0.0585 -0.1515
 2762SOL    HW113133   0.958   5.075   5.272  0.0613  1.4069 -0.1683
 2762SOL    HW213134   1.059   4.977   5.327 -1.3302 -0.1833 -0.3863
 2763SOL     OW13135   1.207   5.144   4.321  0.5619  0.3094  0.2786
 2763SOL    HW113136   1.213   5.237   4.301  0.9965  0.4666  1.1266
 2763SOL    HW213137   1.248   5.101   4.245 -0.3380  0.7635 -0.4741
 2764SOL     OW13138   1.552   5.229   3.467 -0.1394 -0.0595 -0.5061
 2764SOL    HW113139   1.531   5.182   3.548  0.4942 -0.3788 -0.5280
 2764SOL    HW213140   1.481   5.206   3.407 -1.5351  1.5387  0.4965
 2765SOL     OW13141   1.912   4.332   3.859  0.4896  1.0090  0.4646
 2765SOL    HW113142   1.863   4.406   3.897 -2.7584  1.0922 -3.5497
 2765SOL    HW213143   1.867   4.254   3.892  0.0790  0.9845 -0.1501
 2766SOL     OW13144   0.917   7.101   4.012  0.2086  0.5687 -0.3875
 2766SOL    HW113145   0.994   7.142   3.974  0.9552  0.4240  0.9490
 2766SOL    HW213146   0.929   7.111   4.106  0.0257 -2.0690 -0.0688
 2767SOL     OW13147   1.059   4.668   6.597 -0.3375  0.4539 -0.2818
 2767SOL    HW113148   1.035   4.580   6.569  0.9758 -0.0754  0.2265
 2767SOL    HW213149   1.091   4.657   6.686  0.5075  1.3345 -0.4643
 2768SOL     OW13150   0.667   5.639   5.661 -0.3264  0.1874  0.0779
 2768SOL    HW113151   0.629   5.554   5.685  0.0208 -0.4801 -1.7115
 2768SOL    HW213152   0.732   5.619   5.595  0.0897  1.8120 -0.0284
 2769SOL     OW13153   0.409   3.293   2.578  0.0558 -0.1869  0.0565
 2769SOL    HW113154   0.330   3.313   2.628 -0.2035  0.3047 -0.5543
 2769SOL    HW213155   0.412   3.197   2.575 -1.0822 -0.2038 -0.8174
 2770SOL     OW13156   0.306   3.697   4.662 -0.2505 -0.1616 -0.5081
 2770SOL    HW113157   0.399   3.698   4.684  0.0059 -1.7165 -1.4313
 2770SOL    HW213158   0.261   3.698   4.747  0.6026  0.3627 -0.0541
 2771SOL     OW13159   0.945   5.572   4.981  0.0359  0.1082  0.2375
 2771SOL    HW113160   0.935   5.508   5.051 -2.1508 -1.8366 -1.8001
 2771SOL    HW213161   1.009   5.635   5.016 -0.0488 -1.4780  3.4560
 2772SOL     OW13162   1.771   3.683   3.085 -0.1263 -0.2411  0.4617
 2772SOL    HW113163   1.715   3.761   3.090 -0.9899 -0.8462  0.0915
 2772SOL    HW213164   1.860   3.719   3.079 -0.5608  0.7242 -0.2556
 2773SOL     OW13165   1.959   3.243   5.106  0.1583  0.1542  0.5699
 2773SOL    HW113166   1.947   3.201   5.192  0.2153  0.3553  0.6752
 2773SOL    HW213167   2.031   3.194   5.066 -1.4109 -1.4777 -0.3253
 2774SOL     OW13168   1.249   5.158   3.858  0.1250  0.4690 -0.3324
 2774SOL    HW113169   1.331   5.193   3.823  0.4018 -1.6287 -1.8295
 2774SOL    HW213170   1.185   5.175   3.790  0.0163 -0.8512 -0.5660
 2775SOL     OW13171   8.709   3.547   5.304  0.3705  0.0282 -0.4252
 2775SOL    HW113172   8.758   3.586   5.377 -0.3773 -1.3602  0.8472
 2775SOL    HW213173   8.767   3.478   5.270  0.0687 -0.3760 -0.1212
 2776SOL     OW13174   0.469   6.572   4.206 -0.5688 -0.6618  0.7445
 2776SOL    HW113175   0.404   6.581   4.275 -1.2037 -0.2709  0.1006
 2776SOL    HW213176   0.422   6.592   4.126  0.5534  0.4533  0.3482
 2777SOL     OW13177   2.411   5.139   5.277 -0.3466 -0.1667 -0.1387
 2777SOL    HW113178   2.456   5.064   5.316  1.7434 -0.5783 -3.1560
 2777SOL    HW213179   2.351   5.101   5.213 -1.7025  0.6092  0.6518
 2778SOL     OW13180   2.353   5.318   5.468 -0.5269 -0.0372  0.2140
 2778SOL    HW113181   2.361   5.405   5.430 -1.0909  0.6721  1.6617
 2778SOL    HW213182   2.370   5.258   5.396 -0.6830  1.2695 -0.9235
 2779SOL     OW13183   1.859   7.149   4.555  0.2286  0.8225  0.6885
 2779SOL    HW113184   1.865   7.054   4.559  0.6840  0.7796 -0.6155
 2779SOL    HW213185   1.784   7.166   4.498 -1.0198  1.2650  2.4399
 2780SOL     OW13186   0.330   4.097   4.951  0.1661 -0.3200  0.0657
 2780SOL    HW113187   0.249   4.074   4.905 -0.5305 -0.0131  1.1323
 2780SOL    HW213188   0.302   4.117   5.040  1.5738 -1.3759  0.7528
 2781SOL     OW13189   1.740   5.368   3.851 -0.4943 -0.2620 -0.0559
 2781SOL    HW113190   1.677   5.299   3.871 -0.8271 -0.3005 -1.2130
 2781SOL    HW213191   1.701   5.416   3.778  0.1340  0.6228  0.1812
 2782SOL     OW13192   9.189   5.773   5.240 -0.0247 -0.5066 -0.1938
 2782SOL    HW113193   9.133   5.805   5.311  0.0241  1.1005 -0.8573
 2782SOL    HW213194   9.201   5.849   5.183  3.5262 -0.5702  0.3626
 2783SOL     OW13195   1.777   6.503   2.909  0.5948 -0.3247  0.3307
 2783SOL    HW113196   1.715   6.569   2.941  0.9376  0.8719 -1.4287
 2783SOL    HW213197   1.722   6.435   2.872  0.2444 -0.9338  1.9412
 2784SOL     OW13198   9.057   3.766   6.332 -0.3644  0.1449 -0.2670
 2784SOL    HW113199   9.109   3.776   6.252  0.9324 -1.9608  0.2680
 2784SOL    HW213200   9.119   3.780   6.403 -1.3972  1.4792  0.3976
 2785SOL     OW13201   2.683   7.275   4.377  0.9298 -0.3176 -0.0211
 2785SOL    HW113202   2.612   7.315   4.427 -0.0149 -1.5834 -0.3138
 2785SOL    HW213203   2.740   7.236   4.444  0.4799 -0.6955  0.1438
 2786SOL     OW13204   0.960   5.838   4.227  0.4982  0.4017 -0.8425
 2786SOL    HW113205   0.903   5.761   4.239  0.5178  0.3755 -0.9175
 2786SOL    HW213206   0.900   5.908   4.202  0.5206  0.3274 -1.1097
 2787SOL     OW13207   0.617   2.050   4.259  0.6048  0.2549  0.2405
 2787SOL    HW113208   0.660   1.999   4.328  0.2586 -0.5229 -0.1024
 2787SOL    HW213209   0.528   2.014   4.255  0.2586  1.1082  0.2055
 2788SOL     OW13210   0.081   6.877   5.800  0.8646  0.3186 -0.6486
 2788SOL    HW113211   0.089   6.805   5.738 -0.5220 -1.5250  1.2505
 2788SOL    HW213212   0.024   6.941   5.757 -0.3026 -1.0571 -1.1765
 2789SOL     OW13213   9.932   5.711   4.611 -0.4022 -0.9226  0.1768
 2789SOL    HW113214   9.964   5.621   4.601 -0.5846 -0.8735 -0.8204
 2789SOL    HW213215   9.861   5.719   4.548 -0.2409 -0.0088  0.0995
 2790SOL     OW13216   9.776   4.708   4.250  0.5920  0.5715 -0.7826
 2790SOL    HW113217   9.820   4.646   4.308  0.8101  2.4198  1.0866
 2790SOL    HW213218   9.702   4.659   4.214  1.4563 -1.1231 -0.2843
 2791SOL     OW13219   1.078   3.811   5.314 -0.0661 -0.2099 -0.3143
 2791SOL    HW113220   0.994   3.857   5.310  0.0455  0.0529  0.2741
 2791SOL    HW213221   1.072   3.743   5.247 -0.7530 -0.1927 -0.2722
 2792SOL     OW13222   1.505   4.363   4.929  0.0930 -0.6118 -0.1382
 2792SOL    HW113223   1.436   4.313   4.885  1.5725 -1.0243 -2.0942
 2792SOL    HW213224   1.478   4.368   5.020 -1.9680 -1.6961 -0.6693
 2793SOL     OW13225   8.494   4.002   4.934 -0.0241 -0.0134  0.1638
 2793SOL    HW113226   8.480   4.096   4.922  1.2632  0.0294 -1.2358
 2793SOL    HW213227   8.516   3.992   5.027 -0.3246  1.0481  0.3527
 2794SOL     OW13228   0.765   5.457   3.777 -0.3185  0.0942  0.5177
 2794SOL    HW113229   0.832   5.523   3.793 -0.0145 -0.0927  0.0237
 2794SOL    HW213230   0.773   5.396   3.851 -0.5618  0.5682  0.9439
 2795SOL     OW13231   0.972   4.274   5.151  0.0936 -0.1097 -0.4995
 2795SOL    HW113232   1.003   4.347   5.097  0.7373 -1.1570 -1.5883
 2795SOL    HW213233   0.916   4.315   5.217  1.3274  1.4975 -0.4009
 2796SOL     OW13234   0.672   5.312   4.366  0.2369  0.2226 -0.4955
 2796SOL    HW113235   0.665   5.388   4.423 -1.2944 -0.5943  0.4318
 2796SOL    HW213236   0.592   5.262   4.382  0.1796 -0.4583 -2.7342
 2797SOL     OW13237   9.619   4.187   4.931 -0.0583  0.4243  0.1254
 2797SOL    HW113238   9.683   4.116   4.939  0.2481  0.5648 -1.0247
 2797SOL    HW213239   9.657   4.260   4.979  0.1108  0.1386  0.4272
 2798SOL     OW13240   0.486   3.804   3.272  0.2466 -0.5298 -0.0587
 2798SOL    HW113241   0.415   3.797   3.208 -1.0009 -0.1740  1.2756
 2798SOL    HW213242   0.442   3.820   3.355  2.0984  4.1838  0.1242
 2799SOL     OW13243   2.071   6.550   3.387 -0.3824  0.0934 -0.1813
 2799SOL    HW113244   2.163   6.544   3.411 -0.7571  0.9731  1.5455
 2799SOL    HW213245   2.024   6.510   3.460 -1.4401  0.6237 -0.5539
 2800SOL     OW13246   9.381   4.237   4.097 -0.0776  0.1663  0.2134
 2800SOL    HW113247   9.327   4.315   4.113  0.8047  0.6143  1.0947
 2800SOL    HW213248   9.449   4.242   4.164 -0.2510 -1.5903  0.5261
 2801SOL     OW13249   1.920   4.886   4.589 -0.0875 -0.8207 -0.0178
 2801SOL    HW113250   1.940   4.799   4.555 -0.3617 -1.6619  1.9146
 2801SOL    HW213251   1.837   4.876   4.634 -0.3046  0.5452 -0.0971
 2802SOL     OW13252   0.821   3.891   5.328 -0.3481 -0.0107  0.5011
 2802SOL    HW113253   0.732   3.926   5.317 -0.5365 -0.3298  0.9594
 2802SOL    HW213254   0.833   3.831   5.255 -0.2123  0.6322 -0.0068
 2803SOL     OW13255   1.289   4.319   3.668 -0.3441  0.0022 -0.2934
 2803SOL    HW113256   1.336   4.256   3.613 -0.4606  0.2305 -0.6600
 2803SOL    HW213257   1.252   4.267   3.739 -0.2128 -0.2998 -0.4464
 2804SOL     OW13258   9.457   3.881   4.598 -0.0051  0.5017  0.1179
 2804SOL    HW113259   9.389   3.820   4.569  0.1241 -0.4883  1.8473
 2804SOL    HW213260   9.510   3.897   4.520 -1.4332  0.2457 -0.9222
 2805SOL     OW13261   2.265   4.616   2.590  0.1372 -0.2948  0.0948
 2805SOL    HW113262   2.179   4.579   2.610  0.0599 -0.2121 -0.0883
 2805SOL    HW213263   2.307   4.627   2.676 -0.2727  0.2401  0.2322
 2806SOL     OW13264   0.863   2.965   3.165  0.1598 -0.0674 -0.3040
 2806SOL    HW113265   0.768   2.976   3.155 -0.1834 -0.4058  2.1408
 2806SOL    HW213266   0.878   2.872   3.154  0.2828  0.0717 -1.2840
 2807SOL     OW13267   1.511   3.105   3.608  0.5882 -0.1009 -0.2106
 2807SOL    HW113268   1.573   3.036   3.633 -0.8031 -1.5151 -0.6251
 2807SOL    HW213269   1.427   3.060   3.599  0.1081  1.2429 -2.7580
 2808SOL     OW13270   0.734   3.588   3.274 -0.2546 -0.4573 -0.4065
 2808SOL    HW113271   0.662   3.570   3.335  0.2486 -0.4357  0.1977
 2808SOL    HW213272   0.691   3.604   3.190 -0.9439 -0.6508 -0.0929
 2809SOL     OW13273   9.970   2.716   4.276 -0.2599  0.3669 -0.6449
 2809SOL    HW113274   9.907   2.645   4.261  1.1795 -1.1007  0.0971
 2809SOL    HW213275   9.921   2.780   4.327 -0.8501 -1.2795  0.9300
 2810SOL     OW13276   9.808   4.289   3.609  0.5730  0.2898 -0.2650
 2810SOL    HW113277   9.804   4.298   3.704 -0.4362 -3.0477  0.1020
 2810SOL    HW213278   9.895   4.251   3.592 -0.7186 -2.8592 -0.2046
 2811SOL     OW13279   0.390   4.356   4.825 -0.2408 -0.2194  0.2981
 2811SOL    HW113280   0.331   4.429   4.846 -0.3534 -0.0112 -0.7086
 2811SOL    HW213281   0.363   4.286   4.885  0.9448  1.0827  2.3889
 2812SOL     OW13282   1.597   5.239   4.219 -0.3818  0.0462  0.1054
 2812SOL    HW113283   1.606   5.164   4.160  2.7730  0.2394  0.2353
 2812SOL    HW213284   1.555   5.307   4.165 -1.7050 -1.2361 -0.5170
 2813SOL     OW13285   9.712   5.695   4.483  0.5030  0.3912 -0.8291
 2813SOL    HW113286   9.633   5.723   4.436  0.2466  1.2078  0.0788
 2813SOL    HW213287   9.700   5.601   4.497  0.0147  0.3809 -1.2924
 2814SOL     OW13288   1.707   4.909   2.685  0.0667  0.3121  0.3599
 2814SOL    HW113289   1.690   4.834   2.628 -0.9020  0.3600  0.5829
 2814SOL    HW213290   1.709   4.873   2.773  0.1166  0.4676  0.4234
 2815SOL     OW13291   9.088   3.998   4.514 -0.6105  0.1398  0.0655
 2815SOL    HW113292   9.008   3.982   4.464 -0.7493 -0.0984  0.3623
 2815SOL    HW213293   9.086   3.933   4.584 -0.9628  1.1833  1.0332
 2816SOL     OW13294   0.320   4.815   3.683  0.0581  0.1782 -0.8404
 2816SOL    HW113295   0.378   4.864   3.624  0.4889 -0.7680 -1.2165
 2816SOL    HW213296   0.333   4.723   3.659 -0.5638 -0.1447  0.0126
 2817SOL     OW13297   1.416   3.552   3.851  0.3720  0.2264  0.0855
 2817SOL    HW113298   1.399   3.460   3.832 -0.5362  0.4712 -0.3606
 2817SOL    HW213299   1.331   3.586   3.880  0.9514  0.6666  1.3075
 2818SOL     OW13300   9.949   6.787   6.066  0.1431  0.0035 -1.0572
 2818SOL    HW113301   9.959   6.822   5.977  1.8884  0.3769 -0.7256
 2818SOL    HW213302   9.999   6.705   6.065  2.9792  1.6391  0.4837
 2819SOL     OW13303   1.851   5.182   4.733  0.0944 -0.2455  0.1897
 2819SOL    HW113304   1.820   5.252   4.789  1.1046  1.8185 -1.7549
 2819SOL    HW213305   1.771   5.141   4.700 -0.5028 -1.2916  2.8178
 2820SOL     OW13306   0.905   4.015   4.365 -0.0610  0.7553  0.3788
 2820SOL    HW113307   0.891   3.951   4.295  1.8616  2.4332 -1.6057
 2820SOL    HW213308   0.831   4.002   4.425 -0.6023 -2.1400 -0.8487
 2821SOL     OW13309   1.210   5.516   3.596 -0.3989 -0.3736  0.1198
 2821SOL    HW113310   1.140   5.573   3.629  0.1685  0.1033  0.4934
 2821SOL    HW213311   1.171   5.429   3.595 -0.9973 -0.1124  0.3511
 2822SOL     OW13312   9.751   4.411   5.050 -0.9480  0.1432 -0.2872
 2822SOL    HW113313   9.684   4.424   5.116  1.0298  2.0667  1.4323
 2822SOL    HW213314   9.832   4.442   5.091  1.3313 -3.5029 -1.6801
 2823SOL     OW13315   0.114   4.751   4.760 -0.3549  0.2051 -0.0442
 2823SOL    HW113316   0.197   4.798   4.748 -0.4606  0.9452  1.9583
 2823SOL    HW213317   0.132   4.688   4.830 -0.7278 -1.5283 -1.4712
 2824SOL     OW13318   0.453   3.705   4.274 -0.0962  0.2475  0.2632
 2824SOL    HW113319   0.540   3.691   4.312 -0.6942  1.2682  2.0453
 2824SOL    HW213320   0.430   3.621   4.236  0.6158 -0.7510  1.9813
 2825SOL     OW13321   1.592   5.122   3.899 -0.1260 -0.3104 -0.1318
 2825SOL    HW113322   1.569   5.051   3.960 -0.6710 -0.8983 -1.0194
 2825SOL    HW213323   1.542   5.103   3.820 -1.7403  2.1152  0.2638
 2826SOL     OW13324   1.361   4.129   4.651  0.6962 -0.3109  0.0809
 2826SOL    HW113325   1.274   4.168   4.643  1.2134  1.1478  1.5042
 2826SOL    HW213326   1.354   4.046   4.603 -1.4213 -0.1374  0.0469
 2827SOL     OW13327   0.640   4.509   4.798  0.1382 -0.5026  0.3558
 2827SOL    HW113328   0.592   4.428   4.785  0.7402 -0.9859  1.1363
 2827SOL    HW213329   0.713   4.486   4.856  1.0416  0.3188 -0.4168
 2828SOL     OW13330   1.366   4.649   2.758 -0.0159 -0.0212  0.3195
 2828SOL    HW113331   1.373   4.699   2.839 -0.3517 -0.4411  0.6099
 2828SOL    HW213332   1.350   4.559   2.787 -0.4622 -0.1160 -0.2192
 2829SOL     OW13333   1.437   5.793   4.616 -0.7432 -0.3639 -0.0921
 2829SOL    HW113334   1.425   5.795   4.521 -0.6383 -1.2984 -0.1304
 2829SOL    HW213335   1.472   5.706   4.634  0.6370  0.3246  0.6383
 2830SOL     OW13336   0.358   4.271   5.357  0.2189 -0.0150  0.2752
 2830SOL    HW113337   0.303   4.204   5.396 -0.9439 -0.9143 -2.7592
 2830SOL    HW213338   0.316   4.354   5.380 -0.8881 -0.5642  0.2528
 2831SOL     OW13339   0.402   4.048   6.492  0.0731 -0.4445 -0.5618
 2831SOL    HW113340   0.381   4.138   6.470 -0.4030 -0.2987  0.4575
 2831SOL    HW213341   0.317   4.007   6.509  0.2211 -1.3061 -1.8528
 2832SOL     OW13342   0.934   6.237   6.209 -0.3685  0.0204  0.5236
 2832SOL    HW113343   1.000   6.177   6.243  0.0363  0.3903  0.3997
 2832SOL    HW213344   0.871   6.246   6.280 -0.6517 -0.8812  0.3871
 2833SOL     OW13345   1.049   4.932   5.734 -0.7895 -0.4522  0.4603
 2833SOL    HW113346   1.012   5.019   5.745  0.5686  0.2179 -0.1617
 2833SOL    HW213347   1.014   4.901   5.650 -0.0827  0.1346 -0.0665
 2834SOL     OW13348   0.720   2.952   3.538 -0.2230 -0.2570 -0.4450
 2834SOL    HW113349   0.711   2.884   3.471  0.0674 -0.8922  0.1500
 2834SOL    HW213350   0.725   2.903   3.621  3.3522  0.2470 -0.2555
 2835SOL     OW13351   0.717   4.882   5.689  0.4235 -0.1313 -0.0524
 2835SOL    HW113352   0.783   4.874   5.619  0.8959  0.8176  0.2846
 2835SOL    HW213353   0.644   4.827   5.659 -0.4917  2.3518 -2.5880
 2836SOL     OW13354   0.152   4.807   5.701 -0.0761 -0.4883 -0.2720
 2836SOL    HW113355   0.224   4.776   5.756  0.4519 -0.7654 -1.1213
 2836SOL    HW213356   0.192   4.826   5.617 -0.6226  1.2875 -0.1543
 2837SOL     OW13357   2.137   4.648   4.133  0.5237  0.1538  0.0385
 2837SOL    HW113358   2.095   4.727   4.168  3.1449  0.4677  2.6246
 2837SOL    HW213359   2.150   4.668   4.040 -0.3604  2.0791  0.2917
 2838SOL     OW13360   0.212   3.154   4.753 -0.1274  0.0719  0.0873
 2838SOL    HW113361   0.150   3.098   4.800  0.4295 -0.0201  0.7188
 2838SOL    HW213362   0.255   3.096   4.691 -0.3509  0.0373 -0.0337
 2839SOL     OW13363   0.098   3.852   3.495  0.4791 -0.2354  0.3546
 2839SOL    HW113364   0.025   3.824   3.550  1.1379  1.0602  1.9343
 2839SOL    HW213365   0.057   3.908   3.428  0.0152  0.6023  1.3124
 2840SOL     OW13366   0.809   4.468   5.062  0.2380 -0.2845 -0.0752
 2840SOL    HW113367   0.887   4.523   5.051 -0.3552  0.7264  0.6491
 2840SOL    HW213368   0.786   4.479   5.154 -1.2727  0.1241 -0.4921
 2841SOL     OW13369   9.951   5.162   4.625  0.1464 -0.2103  0.6996
 2841SOL    HW113370   9.944   5.074   4.588 -1.3297  0.1732  0.0073
 2841SOL    HW213371   9.950   5.149   4.719  0.1309 -0.9497  0.6017
 2842SOL     OW13372   1.685   5.329   5.216 -0.8555  0.2701 -0.2865
 2842SOL    HW113373   1.683   5.247   5.167 -0.1395 -0.2506  0.5374
 2842SOL    HW213374   1.626   5.314   5.290  1.1633 -0.4145  1.2383
 2843SOL     OW13375   0.061   3.881   5.097  0.0449 -0.0289 -0.7773
 2843SOL    HW113376   0.117   3.954   5.123 -1.2008  0.7283 -0.1877
 2843SOL    HW213377   0.099   3.804   5.140 -1.1069  0.9554  2.0656
 2844SOL     OW13378   1.224   4.744   3.754 -0.4782 -0.1330 -0.0891
 2844SOL    HW113379   1.130   4.730   3.765 -0.8453  1.8834 -0.3632
 2844SOL    HW213380   1.239   4.833   3.788  1.6306 -1.0730  1.5632
 2845SOL     OW13381   2.621   3.324   4.189 -0.5549 -0.4217  0.4356
 2845SOL    HW113382   2.547   3.263   4.191 -0.7383 -0.2317 -0.6927
 2845SOL    HW213383   2.611   3.376   4.268 -1.5751 -0.4569  0.3273
 2846SOL     OW13384   1.445   5.726   2.219  0.6410 -0.5518  0.3123
 2846SOL    HW113385   1.511   5.714   2.151  1.0571 -0.6169  0.7299
 2846SOL    HW213386   1.366   5.753   2.171  1.1075  0.0316 -0.1348
 2847SOL     OW13387   1.701   4.130   4.559 -0.1687 -0.2940 -0.2527
 2847SOL    HW113388   1.724   4.113   4.468 -0.6553  0.7922 -0.5972
 2847SOL    HW213389   1.624   4.075   4.575 -0.4168 -0.0772 -0.6748
 2848SOL     OW13390   0.540   2.804   3.883 -0.4625  0.4306 -0.5061
 2848SOL    HW113391   0.507   2.791   3.972  0.1189 -0.4535 -0.4055
 2848SOL    HW213392   0.496   2.736   3.831  0.2886  0.0060 -0.5996
 2849SOL     OW13393   1.537   3.044   4.763  0.8314  0.0287  0.2877
 2849SOL    HW113394   1.443   3.039   4.743  0.7185 -1.2541  1.1069
 2849SOL    HW213395   1.545   3.117   4.824  0.1898 -0.6591  1.2010
 2850SOL     OW13396   0.835   5.070   4.594 -0.6098 -0.0639 -0.4638
 2850SOL    HW113397   0.837   5.042   4.685 -1.4703  1.0374 -0.0978
 2850SOL    HW213398   0.743   5.059   4.568 -0.5714  0.5851 -0.8895
 2851SOL     OW13399   0.492   6.071   4.659  0.2811  0.4300 -0.1538
 2851SOL    HW113400   0.535   6.039   4.580  0.1845  0.8007 -0.3604
 2851SOL    HW213401   0.507   6.003   4.724 -1.2056 -0.7432 -1.0038
 2852SOL     OW13402   0.476   5.129   4.456 -0.2102 -0.1631 -0.4520
 2852SOL    HW113403   0.430   5.085   4.385 -2.8725 -0.4608  1.3949
 2852SOL    HW213404   0.478   5.065   4.527 -0.0490  1.1002  0.7067
 2853SOL     OW13405   9.630   6.339   5.138 -0.5222  0.5594  0.5349
 2853SOL    HW113406   9.585   6.316   5.056 -1.4964  0.6015  1.0532
 2853SOL    HW213407   9.565   6.389   5.187  0.6298  2.0296  0.6102
 2854SOL     OW13408   1.370   3.679   4.758 -0.3480  0.1508  0.5917
 2854SOL    HW113409   1.288   3.707   4.719  0.2137  1.3262  0.2482
 2854SOL    HW213410   1.344   3.629   4.836 -1.3787  0.5903  0.5255
 2855SOL     OW13411   9.340   4.882   5.288 -0.1668  0.2593 -0.0732
 2855SOL    HW113412   9.265   4.874   5.231  0.0799 -1.8906 -0.1431
 2855SOL    HW213413   9.415   4.887   5.229  0.1500 -2.6746  0.0034
 2856SOL     OW13414   0.092   4.529   4.582 -0.4332  0.0174 -0.7783
 2856SOL    HW113415   0.094   4.606   4.639 -0.4327  0.0418 -0.8105
 2856SOL    HW213416   0.047   4.462   4.633  2.5459 -1.0297  0.5767
 2857SOL     OW13417   1.030   4.508   6.190 -0.4261  0.8894  0.2373
 2857SOL    HW113418   1.061   4.580   6.135 -0.3823  1.5793  1.1484
 2857SOL    HW213419   1.099   4.442   6.185 -0.6277  0.7508 -0.8812
 2858SOL     OW13420   9.012   4.643   4.037  0.6739 -0.2693  0.1902
 2858SOL    HW113421   9.075   4.710   4.064  2.6544 -1.8116 -0.3739
 2858SOL    HW213422   8.962   4.624   4.116  0.9320  0.9972  0.6673
 2859SOL     OW13423   0.103   3.966   4.527 -0.5374  0.2483 -0.4307
 2859SOL    HW113424   0.111   3.991   4.619  1.2711  1.4762 -0.8949
 2859SOL    HW213425   0.192   3.975   4.492 -1.3847  0.7247 -2.5321
 2860SOL     OW13426   8.660   4.250   4.485  0.1697 -0.1884 -0.3785
 2860SOL    HW113427   8.578   4.201   4.493 -0.2568  0.6870  0.7328
 2860SOL    HW213428   8.639   4.337   4.518  1.0258  0.6374 -1.9642
 2861SOL     OW13429   1.621   4.275   5.183 -0.6057 -0.5202  0.2110
 2861SOL    HW113430   1.567   4.198   5.200 -0.7392 -0.2479  1.0267
 2861SOL    HW213431   1.651   4.303   5.270  2.9198 -2.1748 -0.3661
 2862SOL     OW13432   1.064   5.493   5.324 -0.6603 -0.2878  0.2784
 2862SOL    HW113433   1.070   5.582   5.290 -1.4276  0.1636  1.3091
 2862SOL    HW213434   1.148   5.478   5.366 -0.5214 -0.0617  0.0847
 2863SOL     OW13435   0.924   3.644   4.515  0.1035 -0.0956 -0.1105
 2863SOL    HW113436   0.846   3.635   4.460  0.1645 -0.4020 -0.1485
 2863SOL    HW213437   0.890   3.660   4.603  0.0038  0.2968 -0.2189
 2864SOL     OW13438   0.277   5.060   5.896  0.4975  0.4092  0.4559
 2864SOL    HW113439   0.256   5.099   5.811  0.6089  0.5521  0.4930
 2864SOL    HW213440   0.320   4.977   5.875 -0.3848 -0.0316  0.3824
 2865SOL     OW13441   0.567   4.987   6.085  0.9687  0.0273  0.1673
 2865SOL    HW113442   0.628   5.055   6.114  2.0209 -1.8124  2.4041
 2865SOL    HW213443   0.491   4.998   6.143  1.1938 -0.7938  0.6121
 2866SOL     OW13444   1.747   4.959   3.420  0.2363  0.4076  0.7845
 2866SOL    HW113445   1.653   4.941   3.419  0.3439 -0.1214 -1.2981
 2866SOL    HW213446   1.756   5.035   3.478 -1.6545  1.4950 -0.2889
 2867SOL     OW13447   1.540   6.387   5.187  0.3742 -0.6474 -0.1218
 2867SOL    HW113448   1.509   6.318   5.128 -3.8556 -0.5029  1.7410
 2867SOL    HW213449   1.555   6.342   5.270  0.7801  0.1246  0.2207
 2868SOL     OW13450   0.485   5.497   3.782  0.4502  0.3508  0.4443
 2868SOL    HW113451   0.579   5.496   3.763  0.4635 -0.5831  0.5320
 2868SOL    HW213452   0.447   5.435   3.719 -0.1572  1.0098  0.1591
 2869SOL     OW13453   1.022   4.821   4.526 -0.2867 -0.0327  0.5580
 2869SOL    HW113454   1.001   4.861   4.610  1.7739  0.2201  0.9549
 2869SOL    HW213455   1.117   4.826   4.519 -0.4219 -0.0606 -1.7803
 2870SOL     OW13456   9.978   3.972   1.832 -0.5256 -1.0664 -0.6429
 2870SOL    HW113457   9.969   4.061   1.797  0.6146 -1.0587 -0.9375
 2870SOL    HW213458   9.963   3.982   1.926  1.0302 -0.3170 -0.4602
 2871SOL     OW13459   0.441   4.769   3.346  0.2421  0.4533  0.5201
 2871SOL    HW113460   0.453   4.843   3.405  1.0774  0.4987  0.3079
 2871SOL    HW213461   0.501   4.702   3.380 -0.0483  0.1054  0.3456
 2872SOL     OW13462   0.942   6.215   5.455 -0.0577  0.2408  0.3854
 2872SOL    HW113463   0.889   6.289   5.486  0.1441  0.3536  0.4612
 2872SOL    HW213464   0.879   6.144   5.441 -0.1054  0.0690  1.4238
 2873SOL     OW13465   1.299   4.889   5.486  0.2169  0.5647  0.3673
 2873SOL    HW113466   1.211   4.864   5.457  0.2402  1.8848 -0.8545
 2873SOL    HW213467   1.357   4.830   5.439  0.3139  3.2500 -3.0224
 2874SOL     OW13468   1.830   5.155   5.940  0.4806  0.0413  0.0203
 2874SOL    HW113469   1.770   5.098   5.893 -0.0693  0.4958  0.1602
 2874SOL    HW213470   1.866   5.213   5.873 -0.0107  0.4358  0.0942
 2875SOL     OW13471   9.611   6.481   4.210  0.7365  1.1064 -0.2875
 2875SOL    HW113472   9.679   6.494   4.143  2.0045  0.5995  0.8624
 2875SOL    HW213473   9.611   6.387   4.226  2.8358  1.5455  2.8022
 2876SOL     OW13474   1.170   3.185   3.537 -0.2120 -0.0132  0.3066
 2876SOL    HW113475   1.095   3.136   3.503 -1.1819  0.8072  1.1772
 2876SOL    HW213476   1.231   3.118   3.567  0.1356 -0.7174 -1.9019
 2877SOL     OW13477   9.316   4.794   4.272 -0.0074  0.0050  0.1871
 2877SOL    HW113478   9.295   4.847   4.349 -1.1449 -1.9444  1.2609
 2877SOL    HW213479   9.264   4.832   4.202 -0.5080  0.5462  0.8493
 2878SOL     OW13480   9.812   5.258   4.317  0.5522  0.1885  0.2401
 2878SOL    HW113481   9.812   5.163   4.316  1.0974  0.1864 -1.6729
 2878SOL    HW213482   9.895   5.281   4.359  0.0474 -0.1774  1.4388
 2879SOL     OW13483   0.794   3.358   5.926  0.3891  0.2549  0.2726
 2879SOL    HW113484   0.835   3.428   5.874 -0.8378  1.4316  0.8725
 2879SOL    HW213485   0.832   3.367   6.013  2.4109 -1.6928 -0.3391
 2880SOL     OW13486   0.908   4.885   3.561  0.3430 -0.6741  0.1677
 2880SOL    HW113487   0.933   4.805   3.513  1.9533 -0.2064  0.1800
 2880SOL    HW213488   0.854   4.934   3.500 -0.0450 -1.4341 -0.1095
 2881SOL     OW13489   1.416   6.093   4.245  0.0671  0.2485  0.0003
 2881SOL    HW113490   1.400   6.096   4.339  1.1909  0.4210  0.1950
 2881SOL    HW213491   1.374   6.011   4.216 -1.4979  0.8927  0.3914
 2882SOL     OW13492   9.261   5.503   4.242  0.1655 -0.1998  0.0738
 2882SOL    HW113493   9.218   5.588   4.233  0.6204 -0.1483 -1.8817
 2882SOL    HW213494   9.192   5.440   4.225 -0.7263 -0.3201  3.8508
 2883SOL     OW13495   0.975   5.248   4.869 -0.3639 -0.2286  0.0866
 2883SOL    HW113496   0.975   5.250   4.965  1.1059 -0.4459  0.1019
 2883SOL    HW213497   0.975   5.340   4.843 -0.6828 -0.1693  0.2919
 2884SOL     OW13498   1.445   4.874   4.292 -0.1256  0.8199 -0.2322
 2884SOL    HW113499   1.403   4.848   4.374  0.6702  0.1957 -0.0159
 2884SOL    HW213500   1.379   4.927   4.247 -1.1100 -0.0836  0.1354
 2885SOL     OW13501   1.797   4.905   3.900  0.1051 -0.1656  0.2922
 2885SOL    HW113502   1.766   4.925   3.988  0.0156 -0.6681  0.3754
 2885SOL    HW213503   1.762   4.975   3.846 -0.0369  0.0134  0.6151
 2886SOL     OW13504   0.834   7.917   4.212 -0.0689  0.1631 -0.4259
 2886SOL    HW113505   0.818   7.930   4.119 -0.4796  1.5185 -0.1645
 2886SOL    HW213506   0.858   8.003   4.245 -2.1234  0.1575  1.1780
 2887SOL     OW13507   2.271   3.825   3.504 -0.2002  0.6577  0.2812
 2887SOL    HW113508   2.297   3.917   3.512 -0.9883  0.6898  2.9958
 2887SOL    HW213509   2.176   3.826   3.503 -0.2068 -0.0762 -0.6418
 2888SOL     OW13510   0.066   6.753   4.389 -0.6746  0.6902 -0.5405
 2888SOL    HW113511   0.057   6.756   4.484 -1.0659  0.4039 -0.5697
 2888SOL    HW213512   0.016   6.676   4.362  0.6671 -0.1037 -0.8330
 2889SOL     OW13513   9.814   3.978   4.970  0.1099 -0.2156 -0.6668
 2889SOL    HW113514   9.743   3.919   4.944 -0.8958 -0.1405  1.7287
 2889SOL    HW213515   9.851   3.937   5.048  0.8037  1.2347 -0.2197
 2890SOL     OW13516   9.839   3.426   6.166 -0.1529  0.0407  0.0014
 2890SOL    HW113517   9.794   3.470   6.238 -0.6354  1.1151 -0.9220
 2890SOL    HW213518   9.870   3.344   6.203 -1.7064 -0.1098  1.0282
 2891SOL     OW13519   0.297   3.821   2.918  0.4726  0.2125  0.4339
 2891SOL    HW113520   0.344   3.882   2.861  1.0784 -1.4598 -0.9154
 2891SOL    HW213521   0.261   3.876   2.988 -2.7486  2.8301 -3.0560
 2892SOL     OW13522   0.787   5.198   6.581 -0.2210  0.0731 -0.1443
 2892SOL    HW113523   0.775   5.290   6.558 -0.2735  0.3895  1.1449
 2892SOL    HW213524   0.855   5.198   6.648 -1.2181 -0.7043  0.8761
 2893SOL     OW13525   9.291   3.087   2.800 -0.3041 -0.6894 -0.0201
 2893SOL    HW113526   9.255   3.092   2.711  0.5396  0.7954 -0.2957
 2893SOL    HW213527   9.330   3.173   2.815  0.7966 -1.3978  1.2674
 2894SOL     OW13528   0.815   5.909   3.049 -0.5956  0.0587  0.4328
 2894SOL    HW113529   0.815   5.999   3.081  0.8565  0.2964 -0.1771
 2894SOL    HW213530   0.729   5.875   3.072 -2.0766  2.3576 -1.4914
 2895SOL     OW13531   1.219   5.553   4.715 -0.0157  0.1612  0.0259
 2895SOL    HW113532   1.191   5.461   4.714  1.0106 -0.1513 -1.5075
 2895SOL    HW213533   1.240   5.572   4.624  1.0009  1.5580  0.5465
 2896SOL     OW13534   0.856   5.466   5.803  0.1103 -0.1686  0.1830
 2896SOL    HW113535   0.912   5.465   5.725  0.2534  1.2163  0.2557
 2896SOL    HW213536   0.776   5.422   5.775  0.9721 -1.6090 -0.1010
 2897SOL     OW13537   1.017   6.808   5.502 -0.5441 -0.3317  0.5356
 2897SOL    HW113538   0.990   6.718   5.523 -1.7851  0.0105  0.4800
 2897SOL    HW213539   0.987   6.820   5.412  0.5930 -0.2199  0.1644
 2898SOL     OW13540   2.007   1.993   4.152  0.4678 -0.0368  0.2625
 2898SOL    HW113541   2.098   1.995   4.182  0.3790  1.2188  0.4591
 2898SOL    HW213542   1.998   2.071   4.097  0.3721 -1.7965 -2.3240
 2899SOL     OW13543   2.442   4.638   2.799  0.4573 -0.2944 -0.1359
 2899SOL    HW113544   2.524   4.594   2.778  0.5467 -0.3657  0.3583
 2899SOL    HW213545   2.397   4.577   2.858  0.4083  0.1110  0.2437
 2900SOL     OW13546   1.570   2.854   5.464  0.0925  0.0510  0.2521
 2900SOL    HW113547   1.495   2.796   5.448 -0.1939  0.6099 -0.4506
 2900SOL    HW213548   1.533   2.930   5.509  0.0509  0.7868 -0.9847
 2901SOL     OW13549   0.918   5.236   2.983 -0.0029  0.6468  0.3687
 2901SOL    HW113550   0.858   5.161   2.977  2.6815 -1.5579  0.0222
 2901SOL    HW213551   0.860   5.312   2.990 -2.8428 -1.3031 -0.7001
 2902SOL     OW13552   0.673   6.622   3.493  0.1665  0.3361 -0.2693
 2902SOL    HW113553   0.635   6.535   3.494  1.3220 -0.1909 -0.6742
 2902SOL    HW213554   0.667   6.650   3.401  1.8699 -0.2733 -0.5865
 2903SOL     OW13555   1.575   4.794   3.681  0.2931 -0.2625 -0.4442
 2903SOL    HW113556   1.656   4.752   3.711  0.5080  0.3707 -0.1306
 2903SOL    HW213557   1.538   4.732   3.618  0.3205 -1.1712  0.4195
 2904SOL     OW13558   1.211   4.884   2.004  0.0431  0.1270 -0.1874
 2904SOL    HW113559   1.195   4.926   2.088 -1.5424  1.5264 -1.1622
 2904SOL    HW213560   1.193   4.791   2.020  1.1794  0.1542  1.3631
 2905SOL     OW13561   0.235   6.443   5.169 -0.0306 -0.0204 -0.0495
 2905SOL    HW113562   0.192   6.415   5.250 -2.0472 -0.8640 -1.3773
 2905SOL    HW213563   0.269   6.362   5.131  0.7399  0.3507 -0.1700
 2906SOL     OW13564   0.833   3.752   6.092 -0.4968 -0.1712 -0.4989
 2906SOL    HW113565   0.758   3.768   6.149 -0.7918  1.1589 -1.2435
 2906SOL    HW213566   0.797   3.749   6.003  0.3343  0.5957 -0.8729
 2907SOL     OW13567   0.421   6.173   5.361  0.2466  0.4646 -0.2697
 2907SOL    HW113568   0.375   6.124   5.293 -1.8751  0.8419  0.8604
 2907SOL    HW213569   0.489   6.113   5.392 -0.1226 -0.4878 -1.2662
 2908SOL     OW13570   1.101   4.223   5.530  0.1506  0.0703  0.2883
 2908SOL    HW113571   1.127   4.177   5.450  0.4250  0.7364 -0.0051
 2908SOL    HW213572   1.118   4.160   5.600  1.0787 -0.0764 -0.0528
 2909SOL     OW13573   0.526   4.255   4.349  0.0430 -0.4698 -0.5930
 2909SOL    HW113574   0.587   4.193   4.310  0.7151 -0.8238  0.9674
 2909SOL    HW213575   0.572   4.288   4.427 -1.5685 -0.4273  0.3656
 2910SOL     OW13576   1.302   4.645   4.104  0.2821 -0.2141 -0.1983
 2910SOL    HW113577   1.314   4.558   4.066  1.1925 -0.3753  0.4272
 2910SOL    HW213578   1.311   4.631   4.199 -2.6055  0.0679  0.1746
 2911SOL     OW13579   1.049   6.649   4.997 -0.6653  0.7305 -0.1177
 2911SOL    HW113580   1.072   6.560   5.025 -2.0679  0.5627  0.5315
 2911SOL    HW213581   1.036   6.642   4.902  2.2160  0.8966 -0.5608
 2912SOL     OW13582   0.230   3.371   6.104 -0.2278 -0.0527  0.4405
 2912SOL    HW113583   0.160   3.424   6.067  0.1937  0.7849  0.8397
 2912SOL    HW213584   0.220   3.285   6.062 -0.1571  0.6854 -1.1078
 2913SOL     OW13585   0.884   4.749   3.826 -0.4494  0.1472  0.1520
 2913SOL    HW113586   0.923   4.781   3.745  0.5397 -1.4250 -0.0096
 2913SOL    HW213587   0.833   4.823   3.859  0.9853  1.5389 -0.7222
 2914SOL     OW13588   2.394   3.806   5.676  0.8555 -0.1728 -0.0306
 2914SOL    HW113589   2.311   3.792   5.631  0.7093 -0.6807  0.3901
 2914SOL    HW213590   2.386   3.755   5.757  0.8483  1.2423  0.8818
 2915SOL     OW13591   1.464   2.890   3.869  0.8394 -0.5667  0.0044
 2915SOL    HW113592   1.540   2.945   3.891  2.5933 -2.7231 -0.5150
 2915SOL    HW213593   1.472   2.814   3.926 -0.5934 -1.1112 -0.5081
 2916SOL     OW13594   1.703   6.837   2.883  0.3901  0.1614  0.3868
 2916SOL    HW113595   1.648   6.761   2.865 -0.7078  1.2861 -1.1653
 2916SOL    HW213596   1.643   6.901   2.921  0.6435  1.3458 -1.1765
 2917SOL     OW13597   0.943   5.320   5.133  0.8547  1.0315 -0.2862
 2917SOL    HW113598   0.862   5.341   5.179  0.3293 -0.3383 -0.5700
 2917SOL    HW213599   1.012   5.358   5.188  0.2948 -1.0780  1.9783
 2918SOL     OW13600   9.348   3.951   5.154  0.4054 -0.9458  0.1596
 2918SOL    HW113601   9.331   3.991   5.068  0.9009 -1.0249  0.0259
 2918SOL    HW213602   9.319   4.017   5.217 -0.0360 -0.9176 -0.0673
 2919SOL     OW13603   2.224   4.401   4.050 -0.1047  0.6285  0.5141
 2919SOL    HW113604   2.151   4.342   4.034  1.5978 -1.4139 -0.0527
 2919SOL    HW213605   2.188   4.471   4.103 -2.2690 -0.7781  0.9537
 2920SOL     OW13606   0.559   5.218   5.263 -0.3440 -0.3198 -0.3925
 2920SOL    HW113607   0.607   5.165   5.326  1.0495 -1.1660 -2.1411
 2920SOL    HW213608   0.500   5.157   5.220 -0.9157  0.1529 -0.2872
 2921SOL     OW13609   8.358   5.557   2.789  0.2336  0.4286 -0.6380
 2921SOL    HW113610   8.281   5.528   2.837  1.4058 -0.2779  0.8254
 2921SOL    HW213611   8.430   5.502   2.821  1.5167  1.6174 -1.3897
 2922SOL     OW13612   1.601   6.311   3.782  0.0534  0.1429 -0.2692
 2922SOL    HW113613   1.632   6.231   3.825 -0.2741  0.8343  1.2644
 2922SOL    HW213614   1.528   6.341   3.836 -1.2582  0.2848 -2.0813
 2923SOL     OW13615   0.303   3.830   7.129  0.1903 -0.5936  0.4406
 2923SOL    HW113616   0.293   3.744   7.087 -1.6279  0.3093 -1.0538
 2923SOL    HW213617   0.333   3.810   7.217  3.5903 -2.5995 -1.0529
 2924SOL     OW13618   0.954   3.220   6.977 -0.0701 -0.7781 -0.0596
 2924SOL    HW113619   0.957   3.251   6.886 -0.7068 -2.0865 -0.5321
 2924SOL    HW213620   0.884   3.271   7.018  1.0269  0.6731  0.0256
 2925SOL     OW13621   2.529   5.401   4.882  0.1999  0.1975 -0.4678
 2925SOL    HW113622   2.461   5.446   4.932  1.5795  3.6135 -1.5075
 2925SOL    HW213623   2.559   5.466   4.818  3.4206 -1.6835 -0.9912
 2926SOL     OW13624   9.516   3.747   6.313 -0.5763  0.2436  0.2779
 2926SOL    HW113625   9.544   3.730   6.403  0.0393 -2.4274 -0.3531
 2926SOL    HW213626   9.458   3.674   6.292 -0.9351  0.9798 -1.3872
 2927SOL     OW13627   8.095   3.086   8.898 -0.1002  0.1544 -0.0527
 2927SOL    HW113628   8.158   3.062   8.966 -0.5860 -1.4011 -0.1348
 2927SOL    HW213629   8.094   3.010   8.839 -2.2583  0.0435  0.1058
 2928SOL     OW13630   0.470   4.988   5.538  0.2941  0.2391  0.0234
 2928SOL    HW113631   0.531   5.032   5.597 -0.0673  1.3088 -0.3856
 2928SOL    HW213632   0.392   5.044   5.538 -0.4324 -0.7464  0.0018
 2929SOL     OW13633   0.563   4.560   8.025 -0.1684  0.0507 -0.1140
 2929SOL    HW113634   0.650   4.532   8.053  0.2443  0.9006 -0.5253
 2929SOL    HW213635   0.562   4.545   7.930 -0.1325  0.9151 -0.2540
 2930SOL     OW13636   9.671   4.599   6.242  0.5229 -0.0620  0.8081
 2930SOL    HW113637   9.726   4.544   6.297  0.8230 -0.9559 -0.3812
 2930SOL    HW213638   9.624   4.538   6.185 -0.2123  0.8190  0.4451
 2931SOL     OW13639   0.944   7.299   6.466 -0.2328  0.1866 -0.1918
 2931SOL    HW113640   0.909   7.281   6.553  0.8039 -1.1253 -0.0200
 2931SOL    HW213641   1.005   7.371   6.479  2.0178 -1.7933  0.7215
 2932SOL     OW13642   0.237   3.650   6.435 -0.3145 -0.2310 -0.3309
 2932SOL    HW113643   0.148   3.669   6.403  0.0040  0.6444 -0.7187
 2932SOL    HW213644   0.262   3.570   6.389  0.5118  1.5306 -3.0928
 2933SOL     OW13645   0.288   5.201   6.356 -0.5889 -0.0954 -0.3458
 2933SOL    HW113646   0.323   5.276   6.307  0.7326 -0.2027  0.4048
 2933SOL    HW213647   0.321   5.125   6.308  1.1091 -0.2075  0.9396
 2934SOL     OW13648   0.602   5.079   7.609 -0.1225 -0.5496 -0.0935
 2934SOL    HW113649   0.561   5.016   7.550 -1.1247 -0.9684  1.0160
 2934SOL    HW213650   0.537   5.093   7.678  1.2841 -0.6266  1.2896
 2935SOL     OW13651   1.731   5.463   5.960  1.0458 -0.1563 -0.1130
 2935SOL    HW113652   1.685   5.380   5.968 -1.1362  1.1376  1.0196
 2935SOL    HW213653   1.797   5.460   6.029 -0.2707 -0.1756  1.1686
 2936SOL     OW13654   9.763   5.416   6.962  0.3076  0.3077  0.2129
 2936SOL    HW113655   9.682   5.390   7.006  0.8262 -0.9637  0.4520
 2936SOL    HW213656   9.737   5.435   6.872 -0.6741  2.3981  0.9137
 2937SOL     OW13657   9.434   5.659   6.824 -0.1104 -0.5623  0.1379
 2937SOL    HW113658   9.363   5.646   6.887 -1.5350  0.7869 -1.1635
 2937SOL    HW213659   9.453   5.752   6.828  0.5668 -0.6669 -0.6272
 2938SOL     OW13660   1.942   5.365   5.753  0.4215  0.1021  0.3367
 2938SOL    HW113661   1.863   5.410   5.722  0.8121  1.1327  0.8211
 2938SOL    HW213662   2.014   5.406   5.704  0.7266 -0.3774  0.3784
 2939SOL     OW13663   1.699   4.205   6.895  0.1142  0.2597  0.6120
 2939SOL    HW113664   1.770   4.178   6.837 -0.3396 -0.8893  0.5745
 2939SOL    HW213665   1.630   4.140   6.881 -0.6223  0.8876  1.2538
 2940SOL     OW13666   1.096   5.314   6.549  0.0590  0.1165  0.0399
 2940SOL    HW113667   1.191   5.308   6.544  0.1666  0.9392  1.1191
 2940SOL    HW213668   1.072   5.261   6.625 -0.3567 -0.0928 -0.2289
 2941SOL     OW13669   8.793   5.129   6.329  0.3139 -0.0612 -0.4723
 2941SOL    HW113670   8.729   5.197   6.351 -0.8894 -2.3011  3.3653
 2941SOL    HW213671   8.851   5.126   6.405  1.7621 -1.7332 -1.6223
 2942SOL     OW13672   1.568   4.492   6.620  0.5756 -0.2150 -0.3205
 2942SOL    HW113673   1.544   4.484   6.712 -3.1383  1.4509 -1.0349
 2942SOL    HW213674   1.663   4.502   6.620  1.0133 -3.3361  3.0635
 2943SOL     OW13675   2.698   5.196   6.416 -0.0546  0.4145  0.1596
 2943SOL    HW113676   2.685   5.186   6.322  0.4196  1.3055 -0.0047
 2943SOL    HW213677   2.735   5.284   6.426 -0.3470  0.4241  1.1991
 2944SOL     OW13678   0.262   3.373   5.486  0.0308  0.1524 -0.0889
 2944SOL    HW113679   0.302   3.434   5.424  3.7803 -1.5298  0.5766
 2944SOL    HW213680   0.258   3.290   5.439  0.9053 -0.6222  1.2023
 2945SOL     OW13681   0.337   5.440   6.210 -0.1624 -0.6190 -0.5501
 2945SOL    HW113682   0.395   5.471   6.141  0.3104  2.0539  0.9517
 2945SOL    HW213683   0.266   5.396   6.165 -0.0989  1.4664 -2.7712
 2946SOL     OW13684   0.735   4.623   6.584  0.5095  0.2725 -0.4002
 2946SOL    HW113685   0.745   4.532   6.555 -1.3205 -0.4500  1.0899
 2946SOL    HW213686   0.757   4.621   6.677  0.0562  1.2605 -0.2719
 2947SOL     OW13687   9.191   4.555   6.584 -0.3893 -0.0305 -0.1519
 2947SOL    HW113688   9.217   4.463   6.589  0.3473  0.1891  0.0484
 2947SOL    HW213689   9.265   4.599   6.543 -0.0773  0.7401  1.2085
 2948SOL     OW13690   1.874   4.649   5.593 -0.2299 -0.1363  0.2269
 2948SOL    HW113691   1.796   4.706   5.588 -0.1128  0.1191  1.1728
 2948SOL    HW213692   1.944   4.707   5.622  0.3095 -0.3858 -0.5548
 2949SOL     OW13693   0.909   2.758   6.742  0.2690 -0.6836  1.0572
 2949SOL    HW113694   0.864   2.675   6.758 -1.7739  0.0592 -0.5458
 2949SOL    HW213695   0.953   2.745   6.658 -0.1628 -0.0918  0.7443
 2950SOL     OW13696   2.568   3.437   7.229  0.3840  0.7038  0.0525
 2950SOL    HW113697   2.610   3.478   7.153  1.2786  1.1653  0.7797
 2950SOL    HW213698   2.507   3.503   7.261 -2.5626 -0.7606 -2.2927
 2951SOL     OW13699   2.348   5.851   5.684  0.2711  0.6249  0.3192
 2951SOL    HW113700   2.403   5.834   5.761  1.3195  1.9019 -0.1383
 2951SOL    HW213701   2.305   5.934   5.703  1.5332  1.6093 -1.0186
 2952SOL     OW13702   1.793   4.374   6.278 -0.4662 -0.2941 -0.2295
 2952SOL    HW113703   1.715   4.337   6.237 -0.9926 -0.5534  1.0080
 2952SOL    HW213704   1.770   4.466   6.293 -0.0568 -0.0515 -1.0294
 2953SOL     OW13705   1.473   5.749   5.747  0.4598 -0.2926 -0.5315
 2953SOL    HW113706   1.384   5.782   5.756  0.8970  0.9001 -0.5510
 2953SOL    HW213707   1.462   5.663   5.705 -0.6075  0.3947 -1.7046
 2954SOL     OW13708   0.550   3.571   6.540 -0.5504  0.6658 -0.8625
 2954SOL    HW113709   0.516   3.490   6.577 -0.2565  1.6069  1.5709
 2954SOL    HW213710   0.475   3.629   6.536  0.0468  1.6546  1.4261
 2955SOL     OW13711   1.157   4.031   7.755 -0.0874  0.3168  0.3151
 2955SOL    HW113712   1.244   4.012   7.790  0.0685 -0.0655 -0.2726
 2955SOL    HW213713   1.164   4.012   7.662  0.2788  3.8912 -0.4743
 2956SOL     OW13714   0.007   4.132   7.002  0.3380  0.1377  0.4946
 2956SOL    HW113715  -0.016   4.086   7.083  0.2530  0.9608  0.9382
 2956SOL    HW213716   0.100   4.112   6.989  0.5759  0.7255  1.2695
 2957SOL     OW13717   1.516   4.149   7.142  0.7213  0.2307 -0.3332
 2957SOL    HW113718   1.439   4.194   7.107 -0.1882 -1.0071  0.0415
 2957SOL    HW213719   1.590   4.190   7.097 -0.1529  1.3731 -0.7659
 2958SOL     OW13720   0.982   3.996   6.072  0.0635  0.7647  0.0832
 2958SOL    HW113721   0.967   3.908   6.107  0.2894  0.9165  0.5700
 2958SOL    HW213722   0.909   4.011   6.012  1.1904 -0.6120 -1.6774
 2959SOL     OW13723   2.046   4.065   5.655  0.2877 -0.6359 -0.1775
 2959SOL    HW113724   2.003   3.980   5.648  2.3115 -1.5039 -2.9593
 2959SOL    HW213725   2.000   4.120   5.591  0.1165 -0.1213  0.3818
 2960SOL     OW13726   0.300   6.960   8.616 -0.0145 -0.4004  0.5854
 2960SOL    HW113727   0.230   7.000   8.564  0.0402 -0.6031  0.3524
 2960SOL    HW213728   0.255   6.898   8.673 -0.1347  0.2574  1.2008
 2961SOL     OW13729   0.968   4.293   5.919  0.3770  0.4548 -0.0412
 2961SOL    HW113730   0.921   4.222   5.875  0.7058  1.0178 -1.3372
 2961SOL    HW213731   1.060   4.268   5.914  0.3949  0.3920  0.5777
 2962SOL     OW13732   1.520   2.766   7.598  0.3378  0.2408 -0.4704
 2962SOL    HW113733   1.607   2.726   7.595  0.7789  0.8700  2.5291
 2962SOL    HW213734   1.511   2.811   7.514  3.2403  0.8729 -0.4773
 2963SOL     OW13735   2.963   5.925   7.560 -0.0935  0.0419 -0.4417
 2963SOL    HW113736   3.010   6.006   7.542  0.6010 -0.4979 -1.0425
 2963SOL    HW213737   2.901   5.916   7.488 -1.0194  0.6717  0.2665
 2964SOL     OW13738   1.263   2.193   8.136  0.1702 -0.0864  0.4507
 2964SOL    HW113739   1.247   2.281   8.102 -2.0633  0.8970  3.7715
 2964SOL    HW213740   1.328   2.205   8.204  2.0456 -1.4976 -1.0572
 2965SOL     OW13741   2.162   5.225   5.880 -0.3166 -0.2026 -0.1571
 2965SOL    HW113742   2.187   5.276   5.957 -1.7671 -1.7122  1.3623
 2965SOL    HW213743   2.082   5.267   5.849  0.3803  0.5309 -0.9849
 2966SOL     OW13744   9.942   4.865   4.541 -0.0782  0.5487  1.0203
 2966SOL    HW113745   9.862   4.835   4.584 -0.4504  2.6294  1.8486
 2966SOL    HW213746  10.006   4.869   4.612  0.1406  1.0631  0.7938
 2967SOL     OW13747   1.505   4.221   6.524  0.0860  0.5498 -0.0396
 2967SOL    HW113748   1.459   4.224   6.440 -0.1666  1.5535  0.1212
 2967SOL    HW213749   1.498   4.311   6.557 -2.8433 -0.5729  2.6672
 2968SOL     OW13750   1.755   4.150   6.466  0.6412 -0.5212 -0.3431
 2968SOL    HW113751   1.775   4.219   6.402 -1.3926 -2.0029 -2.6695
 2968SOL    HW213752   1.664   4.165   6.490  0.5957 -1.5591  0.1695
 2969SOL     OW13753   0.515   4.011   6.831  0.1537 -0.0665  0.0100
 2969SOL    HW113754   0.531   4.082   6.769  0.6080  0.6835  0.9812
 2969SOL    HW213755   0.428   4.028   6.866  0.3160  0.0844  0.3412
 2970SOL     OW13756   0.777   5.449   8.240 -0.1126  0.0452  0.0765
 2970SOL    HW113757   0.806   5.481   8.326 -0.4850  3.5362 -1.0022
 2970SOL    HW213758   0.681   5.450   8.246 -0.1372  0.2162 -0.3474
 2971SOL     OW13759   1.334   5.974   6.535 -0.5258  0.2905 -0.0273
 2971SOL    HW113760   1.250   6.021   6.533 -1.9903 -2.1068  2.3013
 2971SOL    HW213761   1.389   6.027   6.592 -1.2666  0.5945  0.4145
 2972SOL     OW13762   9.600   3.694   6.569  0.1197 -0.3787  0.2932
 2972SOL    HW113763   9.605   3.601   6.593 -0.1213 -0.3636  0.4040
 2972SOL    HW213764   9.553   3.735   6.642 -0.4592 -0.3009 -0.1174
 2973SOL     OW13765   1.582   7.321   5.798 -0.2531 -0.4782 -0.5471
 2973SOL    HW113766   1.491   7.294   5.786 -0.0355 -1.3251 -0.3438
 2973SOL    HW213767   1.621   7.252   5.852  0.0903  0.6905  0.7271
 2974SOL     OW13768   0.045   4.862   6.220  0.2855 -0.4770 -0.1729
 2974SOL    HW113769   0.008   4.784   6.178 -0.8657 -0.2570  0.4347
 2974SOL    HW213770   0.021   4.934   6.163 -0.8401 -0.2447  0.5745
 2975SOL     OW13771   1.530   2.976   6.581 -0.1240  0.1298 -0.4587
 2975SOL    HW113772   1.595   3.001   6.515  2.6620 -1.6662  1.5028
 2975SOL    HW213773   1.507   3.058   6.624  0.6394  0.8300 -1.3530
 2976SOL     OW13774   1.215   6.739   7.031 -0.1695  0.1624 -0.2554
 2976SOL    HW113775   1.298   6.719   6.988 -0.8865  0.0095 -1.5896
 2976SOL    HW213776   1.162   6.782   6.963 -2.0531 -1.9192 -0.1585
 2977SOL     OW13777   0.943   5.177   5.765 -0.3210 -0.2639  0.2563
 2977SOL    HW113778   0.960   5.267   5.795 -0.2563 -0.2532  0.1882
 2977SOL    HW213779   0.905   5.188   5.678  1.2887 -0.3545 -0.4767
 2978SOL     OW13780   1.529   3.589   5.846 -0.8356  0.8411 -0.4320
 2978SOL    HW113781   1.513   3.678   5.877  0.1279  0.5944  0.8199
 2978SOL    HW213782   1.458   3.538   5.883 -0.7386  0.8852 -0.1840
 2979SOL     OW13783   1.733   5.806   5.836  0.2370  0.0512 -0.1326
 2979SOL    HW113784   1.654   5.762   5.804  1.1696  0.2770 -2.8592
 2979SOL    HW213785   1.766   5.748   5.904 -1.4452 -0.8239 -0.0181
 2980SOL     OW13786   0.933   3.218   7.363 -0.2082  0.0181 -0.0768
 2980SOL    HW113787   0.897   3.146   7.415 -0.4481  1.2163  1.4635
 2980SOL    HW213788   0.864   3.285   7.363 -0.1550  0.1019 -1.8448
 2981SOL     OW13789   0.639   3.689   7.479  0.3648 -0.4653 -0.0898
 2981SOL    HW113790   0.547   3.668   7.468 -0.0565  2.1798 -2.3312
 2981SOL    HW213791   0.640   3.777   7.517  1.9369 -0.4864 -0.0234
 2982SOL     OW13792   9.888   4.419   7.562  0.6401 -0.0164 -0.5005
 2982SOL    HW113793   9.855   4.355   7.625  2.8308 -0.1451  0.5751
 2982SOL    HW213794   9.977   4.389   7.543 -0.4399 -0.8341 -4.8451
 2983SOL     OW13795   9.805   4.328   6.921 -0.0101  0.5811  0.0959
 2983SOL    HW113796   9.724   4.276   6.921  0.2439 -0.1343 -5.6894
 2983SOL    HW213797   9.868   4.273   6.967 -1.5455 -1.0806  0.2890
 2984SOL     OW13798   0.840   4.374   6.476 -0.3123  0.2197 -0.4212
 2984SOL    HW113799   0.815   4.387   6.384 -1.1401 -0.5944 -0.3108
 2984SOL    HW213800   0.935   4.362   6.472 -0.5548 -1.6060 -1.3843
 2985SOL     OW13801   9.938   3.587   5.516 -0.2970 -0.7666 -0.1971
 2985SOL    HW113802  10.001   3.643   5.562 -1.8766  2.0706 -1.3848
 2985SOL    HW213803   9.972   3.581   5.427 -0.1390 -1.7602 -0.0817
 2986SOL     OW13804   2.398   5.543   6.878 -0.4197  0.0423 -0.0850
 2986SOL    HW113805   2.362   5.523   6.791  0.7961  0.0531 -0.5990
 2986SOL    HW213806   2.398   5.639   6.882  1.3360  0.0874 -0.8562
 2987SOL     OW13807   8.422   2.760   4.260 -0.0522  0.2238  0.4722
 2987SOL    HW113808   8.466   2.675   4.260  0.4649  0.4878  0.0375
 2987SOL    HW213809   8.389   2.769   4.170 -2.8081 -0.8960  1.3345
 2988SOL     OW13810   0.469   3.489   6.152 -0.2571  0.0974 -0.0025
 2988SOL    HW113811   0.496   3.520   6.066  0.2988  1.1453  0.5211
 2988SOL    HW213812   0.385   3.447   6.138 -0.2616  0.4286 -1.0244
 2989SOL     OW13813   1.091   3.687   6.747  0.0330 -0.5970  0.2913
 2989SOL    HW113814   1.023   3.691   6.679  0.3046 -0.7300  0.0125
 2989SOL    HW213815   1.066   3.612   6.800  0.9727 -1.7586 -0.8887
 2990SOL     OW13816   0.790   4.659   6.248  0.6584 -0.1123 -0.1319
 2990SOL    HW113817   0.842   4.589   6.208  2.9887  0.8220  1.1474
 2990SOL    HW213818   0.835   4.678   6.330 -0.8381  1.8270  0.2740
 2991SOL     OW13819   0.273   4.543   6.706 -0.0419  0.3788 -0.6525
 2991SOL    HW113820   0.277   4.525   6.613 -0.2562  2.1472 -1.0346
 2991SOL    HW213821   0.190   4.506   6.735 -1.0302  1.8010 -1.6342
 2992SOL     OW13822   1.845   6.661   6.040 -0.3310 -0.3862  0.4161
 2992SOL    HW113823   1.920   6.603   6.030  1.2907  1.8127 -0.8417
 2992SOL    HW213824   1.853   6.722   5.966 -1.6759  1.7052  1.9345
 2993SOL     OW13825   1.352   4.950   6.943 -0.4194 -0.1717 -0.3312
 2993SOL    HW113826   1.307   4.897   6.877  0.0703  0.5409 -1.2412
 2993SOL    HW213827   1.367   4.889   7.015 -0.0088 -1.2404 -1.3013
 2994SOL     OW13828   0.736   3.411   7.307  0.1820 -0.6603 -0.3950
 2994SOL    HW113829   0.645   3.389   7.291 -1.1320  1.7542  3.1731
 2994SOL    HW213830   0.756   3.479   7.243 -1.5904  1.1900  0.9760
 2995SOL     OW13831   9.764   2.970   6.664 -0.7441 -0.2001 -0.0113
 2995SOL    HW113832   9.671   2.993   6.675 -0.6223  0.2902 -0.0146
 2995SOL    HW213833   9.781   2.907   6.733 -1.1775 -0.5658 -0.2324
 2996SOL     OW13834   0.483   1.290   8.248 -0.5573 -0.0629 -0.2655
 2996SOL    HW113835   0.389   1.293   8.264 -0.5550  0.6573 -0.3800
 2996SOL    HW213836   0.492   1.287   8.153 -0.4534  0.3940 -0.2713
 2997SOL     OW13837   2.651   4.721   7.303  0.2184 -0.5027 -0.0391
 2997SOL    HW113838   2.558   4.704   7.311  0.5237 -2.2195  0.1457
 2997SOL    HW213839   2.680   4.741   7.392 -0.2335  1.6235 -0.3340
 2998SOL     OW13840   1.847   5.095   5.625  0.0051  0.5306 -0.3877
 2998SOL    HW113841   1.831   5.158   5.556  2.5844  4.4033  2.3638
 2998SOL    HW213842   1.902   5.028   5.584 -1.5448  0.7646 -2.9648
 2999SOL     OW13843   0.069   4.168   4.146  0.5843 -0.5583 -0.2895
 2999SOL    HW113844   0.020   4.101   4.098 -0.6733 -0.0699  0.2677
 2999SOL    HW213845   0.152   4.127   4.167  0.8383 -1.0582 -2.1735
 3000SOL     OW13846   2.727   3.893   5.919  0.1397 -0.9643 -0.0582
 3000SOL    HW113847   2.785   3.963   5.891 -2.1269  0.7146 -0.6963
 3000SOL    HW213848   2.705   3.846   5.838  0.7506 -1.7214  0.2084
 3001SOL     OW13849   9.888   3.911   5.359 -0.3864 -0.6704 -0.4379
 3001SOL    HW113850   9.917   3.993   5.320 -1.6419 -0.3851 -0.8081
 3001SOL    HW213851   9.893   3.847   5.288  0.8933 -0.9986 -0.0677
 3002SOL     OW13852   0.838   3.939   7.306  0.1904 -0.0422  0.3075
 3002SOL    HW113853   0.909   3.876   7.321  0.2358 -0.2826 -0.8327
 3002SOL    HW213854   0.808   3.919   7.217 -1.0542  0.3073  0.6428
 3003SOL     OW13855   0.201   3.334   6.683  0.7078  0.3645 -0.2009
 3003SOL    HW113856   0.246   3.255   6.711  0.3743  1.0856  2.5150
 3003SOL    HW213857   0.110   3.307   6.668  1.0412 -0.1709 -1.2630
 3004SOL     OW13858   0.389   4.378   8.333  0.5867 -0.3006 -0.4862
 3004SOL    HW113859   0.353   4.290   8.344 -1.8154  0.7128  0.1667
 3004SOL    HW213860   0.400   4.411   8.422  0.7398  0.3385 -0.7386
 3005SOL     OW13861   1.023   2.863   7.345  0.1907 -0.0813 -0.0706
 3005SOL    HW113862   1.015   2.877   7.251  0.1857  0.0097 -0.0570
 3005SOL    HW213863   0.935   2.878   7.380 -0.1308 -1.5343 -0.2337
 3006SOL     OW13864   0.959   4.614   7.086  0.4967  0.2994  0.2629
 3006SOL    HW113865   1.024   4.602   7.017  0.2589  0.8046 -0.0469
 3006SOL    HW213866   0.928   4.704   7.075  2.2436  1.2278  2.5421
 3007SOL     OW13867   1.057   2.421   8.149 -0.4232 -0.0773  0.0460
 3007SOL    HW113868   1.016   2.362   8.212 -1.4050  2.4571  1.9118
 3007SOL    HW213869   1.002   2.500   8.151  0.7523  0.8615 -2.4321
 3008SOL     OW13870   9.850   4.410   7.935  0.2460 -0.5694 -0.1471
 3008SOL    HW113871   9.867   4.490   7.986  0.5386 -1.2641  0.8580
 3008SOL    HW213872   9.910   4.345   7.972  1.6606 -0.6545 -2.4923
 3009SOL     OW13873   0.504   4.221   7.376 -0.3167 -0.0372 -0.9399
 3009SOL    HW113874   0.433   4.178   7.423  2.1468 -0.6989  2.3507
 3009SOL    HW213875   0.467   4.304   7.347 -2.5802 -0.5975  0.2174
 3010SOL     OW13876   9.858   5.322   7.372 -0.7419  0.3392 -0.1415
 3010SOL    HW113877   9.791   5.275   7.323 -0.4157  0.1874 -0.4400
 3010SOL    HW213878   9.941   5.286   7.341 -0.3652  2.6289 -1.9928
 3011SOL     OW13879   0.446   4.306   5.813 -0.0361  0.1294 -0.1024
 3011SOL    HW113880   0.402   4.324   5.897  0.2724  0.9462 -0.1108
 3011SOL    HW213881   0.407   4.369   5.752 -0.5194 -0.7041 -0.6602
 3012SOL     OW13882   0.204   6.063   4.645 -0.2537  0.0630  0.0728
 3012SOL    HW113883   0.194   5.970   4.665 -2.1812  0.1525 -0.4168
 3012SOL    HW213884   0.298   6.080   4.659  0.3842 -2.2499 -1.1696
 3013SOL     OW13885   1.359   6.457   7.161  0.0069  0.2741  0.8676
 3013SOL    HW113886   1.340   6.472   7.069  0.0031  1.0595  0.9932
 3013SOL    HW213887   1.316   6.374   7.181  0.1111  0.0379  0.1353
 3014SOL     OW13888   0.746   5.951   6.456 -0.5232 -0.4550  0.1206
 3014SOL    HW113889   0.710   5.949   6.368  0.4593 -3.9962 -0.2914
 3014SOL    HW213890   0.839   5.974   6.444  0.1113 -2.9671 -0.0253
 3015SOL     OW13891   2.209   3.531   6.761  0.0910 -0.0926 -0.2918
 3015SOL    HW113892   2.212   3.565   6.672 -1.2277  0.3011 -0.1979
 3015SOL    HW213893   2.116   3.524   6.780  0.3699 -0.4651  0.9494
 3016SOL     OW13894   1.776   4.075   7.600  0.0240 -0.1243 -0.0791
 3016SOL    HW113895   1.864   4.045   7.619  0.7244  1.6374 -0.3900
 3016SOL    HW213896   1.758   4.141   7.667 -0.6606  0.2302 -0.5987
 3017SOL     OW13897   1.027   4.304   9.320  0.2253 -0.7624  0.3521
 3017SOL    HW113898   0.962   4.364   9.283  0.8031 -2.2345 -3.2233
 3017SOL    HW213899   0.975   4.234   9.361 -0.4324 -0.3830  0.1688
 3018SOL     OW13900   9.467   4.222   7.274 -0.3667 -0.4827 -0.7252
 3018SOL    HW113901   9.373   4.210   7.290 -0.3895 -2.1462 -1.9911
 3018SOL    HW213902   9.472   4.276   7.195 -0.2585 -0.4315 -0.6836
 3019SOL     OW13903   0.237   4.707   7.030  0.1238 -0.3061 -0.1625
 3019SOL    HW113904   0.275   4.736   7.113  0.7079  0.0721 -0.5567
 3019SOL    HW213905   0.280   4.624   7.012  0.4048 -0.1214 -0.3567
 3020SOL     OW13906   2.310   4.810   5.517  0.5557 -0.7735  0.5677
 3020SOL    HW113907   2.236   4.793   5.459  0.9124  0.5439 -0.2921
 3020SOL    HW213908   2.272   4.859   5.590  0.7089  0.7147 -0.3234
 3021SOL     OW13909   1.237   3.800   5.564  0.2035 -0.3510 -0.1745
 3021SOL    HW113910   1.210   3.710   5.581  0.1980 -0.5520 -1.2608
 3021SOL    HW213911   1.192   3.825   5.483  1.0065  0.2840 -0.4363
 3022SOL     OW13912   8.849   4.416   6.672  0.1069  0.3320 -0.1811
 3022SOL    HW113913   8.829   4.481   6.739  1.7482 -0.3340  0.9686
 3022SOL    HW213914   8.889   4.344   6.719 -0.2725 -0.8772 -1.6625
 3023SOL     OW13915   8.875   5.466   6.505  0.5874 -0.4444  0.5255
 3023SOL    HW113916   8.932   5.392   6.528  1.2083 -0.1181  0.0696
 3023SOL    HW213917   8.928   5.543   6.523  0.8421 -0.1652 -1.2803
 3024SOL     OW13918   2.071   4.749   5.843  0.0253  0.0123 -0.1251
 3024SOL    HW113919   2.128   4.672   5.830  0.4619  0.2231  0.4864
 3024SOL    HW213920   2.128   4.824   5.825 -0.5866  0.1795 -1.3865
 3025SOL     OW13921   0.985   2.638   4.492  0.0828  0.3155  0.2372
 3025SOL    HW113922   0.938   2.563   4.456  1.2733 -1.1389  1.6647
 3025SOL    HW213923   0.990   2.700   4.420 -1.8730 -0.5138 -0.6473
 3026SOL     OW13924   2.802   4.422   6.054  0.4140 -0.3466 -0.0001
 3026SOL    HW113925   2.760   4.359   6.113 -3.4101  0.3806 -1.7809
 3026SOL    HW213926   2.802   4.504   6.102 -1.0996 -0.1509 -0.3022
 3027SOL     OW13927   0.024   2.940   6.982 -0.6695 -0.1101  0.1556
 3027SOL    HW113928   0.049   2.880   6.912  0.7276  1.3020 -0.6017
 3027SOL    HW213929   0.107   2.978   7.011 -1.5835  1.9910  0.0873
 3028SOL     OW13930   9.353   5.106   8.245  0.2143  0.2267  0.1142
 3028SOL    HW113931   9.411   5.081   8.174  0.5309 -0.6679  0.6782
 3028SOL    HW213932   9.411   5.110   8.322  0.2357  2.9670 -0.0040
 3029SOL     OW13933   0.293   7.070   6.979  0.0554 -0.2306 -0.7672
 3029SOL    HW113934   0.203   7.039   6.987 -0.5129  1.4197 -0.5100
 3029SOL    HW213935   0.296   7.115   6.895 -0.2870  2.5519  0.6410
 3030SOL     OW13936   0.363   3.627   7.458  0.3874 -0.4269  0.0268
 3030SOL    HW113937   0.384   3.561   7.524  0.8142  0.1647  0.4886
 3030SOL    HW213938   0.363   3.579   7.376 -0.8473 -1.3140  0.5349
 3031SOL     OW13939   2.584   4.598   6.186  0.2189  0.0280  0.3182
 3031SOL    HW113940   2.625   4.584   6.271 -0.0753  0.2421  0.4993
 3031SOL    HW213941   2.635   4.668   6.146 -1.4377  2.0202  1.5693
 3032SOL     OW13942   2.095   6.075   7.906  0.0695  0.3812 -0.1592
 3032SOL    HW113943   2.187   6.054   7.925  0.0614 -0.0820 -0.6358
 3032SOL    HW213944   2.054   5.991   7.889 -0.7127  0.4813  1.1875
 3033SOL     OW13945   0.132   5.348   7.329 -0.0833 -0.2531 -0.1708
 3033SOL    HW113946   0.224   5.376   7.321  0.0253 -0.3115  0.8053
 3033SOL    HW213947   0.086   5.426   7.361 -0.4349 -0.1407 -0.9244
 3034SOL     OW13948   0.496   6.204   6.336 -0.1540 -0.4019  0.0767
 3034SOL    HW113949   0.438   6.267   6.378  0.4731 -0.6142  1.2956
 3034SOL    HW213950   0.438   6.146   6.286 -0.8236  0.4679 -0.1565
 3035SOL     OW13951   9.984   5.158   6.061 -0.2316 -0.2003  0.0751
 3035SOL    HW113952  10.006   5.106   5.984  0.4801 -0.3058  0.3474
 3035SOL    HW213953   9.894   5.186   6.046 -0.2086 -0.5018 -0.6357
 3036SOL     OW13954   2.216   5.565   8.237 -0.3206 -0.6069  0.5775
 3036SOL    HW113955   2.173   5.638   8.193 -1.2018 -1.2720  0.3189
 3036SOL    HW213956   2.145   5.513   8.275  0.2400 -1.6632  0.2280
 3037SOL     OW13957   9.730   3.525   8.949  0.7373 -0.5221  0.4526
 3037SOL    HW113958   9.757   3.480   9.028  0.8145  1.4379  1.5579
 3037SOL    HW213959   9.696   3.456   8.892 -0.2022 -1.8112  2.5641
 3038SOL     OW13960   9.946   4.580   5.706 -0.5589  0.2286 -0.2850
 3038SOL    HW113961   9.879   4.571   5.774  0.6541 -0.1900  0.8870
 3038SOL    HW213962  10.027   4.597   5.755  0.3313 -0.0654 -1.6335
 3039SOL     OW13963   1.465   5.090   6.016 -0.1196 -0.8286 -0.5089
 3039SOL    HW113964   1.529   5.057   5.952 -0.8014  1.1417 -2.2485
 3039SOL    HW213965   1.382   5.053   5.987 -0.2543 -0.8661 -0.0688
 3040SOL     OW13966   1.637   5.111   5.015 -0.1749 -0.4338  0.6055
 3040SOL    HW113967   1.692   5.043   5.052  1.2541 -0.7705 -2.0049
 3040SOL    HW213968   1.599   5.071   4.937 -2.9558  0.3014  1.5289
 3041SOL     OW13969   0.870   5.627   5.472 -0.5122 -0.0828 -0.8851
 3041SOL    HW113970   0.862   5.675   5.390 -0.6191  0.7332 -0.4040
 3041SOL    HW213971   0.930   5.555   5.453  1.7099  1.7510 -0.9336
 3042SOL     OW13972   8.312   4.058   7.508  0.0052  0.2030  0.1773
 3042SOL    HW113973   8.230   4.106   7.500 -0.3663 -0.6539 -1.2582
 3042SOL    HW213974   8.331   4.027   7.420  1.6435  0.0069  0.5779
 3043SOL     OW13975   9.509   4.371   7.880  0.1570 -1.1463 -0.0379
 3043SOL    HW113976   9.597   4.387   7.846 -0.3261  0.0320 -0.7563
 3043SOL    HW213977   9.520   4.368   7.975  0.7304  0.7514 -0.0187
 3044SOL     OW13978   1.086   6.172   8.362 -0.2386  0.3473  0.4075
 3044SOL    HW113979   1.087   6.266   8.375  1.1528  0.1254  2.0737
 3044SOL    HW213980   1.124   6.136   8.442 -2.0918 -1.7007  0.3998
 3045SOL     OW13981   0.552   4.324   6.471  0.6708  0.1886  0.0748
 3045SOL    HW113982   0.620   4.389   6.486 -0.7712  1.6273  0.4530
 3045SOL    HW213983   0.599   4.247   6.437  2.6230  0.7085  1.5544
 3046SOL     OW13984   0.699   5.482   6.513 -0.2236 -0.4682 -0.6585
 3046SOL    HW113985   0.629   5.536   6.477  0.7381  2.2965  1.4076
 3046SOL    HW213986   0.768   5.486   6.447  0.2610  1.8455 -0.0796
 3047SOL     OW13987   9.977   5.268   7.021  0.1507  0.0202 -0.1863
 3047SOL    HW113988  10.037   5.326   6.974 -0.9108  1.8267  0.6369
 3047SOL    HW213989   9.892   5.311   7.015 -0.7515 -1.7008  0.0374
 3048SOL     OW13990   1.396   3.755   6.663 -0.2546 -0.1920  0.5463
 3048SOL    HW113991   1.408   3.790   6.575 -0.1311 -0.0575  0.6165
 3048SOL    HW213992   1.301   3.743   6.672 -0.4780  1.8513  1.1769
 3049SOL     OW13993   0.417   5.733   5.748  0.0556 -0.4828  0.0680
 3049SOL    HW113994   0.507   5.715   5.722  0.1927 -0.4084  0.4882
 3049SOL    HW213995   0.369   5.652   5.729  0.4684 -0.9543  1.0556
 3050SOL     OW13996   0.110   3.783   5.633  0.0322 -0.3646  0.2827
 3050SOL    HW113997   0.189   3.756   5.587 -1.2243 -0.2954 -1.9592
 3050SOL    HW213998   0.142   3.844   5.700  1.9894 -1.1801  0.1221
 3051SOL     OW13999   1.059   4.002   6.466 -0.0306  0.1031  0.1777
 3051SOL    HW114000   1.109   4.080   6.441 -0.7548  0.7482  0.7098
 3051SOL    HW214001   1.078   3.990   6.559  0.9684 -1.0301 -0.1592
 3052SOL     OW14002   0.696   3.784   5.867 -0.0859  0.3963  0.7198
 3052SOL    HW114003   0.639   3.861   5.869 -0.6540  0.0278 -0.5477
 3052SOL    HW214004   0.638   3.709   5.878  0.2632  0.0713  0.4109
 3053SOL     OW14005   1.443   6.269   6.084  0.1556  0.2519 -0.2976
 3053SOL    HW114006   1.370   6.292   6.027 -0.5460 -2.0399 -0.3639
 3053SOL    HW214007   1.463   6.178   6.062  1.4133  0.0780  1.4578
 3054SOL     OW14008   1.693   5.752   7.082 -0.0718 -0.2685 -0.3443
 3054SOL    HW114009   1.633   5.701   7.137 -1.6838  1.3445 -0.5821
 3054SOL    HW214010   1.674   5.723   6.993  0.7862 -1.0600 -0.2802
 3055SOL     OW14011   1.637   4.594   6.358 -0.7074 -0.4424  0.5928
 3055SOL    HW114012   1.628   4.594   6.453 -0.5652 -0.2211  0.6081
 3055SOL    HW214013   1.558   4.637   6.326  0.2238  1.4213  0.7199
 3056SOL     OW14014   9.989   5.118   6.766  0.0384  0.1236 -0.0100
 3056SOL    HW114015   9.910   5.093   6.815  0.4861 -1.1960  0.0522
 3056SOL    HW214016  10.005   5.209   6.792 -0.3398 -0.2222  1.4802
 3057SOL     OW14017   1.069   4.865   8.014 -0.3485 -0.9126  0.1772
 3057SOL    HW114018   1.015   4.923   7.961 -1.1503 -2.7016 -0.9787
 3057SOL    HW214019   1.036   4.777   7.997  1.9690 -1.9042  0.5696
 3058SOL     OW14020   1.285   4.270   7.048 -0.0181  0.2274 -0.5245
 3058SOL    HW114021   1.263   4.338   7.112  0.2350  0.8340 -1.0729
 3058SOL    HW214022   1.219   4.202   7.061 -0.6459  0.8546 -0.3781
 3059SOL     OW14023   0.588   5.374   5.709 -0.2806  0.2429 -0.4470
 3059SOL    HW114024   0.576   5.295   5.762 -1.0485 -0.8098 -2.1501
 3059SOL    HW214025   0.512   5.376   5.651  1.2705  0.5259 -2.5344
 3060SOL     OW14026   0.003   4.837   8.367  0.4306  0.2644 -0.2362
 3060SOL    HW114027  -0.050   4.916   8.378 -2.1073 -1.5328  1.1162
 3060SOL    HW214028  -0.025   4.801   8.282  0.5951  0.1150 -0.2280
 3061SOL     OW14029   1.382   3.306   6.508  0.3815 -0.0300  0.2502
 3061SOL    HW114030   1.362   3.226   6.459  1.6899 -1.0502  1.3143
 3061SOL    HW214031   1.310   3.365   6.488 -0.0473 -1.0765 -1.4389
 3062SOL     OW14032   0.533   3.206   5.044 -0.3261  0.4706  0.0386
 3062SOL    HW114033   0.569   3.251   4.968 -0.3967 -0.6731 -0.6696
 3062SOL    HW214034   0.458   3.260   5.070  0.5383  1.6325  0.1694
 3063SOL     OW14035   0.848   3.865   6.765 -0.0379 -0.7989 -0.4985
 3063SOL    HW114036   0.823   3.946   6.809 -0.6318 -0.0786 -2.1294
 3063SOL    HW214037   0.879   3.808   6.835  0.6104  0.9198  0.6364
 3064SOL     OW14038   2.706   4.191   6.202  0.3064  0.2074 -0.1918
 3064SOL    HW114039   2.769   4.120   6.201  0.8998  0.7370 -1.1552
 3064SOL    HW214040   2.642   4.167   6.270  0.2584 -1.4388 -0.8183
 3065SOL     OW14041   9.693   3.959   6.144  0.0580 -0.0331  0.2868
 3065SOL    HW114042   9.719   4.043   6.180 -1.1137  0.4197  0.0908
 3065SOL    HW214043   9.639   3.918   6.212  0.8370 -0.7383  0.4881
 3066SOL     OW14044   0.868   5.786   5.240  0.1483 -0.3885  0.7351
 3066SOL    HW114045   0.808   5.760   5.169  0.0059  0.7567  0.4295
 3066SOL    HW214046   0.952   5.798   5.197  0.6825 -2.2788  1.2144
 3067SOL     OW14047   1.329   6.013   4.478  0.3329 -0.5526 -0.0324
 3067SOL    HW114048   1.307   5.949   4.546 -0.6525 -1.5648 -1.2911
 3067SOL    HW214049   1.246   6.058   4.460  1.1307  1.5598  1.2925
 3068SOL     OW14050   0.729   6.695   5.562 -0.0664 -0.3081  0.1291
 3068SOL    HW114051   0.765   6.698   5.650  0.7396 -0.2565 -0.1998
 3068SOL    HW214052   0.689   6.608   5.555  0.2775 -0.4847  0.3808
 3069SOL     OW14053   1.673   5.482   6.461  0.0235 -0.1938  0.1012
 3069SOL    HW114054   1.584   5.454   6.484  0.2956 -1.6349 -0.5463
 3069SOL    HW214055   1.707   5.522   6.541 -0.5286 -1.4194  0.9696
 3070SOL     OW14056   2.017   4.417   5.954  0.2334 -0.0700 -0.5023
 3070SOL    HW114057   2.091   4.379   5.907 -0.4160  0.3594 -1.8985
 3070SOL    HW214058   1.963   4.341   5.978 -0.6403 -0.1314 -2.5563
 3071SOL     OW14059   0.075   5.623   7.466 -0.2252  0.1395 -0.1329
 3071SOL    HW114060   0.168   5.642   7.472 -0.2126 -0.1104  0.5659
 3071SOL    HW214061   0.050   5.648   7.377  0.4957  0.2552 -0.3008
 3072SOL     OW14062   0.899   5.278   7.684  0.0967 -0.1140 -0.2755
 3072SOL    HW114063   0.946   5.208   7.730  0.1267 -0.1758 -0.3991
 3072SOL    HW214064   0.968   5.328   7.640 -0.0912 -1.2576 -1.9219
 3073SOL     OW14065   0.486   3.100   4.330  0.3920  0.5350 -0.0557
 3073SOL    HW114066   0.427   3.173   4.351  0.4142  0.5039  0.1181
 3073SOL    HW214067   0.438   3.022   4.358  1.9678  0.7336  3.4773
 3074SOL     OW14068   2.662   5.460   6.824  0.0038 -0.5020  0.0767
 3074SOL    HW114069   2.576   5.482   6.861 -0.2507 -1.8812  0.3280
 3074SOL    HW214070   2.672   5.522   6.751 -1.7432 -1.0688 -0.6994
 3075SOL     OW14071   0.003   4.741   6.673  0.2040  0.0412 -0.1020
 3075SOL    HW114072   0.075   4.793   6.709  1.4824  0.0945 -2.5986
 3075SOL    HW214073  -0.075   4.773   6.717  1.3894  1.8611  0.7187
 3076SOL     OW14074   9.380   4.045   7.664  0.7763  0.1624 -0.1348
 3076SOL    HW114075   9.351   4.012   7.749  0.9786  0.6163  0.1138
 3076SOL    HW214076   9.358   4.138   7.665  2.3056  0.5480  0.1052
 3077SOL     OW14077   1.457   3.209   7.199  0.4646 -0.1606 -0.6916
 3077SOL    HW114078   1.388   3.184   7.137 -1.5188  1.9210  0.6141
 3077SOL    HW214079   1.437   3.159   7.278  1.3097 -0.6221 -0.7609
 3078SOL     OW14080   9.319   3.784   5.454 -0.5271  0.7911  0.4107
 3078SOL    HW114081   9.414   3.791   5.467 -0.4840 -0.2232  0.7329
 3078SOL    HW214082   9.282   3.858   5.501  0.1402  1.5005 -0.1700
 3079SOL     OW14083   0.987   3.340   7.648  0.3937 -0.6692  0.5052
 3079SOL    HW114084   0.906   3.294   7.670  0.1168 -0.2137  0.4414
 3079SOL    HW214085   0.961   3.431   7.635  1.0186 -0.3914  1.1190
 3080SOL     OW14086   9.027   3.242   5.668 -0.5370 -0.1074  0.3568
 3080SOL    HW114087   9.072   3.277   5.592  1.6000  1.7712  2.4066
 3080SOL    HW214088   9.004   3.153   5.643  1.0176  0.1302 -2.1060
 3081SOL     OW14089   0.216   5.390   6.946 -0.5846 -0.1509 -0.0369
 3081SOL    HW114090   0.263   5.413   7.026  0.3739  1.4384 -1.0395
 3081SOL    HW214091   0.284   5.379   6.880 -1.3746 -1.3979 -0.6682
 3082SOL     OW14092   3.244   6.688   7.818  0.2285 -0.4247 -0.7542
 3082SOL    HW114093   3.289   6.740   7.751 -0.8420  2.1825  0.4695
 3082SOL    HW214094   3.167   6.653   7.773  0.0446  0.4804 -1.1559
 3083SOL     OW14095   0.745   5.197   6.193 -0.1379 -0.2152 -0.5620
 3083SOL    HW114096   0.818   5.165   6.140  0.9181  2.1651 -0.6312
 3083SOL    HW214097   0.723   5.282   6.155 -0.6238  0.6753  1.6238
 3084SOL     OW14098   0.828   4.978   7.520  0.5233  0.3646  0.4446
 3084SOL    HW114099   0.758   5.039   7.544  0.3227  0.2055  0.2690
 3084SOL    HW214100   0.909   5.028   7.532  0.3854  0.5129  0.7592
 3085SOL     OW14101   0.511   5.418   8.190  0.5588  0.0897 -0.5154
 3085SOL    HW114102   0.423   5.454   8.186  1.1251  1.9499  1.8991
 3085SOL    HW214103   0.511   5.345   8.128 -2.1673  1.0760 -1.7502
 3086SOL     OW14104   2.107   5.265   6.323  0.1487  0.7442 -0.4042
 3086SOL    HW114105   2.071   5.325   6.257  0.1498 -1.6850 -2.6951
 3086SOL    HW214106   2.201   5.262   6.305  0.3085  0.8666  0.3876
 3087SOL     OW14107   9.602   5.142   7.239  1.0082  0.3484  0.2262
 3087SOL    HW114108   9.530   5.152   7.301  0.5190 -0.2713 -0.2300
 3087SOL    HW214109   9.581   5.062   7.191  1.1471  1.0500 -1.0285
 3088SOL     OW14110   1.470   4.113   6.262 -0.2293  0.0903  0.3214
 3088SOL    HW114111   1.394   4.096   6.206  0.6508 -0.4897 -0.7380
 3088SOL    HW214112   1.527   4.167   6.208  1.3995 -1.8935 -0.0219
 3089SOL     OW14113   2.433   4.883   6.749  0.6069 -0.2735  0.0764
 3089SOL    HW114114   2.366   4.921   6.691 -0.1620 -1.6916  0.0106
 3089SOL    HW214115   2.489   4.957   6.772 -0.3391  0.7304 -0.7597
 3090SOL     OW14116   1.442   5.304   5.367  0.7168 -0.6535 -0.1130
 3090SOL    HW114117   1.403   5.392   5.358  0.5457 -0.7528 -0.3605
 3090SOL    HW214118   1.483   5.305   5.453  0.6344 -0.3596 -0.0748
 3091SOL     OW14119   1.942   5.658   5.701 -0.5947 -0.3668 -0.1354
 3091SOL    HW114120   1.965   5.659   5.608  0.9541 -0.5836  0.2397
 3091SOL    HW214121   1.931   5.750   5.724  0.8341 -0.1986 -0.0993
 3092SOL     OW14122   0.334   5.821   6.034 -0.4499  0.1914  0.2587
 3092SOL    HW114123   0.394   5.746   6.047  0.1000  0.6146  0.1808
 3092SOL    HW214124   0.255   5.782   5.998  0.2680 -0.2228 -0.9278
 3093SOL     OW14125   1.404   3.475   7.278  0.2022  0.1004  0.5749
 3093SOL    HW114126   1.465   3.406   7.254  0.0868 -0.4610  1.8215
 3093SOL    HW214127   1.318   3.433   7.277 -0.1409  0.8131 -0.8817
 3094SOL     OW14128   0.647   3.909   6.522 -0.2770 -0.0795 -0.4462
 3094SOL    HW114129   0.578   3.973   6.535  0.5847  0.6807  0.4689
 3094SOL    HW214130   0.692   3.938   6.442 -0.5338 -0.1258 -0.6062
 3095SOL     OW14131   9.498   4.409   5.718 -0.9692 -0.4012 -0.3894
 3095SOL    HW114132   9.530   4.441   5.633 -1.5468  1.0456 -0.0555
 3095SOL    HW214133   9.566   4.434   5.780 -1.0274 -0.5616 -0.2612
 3096SOL     OW14134   0.732   4.781   7.679  0.3348 -0.0137 -0.1136
 3096SOL    HW114135   0.770   4.854   7.631  0.3870 -0.0511 -0.1290
 3096SOL    HW214136   0.798   4.712   7.675 -0.5157 -0.7406 -1.7544
 3097SOL     OW14137   1.111   4.498   6.846 -0.3577  0.2323  0.9712
 3097SOL    HW114138   1.165   4.426   6.812 -0.7058 -0.2826  1.5102
 3097SOL    HW214139   1.021   4.464   6.842 -0.8540  1.7164 -1.5918
 3098SOL     OW14140   0.689   4.157   5.407  0.3355 -0.1311 -0.2715
 3098SOL    HW114141   0.632   4.167   5.331  0.8582  1.8604 -0.4166
 3098SOL    HW214142   0.761   4.218   5.392  1.3945 -1.0230  0.9648
 3099SOL     OW14143   2.727   5.338   4.643 -0.2446 -0.5909 -0.2061
 3099SOL    HW114144   2.645   5.290   4.633 -0.6772  0.7951 -3.9793
 3099SOL    HW214145   2.790   5.290   4.589  1.0095 -0.6121  1.2382
 3100SOL     OW14146   0.622   3.426   7.911  0.0712  0.4360  0.2649
 3100SOL    HW114147   0.634   3.357   7.977  2.5596  0.2149 -0.3689
 3100SOL    HW214148   0.627   3.379   7.827  1.6859  1.3750 -0.1704
 3101SOL     OW14149   1.521   3.227   6.038 -0.0646  0.2650 -0.1408
 3101SOL    HW114150   1.459   3.299   6.042  1.5768  1.7412 -0.8285
 3101SOL    HW214151   1.482   3.165   5.977 -1.2013  0.8241  0.0017
 3102SOL     OW14152   0.305   3.309   6.995  0.0161  0.1865  0.2877
 3102SOL    HW114153   0.277   3.231   7.042 -1.5860 -0.1633 -1.2252
 3102SOL    HW214154   0.350   3.277   6.917  2.2038  0.7750  1.2525
 3103SOL     OW14155   0.453   2.815   8.431  0.3690  0.2519 -0.1746
 3103SOL    HW114156   0.365   2.819   8.468  0.8790 -0.5448  1.1413
 3103SOL    HW214157   0.481   2.907   8.425  0.0788  0.4141  0.9152
 3104SOL     OW14158   1.436   3.855   5.946 -0.7517  0.1663  0.6714
 3104SOL    HW114159   1.432   3.932   5.890 -0.1204 -0.7563 -0.6748
 3104SOL    HW214160   1.367   3.869   6.011 -0.7617  1.7696  0.3462
 3105SOL     OW14161   1.177   5.123   7.040 -0.1804 -0.0538  0.1511
 3105SOL    HW114162   1.232   5.049   7.014  0.4385 -0.3791  2.3198
 3105SOL    HW214163   1.113   5.086   7.101 -1.6838  0.6784 -0.9308
 3106SOL     OW14164   0.174   4.614   8.280  0.3754  0.4326 -0.2862
 3106SOL    HW114165   0.117   4.549   8.320 -0.8671  0.8907 -1.2846
 3106SOL    HW214166   0.145   4.697   8.316  1.0514  0.5758 -0.0630
 3107SOL     OW14167   1.259   4.624   6.060  0.7101 -0.2942 -0.0666
 3107SOL    HW114168   1.289   4.641   5.970  0.8742  0.7011  0.1671
 3107SOL    HW214169   1.309   4.547   6.088  2.1536  0.6120 -0.1186
 3108SOL     OW14170   1.811   3.271   6.175 -0.3557 -0.1461 -0.1200
 3108SOL    HW114171   1.752   3.197   6.193  0.7423 -1.3084 -1.1624
 3108SOL    HW214172   1.812   3.278   6.079  0.7192  0.2519 -0.0873
 3109SOL     OW14173   0.532   4.775   6.450  0.2580  0.0124  0.5213
 3109SOL    HW114174   0.584   4.855   6.442 -0.8322  0.7300  0.5389
 3109SOL    HW214175   0.595   4.708   6.478  0.9730  1.1008  1.5557
 3110SOL     OW14176   0.863   4.427   6.772 -0.2570 -0.2736 -0.3207
 3110SOL    HW114177   0.790   4.443   6.833 -0.5635 -0.9936 -0.4917
 3110SOL    HW214178   0.827   4.365   6.709  0.5161 -0.6434 -0.3942
 3111SOL     OW14179   9.962   3.713   8.681 -0.1342 -0.2058 -0.0282
 3111SOL    HW114180  10.005   3.676   8.758  0.0970  1.2034  0.5406
 3111SOL    HW214181   9.976   3.648   8.612  1.7965 -0.3864  0.4883
 3112SOL     OW14182   9.827   3.529   9.259 -0.8418  0.0477  0.4068
 3112SOL    HW114183   9.810   3.455   9.201 -1.7933  0.5242  0.0661
 3112SOL    HW214184   9.793   3.501   9.344 -0.8861 -0.0335  0.3631
 3113SOL     OW14185   0.945   6.113   9.440  0.4351 -0.5726  0.5360
 3113SOL    HW114186   0.979   6.142   9.356 -0.3745  1.5498  0.9245
 3113SOL    HW214187   0.870   6.057   9.418 -0.4134  0.8183 -0.1334
 3114SOL     OW14188   0.593   6.482   8.569 -0.2235  0.5630 -0.2871
 3114SOL    HW114189   0.607   6.483   8.474 -0.0622 -0.1521 -0.2720
 3114SOL    HW214190   0.503   6.451   8.579 -0.8546  2.3376 -0.2662
 3115SOL     OW14191   0.515   4.970   8.547 -0.0765 -0.2490  0.0619
 3115SOL    HW114192   0.444   4.957   8.484  0.1106 -1.0610  0.0044
 3115SOL    HW214193   0.566   5.043   8.511 -0.9184  0.3841  0.1480
 3116SOL     OW14194   0.122   4.246   7.554  0.3868 -0.3316 -0.0565
 3116SOL    HW114195   0.197   4.205   7.597  0.8512  0.0100 -0.5536
 3116SOL    HW214196   0.129   4.220   7.462  0.7893  1.0206 -0.4141
 3117SOL     OW14197   0.791   3.781   8.945  0.1601 -0.1067 -0.1729
 3117SOL    HW114198   0.793   3.735   9.029  0.6676  1.7470  0.8584
 3117SOL    HW214199   0.698   3.798   8.929  0.1359  0.4842  0.5629
 3118SOL     OW14200   1.384   3.410   8.228  0.3043  0.3157 -0.1420
 3118SOL    HW114201   1.292   3.437   8.221  0.4064  0.4641 -0.9535
 3118SOL    HW214202   1.399   3.401   8.322 -0.7375 -0.3582 -0.0242
 3119SOL     OW14203   2.040   4.459   7.050 -0.1330  0.4745 -0.1899
 3119SOL    HW114204   1.986   4.481   6.973 -0.7213 -0.6929 -0.1166
 3119SOL    HW214205   2.118   4.417   7.014 -2.2691 -3.9213  0.0001
 3120SOL     OW14206   0.775   4.580   0.390 -0.5422 -0.3478 -0.2730
 3120SOL    HW114207   0.822   4.601   0.470 -0.0282 -0.5657 -0.5142
 3120SOL    HW214208   0.735   4.495   0.407  0.1248 -0.7116 -0.4817
 3121SOL     OW14209   0.364   4.936   0.720  0.4143  0.1855  0.7808
 3121SOL    HW114210   0.410   4.852   0.726 -1.2122 -0.8327 -0.3034
 3121SOL    HW214211   0.405   4.981   0.647  0.2899 -0.3478  0.3743
 3122SOL     OW14212   2.739   4.801   8.405  0.0155  0.5257  0.8369
 3122SOL    HW114213   2.665   4.740   8.416  1.0753 -0.7013  1.2956
 3122SOL    HW214214   2.813   4.756   8.446  0.8552  2.0731  1.0473
 3123SOL     OW14215   0.212   2.603   8.298 -0.6238  0.6108 -0.2206
 3123SOL    HW114216   0.225   2.691   8.263  1.5997  0.6451  0.6151
 3123SOL    HW214217   0.300   2.573   8.322 -1.0737 -2.5329 -2.1603
 3124SOL     OW14218   0.852   4.307   8.628 -0.3062 -0.1606  0.1245
 3124SOL    HW114219   0.829   4.304   8.535  0.5909 -1.7949 -0.0749
 3124SOL    HW214220   0.924   4.370   8.633 -0.3579 -0.0699 -0.2925
 3125SOL     OW14221   2.277   4.700   8.844 -0.1345 -0.0513  0.5031
 3125SOL    HW114222   2.280   4.687   8.938 -0.4414  2.6472  0.9283
 3125SOL    HW214223   2.184   4.694   8.822 -0.1846  0.4483  0.5663
 3126SOL     OW14224   9.715   4.647   8.704 -0.1592 -0.3118 -0.3745
 3126SOL    HW114225   9.707   4.556   8.675 -1.7209 -0.5400  0.7112
 3126SOL    HW214226   9.747   4.641   8.793  2.1600  0.3048 -1.1492
 3127SOL     OW14227   0.939   5.024   8.905 -0.0143 -0.1866  0.1589
 3127SOL    HW114228   0.905   5.106   8.941  0.4851 -1.3974  3.5802
 3127SOL    HW214229   0.862   4.976   8.877 -0.5510  0.1986  0.9550
 3128SOL     OW14230   0.358   4.335   8.047 -0.3691  0.6242 -0.2627
 3128SOL    HW114231   0.403   4.280   8.112 -1.0595 -0.2981 -0.5484
 3128SOL    HW214232   0.386   4.300   7.963  0.1023  1.4705 -0.4565
 3129SOL     OW14233   0.952   4.052   9.097  0.0474 -0.2699 -0.4999
 3129SOL    HW114234   0.920   3.962   9.091  0.2866 -0.5834  2.0934
 3129SOL    HW214235   0.885   4.098   9.148  0.7529  0.5875 -0.3349
 3130SOL     OW14236   6.939   3.647   8.164 -0.1279 -0.0816 -0.2890
 3130SOL    HW114237   6.935   3.740   8.145 -0.8695 -0.3596 -1.5614
 3130SOL    HW214238   6.850   3.622   8.186 -0.0582 -0.6223 -0.6083
 3131SOL     OW14239   0.734   5.827   8.259  0.5883  0.4577  0.5175
 3131SOL    HW114240   0.762   5.853   8.347  0.7057  0.2340  0.5466
 3131SOL    HW214241   0.808   5.850   8.203  0.5759  0.4548  0.4996
 3132SOL     OW14242   0.905   5.306   7.172  0.2057 -0.1658  0.1111
 3132SOL    HW114243   0.820   5.320   7.130  0.4129 -0.1441 -0.3063
 3132SOL    HW214244   0.929   5.218   7.146  0.1148 -0.3303  0.5825
 3133SOL     OW14245   1.723   3.261   7.280 -0.1722  0.2107 -0.1338
 3133SOL    HW114246   1.689   3.315   7.351 -2.7523 -2.7490  1.0335
 3133SOL    HW214247   1.646   3.242   7.225  0.1018 -3.9302  0.7035
 3134SOL     OW14248   2.023   4.522   9.206  0.1044  0.8107  0.1973
 3134SOL    HW114249   2.050   4.583   9.276  1.1264  0.3907  0.1791
 3134SOL    HW214250   2.000   4.442   9.252  1.3394  0.3408  0.0220
 3135SOL     OW14251   9.416   4.337   9.541 -0.4756 -0.0341 -0.4086
 3135SOL    HW114252   9.430   4.265   9.602  2.1177  1.9971  1.4809
 3135SOL    HW214253   9.460   4.309   9.460 -0.2665 -0.9452  0.0166
 3136SOL     OW14254   0.830   5.907   9.258 -0.2049  0.1235 -0.3776
 3136SOL    HW114255   0.845   5.816   9.284 -1.4531 -0.3175 -1.1481
 3136SOL    HW214256   0.744   5.929   9.294  0.0180  0.9456 -0.3321
 3137SOL     OW14257   0.657   3.511   8.886 -0.1154 -0.1029  0.5409
 3137SOL    HW114258   0.685   3.523   8.977  0.1480  0.1743  0.4241
 3137SOL    HW214259   0.739   3.503   8.837 -0.2224  1.5143  0.0820
 3138SOL     OW14260   8.938   4.583   0.760  0.0473  0.6000  0.0132
 3138SOL    HW114261   8.988   4.654   0.801  0.0496  1.3785 -1.3198
 3138SOL    HW214262   8.884   4.548   0.831  0.3018  1.7046  0.7702
 3139SOL     OW14263   0.454   4.720   8.286  0.1261  0.6936 -0.1847
 3139SOL    HW114264   0.383   4.780   8.265 -1.2443 -0.8819 -0.1214
 3139SOL    HW214265   0.453   4.714   8.382  0.7744  1.1585 -0.1432
 3140SOL     OW14266   1.395   5.038   0.435 -0.0717  0.2209 -0.0509
 3140SOL    HW114267   1.408   5.094   0.511  0.7698  0.8104 -0.6289
 3140SOL    HW214268   1.428   4.953   0.462  0.1227  0.4000  0.2785
 3141SOL     OW14269   1.423   7.584   9.804  0.3127  0.7804  0.1516
 3141SOL    HW114270   1.366   7.516   9.840  1.1866 -0.3901 -0.6507
 3141SOL    HW214271   1.374   7.618   9.729  0.1254  0.6522  0.2141
 3142SOL     OW14272   0.099   3.999   6.557 -0.0168 -0.1073  0.0009
 3142SOL    HW114273   0.045   3.998   6.479 -0.9305  3.3411  0.5388
 3142SOL    HW214274   0.069   4.074   6.607  1.2013 -1.6595  3.2367
 3143SOL     OW14275   0.936   4.119   6.876 -0.2103  0.0154 -0.0360
 3143SOL    HW114276   0.912   4.205   6.842  1.3112  0.2467 -0.5790
 3143SOL    HW214277   1.028   4.108   6.850 -0.2083 -1.5037  0.5688
 3144SOL     OW14278   1.699   5.733   7.411 -0.0708  0.1166  0.6935
 3144SOL    HW114279   1.634   5.778   7.465 -1.1342  0.7276 -1.0464
 3144SOL    HW214280   1.651   5.708   7.332  2.0569  1.6276 -1.1330
 3145SOL     OW14281   1.404   4.809   7.166  0.2719 -0.9528 -0.3514
 3145SOL    HW114282   1.458   4.816   7.245  0.8780  0.9657 -0.9026
 3145SOL    HW214283   1.316   4.833   7.194  1.0609  2.8143 -0.8256
 3146SOL     OW14284   1.662   3.485   8.773 -0.2032 -0.5410  0.7890
 3146SOL    HW114285   1.707   3.410   8.812 -1.5516 -1.2814  0.9464
 3146SOL    HW214286   1.665   3.553   8.841  0.9708 -0.4624  0.6666
 3147SOL     OW14287   1.409   4.526   8.010 -0.4436  0.6462  0.1148
 3147SOL    HW114288   1.495   4.565   8.030 -0.3693  0.9675 -0.8243
 3147SOL    HW214289   1.412   4.508   7.916 -0.8770 -0.6696  0.3461
 3148SOL     OW14290   1.209   3.739   9.381  0.1606  0.0634  0.3583
 3148SOL    HW114291   1.117   3.741   9.355  1.0168  3.6726 -2.9232
 3148SOL    HW214292   1.211   3.786   9.464 -0.8718  0.9474 -0.0928
 3149SOL     OW14293   0.626   2.989   9.148  1.1232  0.3546 -0.1808
 3149SOL    HW114294   0.675   3.069   9.126 -1.2848  1.8882 -0.2365
 3149SOL    HW214295   0.688   2.936   9.197  2.6061  2.5713  0.4545
 3150SOL     OW14296   9.610   5.278   8.252  0.8613  0.0248 -0.8737
 3150SOL    HW114297   9.552   5.228   8.195  1.3493 -1.5097 -0.0651
 3150SOL    HW214298   9.697   5.268   8.212  1.0687 -0.3672 -0.3429
 3151SOL     OW14299   8.548   6.760   9.529  0.5326  0.3448  0.2519
 3151SOL    HW114300   8.551   6.831   9.465  2.1229  0.0880  0.0247
 3151SOL    HW214301   8.543   6.680   9.476 -1.2333  0.2671  0.5054
 3152SOL     OW14302   0.316   6.182   7.672  0.4224 -0.0631  0.1114
 3152SOL    HW114303   0.401   6.211   7.638  1.3459 -1.6528  0.9559
 3152SOL    HW214304   0.324   6.194   7.767 -1.0798  1.7112  0.0309
 3153SOL     OW14305   0.927   5.285   9.580 -0.0242  0.2289  0.1636
 3153SOL    HW114306   1.011   5.315   9.544 -0.5822  0.7510 -0.7078
 3153SOL    HW214307   0.881   5.248   9.505 -0.0348 -1.2964  0.9063
 3154SOL     OW14308   2.703   6.278   8.261 -0.4195  0.4110 -0.4163
 3154SOL    HW114309   2.615   6.249   8.239  0.8001 -3.2046 -0.7919
 3154SOL    HW214310   2.761   6.209   8.228  2.5758  2.6667 -0.1528
 3155SOL     OW14311   0.179   4.276   9.478 -0.7524 -0.6531  0.0704
 3155SOL    HW114312   0.194   4.311   9.566 -0.1454  0.0078 -0.2999
 3155SOL    HW214313   0.264   4.241   9.452 -0.3397  1.2654 -1.2055
 3156SOL     OW14314   1.071   3.778   7.292  0.1715 -0.2866  0.2524
 3156SOL    HW114315   1.102   3.783   7.202  0.1958 -0.4605  0.2514
 3156SOL    HW214316   1.038   3.689   7.301  2.2487 -1.0174  1.0907
 3157SOL     OW14317   0.737   4.763   8.779  0.1094 -0.2443 -1.0217
 3157SOL    HW114318   0.829   4.741   8.764  0.3587 -1.2062  1.7440
 3157SOL    HW214319   0.689   4.686   8.750  0.2385 -0.1605 -1.4627
 3158SOL     OW14320   1.190   4.119   9.519  0.3313  0.6084 -0.5031
 3158SOL    HW114321   1.207   4.031   9.551 -0.9964  0.6781  0.4210
 3158SOL    HW214322   1.234   4.122   9.433  3.3300  0.1947  0.9407
 3159SOL     OW14323   2.150   4.234   0.033 -0.0278 -0.1529  0.0140
 3159SOL    HW114324   2.177   4.272   0.116  1.9390  1.2716 -1.2375
 3159SOL    HW214325   2.059   4.261   0.023  0.4938  1.8472  0.4945
 3160SOL     OW14326   9.828   4.028   6.782  0.6682 -0.1789 -0.3341
 3160SOL    HW114327   9.755   4.065   6.831  0.4007 -2.2022  0.8471
 3160SOL    HW214328   9.906   4.070   6.820  0.3260 -0.3323  0.5426
 3161SOL     OW14329   2.021   4.898   8.228 -0.1051  0.7006  0.1526
 3161SOL    HW114330   1.968   4.944   8.293 -1.3466  1.7254 -1.5609
 3161SOL    HW214331   1.985   4.809   8.227 -0.9916  1.0579 -0.1108
 3162SOL     OW14332   0.097   5.202   8.490  0.0810 -0.0993  0.2216
 3162SOL    HW114333   0.089   5.168   8.401  1.1834  1.4344 -0.4799
 3162SOL    HW214334   0.016   5.251   8.504  0.1165  0.0588 -0.1176
 3163SOL     OW14335   9.951   4.696   7.060 -0.1997  0.4502 -0.4830
 3163SOL    HW114336  10.012   4.623   7.055 -0.4936  0.2368 -1.0016
 3163SOL    HW214337  10.004   4.773   7.037  0.2108  0.4631  0.4974
 3164SOL     OW14338   0.244   5.893   7.652 -0.0250 -0.3610 -0.5158
 3164SOL    HW114339   0.270   5.985   7.647 -0.7283 -0.2472 -2.1719
 3164SOL    HW214340   0.320   5.844   7.620  0.4264 -0.3788  0.5623
 3165SOL     OW14341   1.098   2.398   8.504  0.4872  0.3741 -0.6087
 3165SOL    HW114342   1.054   2.453   8.569 -0.9013 -1.6350  0.2031
 3165SOL    HW214343   1.187   2.387   8.538  0.6337  1.6878 -0.5346
 3166SOL     OW14344   0.359   4.906   7.801 -0.1320  0.2518  0.7481
 3166SOL    HW114345   0.269   4.882   7.821 -0.5309 -0.5892 -1.8556
 3166SOL    HW214346   0.356   5.000   7.781 -0.2833  0.3947  1.4444
 3167SOL     OW14347   1.681   5.082   9.626  0.2146 -0.2730 -0.1304
 3167SOL    HW114348   1.673   5.158   9.684  1.2867  0.4094 -0.8610
 3167SOL    HW214349   1.639   5.109   9.545 -1.0365 -1.1291  0.2126
 3168SOL     OW14350   0.098   5.169   7.570  0.2811  0.1463  0.2768
 3168SOL    HW114351   0.171   5.174   7.508 -0.4576 -2.9933 -0.9463
 3168SOL    HW214352   0.139   5.158   7.655  1.2502  0.7076 -0.1087
 3169SOL     OW14353   2.190   4.043   0.259  0.1198 -0.3309  0.1048
 3169SOL    HW114354   2.281   4.068   0.246  0.1633  0.0953  1.1927
 3169SOL    HW214355   2.151   4.046   0.171  0.7884  0.8923 -0.1493
 3170SOL     OW14356   1.207   4.728   7.598 -0.5932  0.5825 -0.5739
 3170SOL    HW114357   1.276   4.706   7.535 -0.1601 -1.8378  0.6781
 3170SOL    HW214358   1.252   4.729   7.683 -2.1319 -1.3467  0.2989
 3171SOL     OW14359   0.644   4.025   9.799 -0.0408  0.5232 -0.1062
 3171SOL    HW114360   0.665   4.075   9.720  0.5442 -0.8001 -0.7856
 3171SOL    HW214361   0.715   4.047   9.860 -0.4785  1.5218  0.0672
 3172SOL     OW14362   2.277   4.883   8.149  0.0522  0.3731 -0.4905
 3172SOL    HW114363   2.222   4.841   8.082 -0.4461  0.1897  0.0319
 3172SOL    HW214364   2.215   4.926   8.207  0.4579  0.0275  0.2007
 3173SOL     OW14365   1.747   4.588   0.621 -0.0040  0.4941  0.3085
 3173SOL    HW114366   1.724   4.528   0.691  1.7682 -0.2294  0.3147
 3173SOL    HW214367   1.803   4.536   0.563 -1.9839  0.8704 -2.0093
 3174SOL     OW14368   2.443   2.454   8.718  0.6044  0.9653  0.3460
 3174SOL    HW114369   2.465   2.519   8.650  2.0440  2.7453  2.4346
 3174SOL    HW214370   2.407   2.506   8.790 -0.8797 -0.8959  0.9826
 3175SOL     OW14371   0.955   6.408   9.246  0.0943 -0.0240  0.5585
 3175SOL    HW114372   0.993   6.460   9.317 -1.8769  2.0826  0.1268
 3175SOL    HW214373   0.863   6.398   9.271  0.0502 -1.8360 -0.2474
 3176SOL     OW14374   0.986   3.526   7.328  0.1799  0.1507 -0.1279
 3176SOL    HW114375   1.042   3.518   7.250 -0.8538  0.1758 -0.8952
 3176SOL    HW214376   0.928   3.450   7.322 -0.7240  0.8360 -0.0443
 3177SOL     OW14377   1.155   3.278   7.242  0.1812  1.0045 -0.6089
 3177SOL    HW114378   1.067   3.259   7.274 -0.1152  0.0868 -1.8998
 3177SOL    HW214379   1.145   3.359   7.191 -0.4344 -0.3840 -2.7679
 3178SOL     OW14380   0.894   3.594   7.585  0.4627  0.4142 -0.1229
 3178SOL    HW114381   0.939   3.568   7.504  0.5491 -0.7822  0.3035
 3178SOL    HW214382   0.830   3.659   7.557 -1.2065 -1.7781 -1.5203
 3179SOL     OW14383   1.032   3.761   8.746  0.0819  0.2461 -0.3021
 3179SOL    HW114384   0.987   3.684   8.780  0.2962  0.7366  1.1006
 3179SOL    HW214385   0.963   3.824   8.726 -0.0507 -0.0850 -0.8992
 3180SOL     OW14386   0.774   4.268   7.209  0.3079  0.0417 -0.3321
 3180SOL    HW114387   0.737   4.330   7.146 -0.4850 -1.0199 -0.9280
 3180SOL    HW214388   0.868   4.271   7.194  0.4319  2.2742  0.7240
 3181SOL     OW14389   1.089   4.531   5.810  0.1361 -0.3919  0.2566
 3181SOL    HW114390   1.133   4.470   5.869  1.7650 -2.0992 -2.6168
 3181SOL    HW214391   1.157   4.594   5.786 -1.1591  1.7879  2.0472
 3182SOL     OW14392   3.481   4.368   9.565  0.4688  0.9849 -0.4276
 3182SOL    HW114393   3.501   4.310   9.492  0.8285  0.4539  0.0945
 3182SOL    HW214394   3.385   4.376   9.563  0.4951  1.2523 -1.1626
 3183SOL     OW14395   0.227   4.547   7.376 -0.1035 -0.2156 -0.1966
 3183SOL    HW114396   0.151   4.591   7.414  1.2200 -0.1746  2.4898
 3183SOL    HW214397   0.268   4.614   7.321 -1.1138  0.2451 -0.4005
 3184SOL     OW14398   9.373   3.719   8.265 -0.2941 -0.2930  0.3162
 3184SOL    HW114399   9.438   3.782   8.232 -0.3830 -0.3208  0.0865
 3184SOL    HW214400   9.416   3.634   8.257  0.5726 -0.0815  2.4691
 3185SOL     OW14401   0.677   3.000   8.881  0.7735  0.3866 -1.1080
 3185SOL    HW114402   0.592   3.031   8.851  0.9998  2.2124  0.0888
 3185SOL    HW214403   0.659   2.951   8.960  0.9031  1.4990 -0.3755
 3186SOL     OW14404   9.986   4.451   8.373 -0.2686  0.2527 -0.0633
 3186SOL    HW114405   9.973   4.475   8.465 -0.8820  0.3430 -0.1733
 3186SOL    HW214406  10.008   4.358   8.375 -1.1542  0.0507  0.0994
 3187SOL     OW14407   0.840   3.565   8.232 -0.2921 -0.3778  0.4946
 3187SOL    HW114408   0.929   3.538   8.212 -0.5180 -1.2514  0.6349
 3187SOL    HW214409   0.832   3.653   8.194  0.5791 -0.3499  0.3715
 3188SOL     OW14410   1.216   4.427   8.171 -0.5803  0.7393 -0.1566
 3188SOL    HW114411   1.138   4.468   8.134  0.8975  1.9687 -2.0126
 3188SOL    HW214412   1.289   4.478   8.135  1.2357 -2.3880 -1.0567
 3189SOL     OW14413   2.127   5.748   7.421 -0.1551  0.5239 -0.4819
 3189SOL    HW114414   2.197   5.807   7.393 -0.8291  1.4025 -0.3210
 3189SOL    HW214415   2.106   5.697   7.342  0.3886  0.5341 -0.6340
 3190SOL     OW14416   2.619   3.327   7.518 -0.5252  0.7172 -0.2986
 3190SOL    HW114417   2.543   3.283   7.556  0.1691 -0.4837 -0.2859
 3190SOL    HW214418   2.596   3.339   7.426 -0.6426  0.1639 -0.3433
 3191SOL     OW14419   0.069   4.954   7.940 -0.0448  0.0833  0.1682
 3191SOL    HW114420   0.103   5.025   7.886 -0.0999  0.6243  0.8402
 3191SOL    HW214421  -0.004   4.994   7.989  0.1494 -0.3374  0.8074
 3192SOL     OW14422   0.480   6.479   8.037 -0.5955 -0.4790 -0.2036
 3192SOL    HW114423   0.526   6.523   7.966 -1.6839 -0.3756 -0.8585
 3192SOL    HW214424   0.403   6.533   8.053  0.6847  0.6403  2.4789
 3193SOL     OW14425   1.571   3.124   8.937  0.2050 -0.2839  0.0037
 3193SOL    HW114426   1.621   3.202   8.914 -0.4580 -0.2639 -1.4095
 3193SOL    HW214427   1.623   3.051   8.904  2.0453 -0.6387  3.4870
 3194SOL     OW14428   2.677   4.907   0.639 -0.0333  0.3516 -0.4125
 3194SOL    HW114429   2.581   4.899   0.637 -0.1792  1.9633 -2.1684
 3194SOL    HW214430   2.709   4.828   0.597 -0.5802 -0.3423  0.4623
 3195SOL     OW14431   1.227   4.622   9.082  0.3192 -0.0089 -0.1930
 3195SOL    HW114432   1.291   4.614   9.011  0.3396  0.2158 -0.2015
 3195SOL    HW214433   1.216   4.717   9.093  2.0968 -0.0032  1.7015
 3196SOL     OW14434   2.283   5.658   9.760  0.5590 -0.1599  0.2328
 3196SOL    HW114435   2.263   5.640   9.852  0.6565 -0.1783  0.2512
 3196SOL    HW214436   2.376   5.680   9.760  0.8024 -1.2012 -0.0165
 3197SOL     OW14437   1.399   4.600   7.450 -0.2146  0.2803  0.0370
 3197SOL    HW114438   1.454   4.674   7.425  0.1827  1.1557  3.3607
 3197SOL    HW214439   1.456   4.544   7.503 -1.1527 -1.3126 -0.5721
 3198SOL     OW14440   3.534   4.714   9.080  0.4824  0.1975 -0.1244
 3198SOL    HW114441   3.474   4.786   9.058 -1.7373 -2.2262 -2.3342
 3198SOL    HW214442   3.537   4.713   9.175 -1.3507  1.6998 -0.0261
 3199SOL     OW14443   0.525   3.055   9.844  0.1564 -0.8075 -1.2389
 3199SOL    HW114444   0.555   3.125   9.901 -1.1468 -0.1695 -1.3310
 3199SOL    HW214445   0.517   2.979   9.902 -1.7320 -0.0182 -0.4310
 3200SOL     OW14446   2.254   3.577   8.788 -0.0940 -0.1860  0.4291
 3200SOL    HW114447   2.250   3.644   8.720 -0.4870  0.7887  1.3908
 3200SOL    HW214448   2.194   3.509   8.759 -1.1434  0.7579  0.3498
 3201SOL     OW14449   0.261   6.177   9.583  0.0318  0.7315  0.1817
 3201SOL    HW114450   0.244   6.265   9.550  1.5130  1.0222  0.1823
 3201SOL    HW214451   0.284   6.126   9.506 -0.9561  0.2926  0.1601
 3202SOL     OW14452   2.360   3.936   9.846  0.9329  0.6321 -0.3287
 3202SOL    HW114453   2.443   3.980   9.863  1.9118 -1.1097 -0.4809
 3202SOL    HW214454   2.366   3.908   9.755  0.4847 -0.1270 -0.1324
 3203SOL     OW14455   2.158   5.004   8.725  0.7066 -0.3601  0.5670
 3203SOL    HW114456   2.185   5.017   8.816  1.2321  0.9541  0.2308
 3203SOL    HW214457   2.080   4.949   8.731  1.7673 -1.7984  1.7181
 3204SOL     OW14458   0.164   4.126   7.321 -0.2256  0.1143  0.0450
 3204SOL    HW114459   0.089   4.068   7.306 -0.7466  1.2034 -1.6632
 3204SOL    HW214460   0.220   4.077   7.381 -2.4697 -0.5608  1.6445
 3205SOL     OW14461   0.228   4.653   8.690 -0.2346  0.1554 -0.0437
 3205SOL    HW114462   0.161   4.627   8.627  0.6656 -0.1015 -0.9091
 3205SOL    HW214463   0.235   4.748   8.680  0.9025 -0.0424 -1.3699
 3206SOL     OW14464   0.848   5.298   8.623 -0.0588  0.1797 -0.1072
 3206SOL    HW114465   0.780   5.256   8.571  0.6413  0.1741 -1.0272
 3206SOL    HW214466   0.878   5.371   8.568  1.2463 -0.3119 -0.0671
 3207SOL     OW14467   1.626   4.775   9.226  0.2565  0.2365 -0.0297
 3207SOL    HW114468   1.625   4.805   9.317  1.5137  0.0493  0.0575
 3207SOL    HW214469   1.558   4.826   9.183 -1.5928 -0.9365  1.4113
 3208SOL     OW14470   1.909   3.941   6.302  0.2540  0.4545 -1.0905
 3208SOL    HW114471   1.839   3.987   6.349 -0.1260 -3.6365  2.7658
 3208SOL    HW214472   1.864   3.898   6.229 -1.0425 -0.6009  0.2664
 3209SOL     OW14473   1.136   4.398   7.646  0.2139 -0.0618 -0.0908
 3209SOL    HW114474   1.149   4.370   7.555  1.3095 -1.5555  0.5139
 3209SOL    HW214475   1.065   4.342   7.678 -0.8998  1.1839 -0.3250
 3210SOL     OW14476   0.752   5.165   9.327  0.9658  0.4051 -0.6465
 3210SOL    HW114477   0.705   5.240   9.364 -0.0004 -0.0708 -0.8878
 3210SOL    HW214478   0.691   5.092   9.337  1.4576 -0.1161 -1.4423
 3211SOL     OW14479   1.352   5.878   0.092 -0.1907 -0.1649  0.1051
 3211SOL    HW114480   1.339   5.784   0.078 -1.3801  0.2722 -1.8256
 3211SOL    HW214481   1.382   5.884   0.183  0.9767 -2.4931 -0.0709
 3212SOL     OW14482   1.523   4.293   9.530 -0.0457 -0.4115 -0.2723
 3212SOL    HW114483   1.571   4.365   9.491 -0.1576  0.2256  0.7518
 3212SOL    HW214484   1.513   4.229   9.459  2.2120 -0.5091 -0.5375
 3213SOL     OW14485   8.707   4.725   9.561 -0.0966  0.0132  0.1132
 3213SOL    HW114486   8.626   4.733   9.511  0.6543 -0.4466 -1.2139
 3213SOL    HW214487   8.762   4.796   9.528  0.5373 -0.5135  0.0306
 3214SOL     OW14488   9.462   3.843   0.031  0.3375 -0.4282 -0.2883
 3214SOL    HW114489   9.441   3.863   0.122  1.2704  0.4499 -0.2529
 3214SOL    HW214490   9.534   3.780   0.036 -0.8977 -1.8686 -0.4165
 3215SOL     OW14491   9.855   3.176   7.751  0.2270  0.3366 -0.0472
 3215SOL    HW114492   9.889   3.098   7.707 -1.2235 -0.6076  0.4454
 3215SOL    HW214493   9.761   3.158   7.762  0.2792  1.2093  2.0635
 3216SOL     OW14494   0.284   4.042   9.218  0.5055  0.3909  0.3336
 3216SOL    HW114495   0.323   4.080   9.297  0.6468 -0.0725  0.4854
 3216SOL    HW214496   0.317   4.098   9.147 -0.0312  1.1177  0.6511
 3217SOL     OW14497   8.554   4.788   8.886  0.4405  0.2639 -0.3462
 3217SOL    HW114498   8.604   4.737   8.950 -1.0542 -1.3144 -0.4171
 3217SOL    HW214499   8.590   4.762   8.802  1.2041  1.0095 -0.2503
 3218SOL     OW14500   0.933   4.651   0.619  0.3694  0.4863  0.0727
 3218SOL    HW114501   0.986   4.581   0.656  1.8923  0.2766 -2.4215
 3218SOL    HW214502   0.979   4.731   0.643  0.8287  0.4024 -0.5158
 3219SOL     OW14503   1.294   4.389   0.940  0.3166  0.0452 -0.7810
 3219SOL    HW114504   1.327   4.450   1.006 -0.9937 -0.0733  0.0082
 3219SOL    HW214505   1.285   4.442   0.860 -0.2215  0.7372 -0.2673
 3220SOL     OW14506   1.441   2.440   7.979  0.8436 -0.5325 -0.2610
 3220SOL    HW114507   1.485   2.356   7.989  0.3397 -0.6877  0.6470
 3220SOL    HW214508   1.442   2.479   8.066 -1.1224 -0.6920 -0.1527
 3221SOL     OW14509   2.042   4.081   7.646 -0.1267  0.1884 -0.1041
 3221SOL    HW114510   2.125   4.041   7.620 -0.6730 -0.8829 -0.2007
 3221SOL    HW214511   2.067   4.143   7.716  0.8681  0.5434 -0.7569
 3222SOL     OW14512   0.758   3.702   0.423  0.3216 -0.2030  0.1520
 3222SOL    HW114513   0.814   3.627   0.438  0.7781 -0.0002 -0.5070
 3222SOL    HW214514   0.817   3.777   0.426 -0.2124  0.1803  1.3299
 3223SOL     OW14515   1.483   4.300   8.418 -0.1426  0.0537 -0.2828
 3223SOL    HW114516   1.440   4.240   8.479 -0.0139 -1.0768 -1.2790
 3223SOL    HW214517   1.437   4.383   8.429 -0.7011 -0.3839  0.7093
 3224SOL     OW14518   1.383   5.998   9.022 -0.5344  0.1702 -0.8142
 3224SOL    HW114519   1.305   6.049   9.002 -2.3457 -2.4870 -0.6958
 3224SOL    HW214520   1.405   5.953   8.940  0.4991  0.4077 -0.6776
 3225SOL     OW14521   2.620   3.849   0.160  0.4040 -0.2249 -0.3725
 3225SOL    HW114522   2.690   3.793   0.195  3.8804  2.8639 -1.9731
 3225SOL    HW214523   2.606   3.817   0.071 -1.3324 -1.8064  0.4598
 3226SOL     OW14524   0.183   3.809   7.541 -0.2121  0.6254  0.1303
 3226SOL    HW114525   0.250   3.741   7.534 -0.9841 -0.0403 -1.1414
 3226SOL    HW214526   0.114   3.781   7.480 -0.4753  2.6262 -0.5430
 3227SOL     OW14527   1.029   5.636   8.938 -0.2359 -0.1964 -0.2202
 3227SOL    HW114528   0.995   5.613   8.851  0.1725 -0.0893 -0.4135
 3227SOL    HW214529   1.036   5.732   8.937 -0.6561 -0.1646  0.0935
 3228SOL     OW14530   9.558   4.825   9.519  0.6836  0.9471 -0.7729
 3228SOL    HW114531   9.627   4.775   9.476 -0.6266 -0.3299 -1.4307
 3228SOL    HW214532   9.498   4.759   9.553  0.0547  2.0267  0.2450
 3229SOL     OW14533   8.746   3.640   7.299  0.1202  0.0774 -0.2044
 3229SOL    HW114534   8.771   3.622   7.390  0.0804  1.2946  0.0558
 3229SOL    HW214535   8.652   3.619   7.295  0.5091 -1.7345 -0.4499
 3230SOL     OW14536   0.823   3.420   9.521  0.0628 -0.0236 -0.1717
 3230SOL    HW114537   0.858   3.366   9.592  0.5563  0.2363 -0.2119
 3230SOL    HW214538   0.868   3.390   9.443  0.4044  0.4953 -0.1806
 3231SOL     OW14539   0.042   3.798   7.017 -0.5399  0.1727  0.3085
 3231SOL    HW114540  -0.004   3.854   7.080 -1.0478  0.9852 -0.7532
 3231SOL    HW214541   0.131   3.794   7.050 -0.3508  2.1278  0.0865
 3232SOL     OW14542   8.981   5.972   7.403  0.3227  0.4323 -0.0438
 3232SOL    HW114543   9.041   6.028   7.453 -0.2819  0.3828  0.7389
 3232SOL    HW214544   9.039   5.918   7.348  0.9466  1.1735 -0.1285
 3233SOL     OW14545   1.834   5.262   8.886 -0.4041 -0.3680 -0.1280
 3233SOL    HW114546   1.919   5.301   8.906 -0.1147  0.0303 -2.0145
 3233SOL    HW214547   1.770   5.325   8.920  0.0543 -0.4787  0.9394
 3234SOL     OW14548   0.807   4.495   7.448 -0.2513  0.3692  0.3616
 3234SOL    HW114549   0.871   4.544   7.499  0.6699  0.4235 -0.8198
 3234SOL    HW214550   0.860   4.441   7.389 -1.2849  0.3740 -0.5851
 3235SOL     OW14551   0.401   4.112   8.421 -0.1626  0.2970 -0.2367
 3235SOL    HW114552   0.446   4.104   8.505  0.3725  0.9752 -0.4486
 3235SOL    HW214553   0.309   4.096   8.442  0.1015 -0.5555  0.2962
 3236SOL     OW14554   0.711   4.767   7.152 -0.2971 -0.2570 -0.1257
 3236SOL    HW114555   0.703   4.747   7.059 -0.1686  1.0362 -0.4228
 3236SOL    HW214556   0.705   4.863   7.157  2.6742 -0.0654  0.8645
 3237SOL     OW14557   9.470   4.293   8.477  0.1503  0.5903 -0.3803
 3237SOL    HW114558   9.375   4.296   8.494  0.3507 -0.9713  1.0660
 3237SOL    HW214559   9.489   4.201   8.461  1.3547  0.9676 -1.1474
 3238SOL     OW14560   2.272   4.669   0.648  0.2753  1.3407  0.3732
 3238SOL    HW114561   2.294   4.614   0.723 -1.8424  0.9045  0.6878
 3238SOL    HW214562   2.192   4.632   0.612  0.3258  2.5698 -1.0861
 3239SOL     OW14563   0.947   4.917   9.537 -0.5818  0.1311 -0.2350
 3239SOL    HW114564   0.909   4.975   9.604  0.2007 -0.0100  0.3412
 3239SOL    HW214565   1.025   4.881   9.579 -0.7929 -0.9562 -0.7801
 3240SOL     OW14566   1.015   3.480   9.031  0.3764  0.3364 -0.8821
 3240SOL    HW114567   0.919   3.479   9.029  0.3214  1.2069  0.2166
 3240SOL    HW214568   1.042   3.434   8.952 -0.9551  0.4672 -1.4230
 3241SOL     OW14569   1.092   4.566   8.412 -0.0177 -0.1547 -0.0564
 3241SOL    HW114570   1.046   4.577   8.328 -1.1798 -1.0561  0.4395
 3241SOL    HW214571   1.113   4.472   8.415  0.9298  0.0651  0.2054
 3242SOL     OW14572   0.819   4.705   7.963 -0.0183  0.1791 -0.5054
 3242SOL    HW114573   0.763   4.780   7.983 -0.8661 -0.0843 -1.8640
 3242SOL    HW214574   0.807   4.690   7.870  1.7802 -0.3360 -0.6690
 3243SOL     OW14575   2.329   4.701   1.150 -0.1008 -0.0661  0.1728
 3243SOL    HW114576   2.234   4.709   1.157 -0.2228 -1.2692 -0.1216
 3243SOL    HW214577   2.361   4.712   1.240 -0.6165 -0.9997  0.4732
 3244SOL     OW14578   1.804   5.476   8.447 -0.1207  0.1775  0.0689
 3244SOL    HW114579   1.859   5.408   8.407 -0.8269 -1.0231  1.1089
 3244SOL    HW214580   1.731   5.428   8.485 -1.0961  1.6219  0.0445
 3245SOL     OW14581   9.498   2.731   9.415  0.0929 -0.1244  0.3004
 3245SOL    HW114582   9.565   2.799   9.417 -0.5165  0.4335  2.1771
 3245SOL    HW214583   9.416   2.776   9.436 -0.3856 -1.3596  1.1418
 3246SOL     OW14584   1.566   4.192   8.197  0.1733 -0.3913 -0.1311
 3246SOL    HW114585   1.498   4.185   8.129  0.4682  1.2416 -0.6136
 3246SOL    HW214586   1.526   4.244   8.266  0.3272 -0.9611  0.3967
 3247SOL     OW14587   9.987   4.683   7.927 -0.6504  0.5021 -0.3413
 3247SOL    HW114588   9.942   4.698   7.844  1.6140 -2.5938 -2.2395
 3247SOL    HW214589  10.058   4.747   7.928  0.3351 -0.5253 -1.6578
 3248SOL     OW14590   0.646   5.964   8.543 -0.6354 -0.0887  0.2206
 3248SOL    HW114591   0.556   5.994   8.526 -0.7071 -0.8206 -0.7064
 3248SOL    HW214592   0.636   5.894   8.608 -0.8058 -0.6892 -0.4490
 3249SOL     OW14593   0.248   4.076   7.869 -0.0391  0.0924 -0.3131
 3249SOL    HW114594   0.243   4.019   7.947  2.8467  0.3918  0.1231
 3249SOL    HW214595   0.314   4.035   7.813  0.3453  1.7155 -1.0807
 3250SOL     OW14596   9.464   3.766   9.198 -0.0663 -0.5319 -0.8237
 3250SOL    HW114597   9.541   3.796   9.150 -0.0094 -1.0908 -1.0757
 3250SOL    HW214598   9.412   3.846   9.211  0.2295 -0.2693 -1.2419
 3251SOL     OW14599   1.557   4.828   9.759 -0.6346 -0.0402  0.2173
 3251SOL    HW114600   1.472   4.866   9.783 -0.3691  0.5191  0.2906
 3251SOL    HW214601   1.560   4.833   9.663 -1.2611 -1.3273  0.1219
 3252SOL     OW14602   2.131   4.744   6.692 -0.0694 -0.0978 -0.6970
 3252SOL    HW114603   2.051   4.705   6.655 -0.3063 -0.1106 -0.1716
 3252SOL    HW214604   2.125   4.837   6.669 -0.9255  0.1694  0.5372
 3253SOL     OW14605   0.190   4.914   0.938 -0.0170  0.5020 -0.1384
 3253SOL    HW114606   0.262   4.880   0.991  0.7910  0.3038 -1.3432
 3253SOL    HW214607   0.228   4.926   0.851 -1.6530 -0.3415 -0.9865
 3254SOL     OW14608   7.439   5.291   9.392  0.8979  0.0768 -0.2291
 3254SOL    HW114609   7.466   5.295   9.301  0.2124  0.8776 -0.4010
 3254SOL    HW214610   7.389   5.371   9.407 -0.0343 -0.6149  0.5089
 3255SOL     OW14611   0.351   4.040   7.511 -0.0458  0.5551 -0.4301
 3255SOL    HW114612   0.417   4.061   7.578 -0.0672 -0.4565 -0.0734
 3255SOL    HW214613   0.313   3.957   7.541 -0.8519  0.6768 -1.1081
 3256SOL     OW14614   0.297   5.416   9.247 -0.1343 -0.3157 -0.7431
 3256SOL    HW114615   0.367   5.420   9.181  0.6807  0.3717  0.1516
 3256SOL    HW214616   0.326   5.348   9.308  0.5444  1.0564  0.4958
 3257SOL     OW14617   0.420   5.645   7.907  0.3373 -0.0470  0.1772
 3257SOL    HW114618   0.445   5.656   7.815  0.3819  0.1032  0.2080
 3257SOL    HW214619   0.492   5.595   7.945 -1.1307 -2.8818 -0.6083
 3258SOL     OW14620   1.764   4.550   8.394 -0.0358 -0.2296  0.1054
 3258SOL    HW114621   1.698   4.616   8.372 -0.2135 -0.0017  1.3356
 3258SOL    HW214622   1.723   4.467   8.368 -0.6245 -0.0472  0.4276
 3259SOL     OW14623   9.905   4.684   7.667  0.4225  0.0841 -0.2489
 3259SOL    HW114624   9.929   4.592   7.668  2.1236  0.5244  0.6180
 3259SOL    HW214625   9.918   4.712   7.577 -0.2121 -0.5315 -0.5415
 3260SOL     OW14626   0.355   6.160   8.854 -0.0138  0.6855 -0.1236
 3260SOL    HW114627   0.291   6.216   8.898 -2.2525 -1.2795 -0.7751
 3260SOL    HW214628   0.365   6.198   8.767 -3.0914 -0.9920 -1.2884
 3261SOL     OW14629   2.584   3.187   7.046 -0.3098  0.3451 -0.1975
 3261SOL    HW114630   2.513   3.231   7.092  0.4197 -0.2887  1.6053
 3261SOL    HW214631   2.664   3.217   7.091  0.2218 -2.6653  1.0420
 3262SOL     OW14632   1.046   4.885   0.346  0.4105 -0.2553 -0.0687
 3262SOL    HW114633   0.992   4.910   0.421  1.6296  1.2378  0.3360
 3262SOL    HW214634   1.028   4.792   0.334 -2.4797  0.2625 -0.1385
 3263SOL     OW14635   1.472   5.765   8.280  0.0915 -0.7477  0.1693
 3263SOL    HW114636   1.542   5.828   8.265  1.0722 -1.6243  1.0414
 3263SOL    HW214637   1.455   5.727   8.194 -1.0048  1.1946 -0.5095
 3264SOL     OW14638   0.310   4.991   6.557 -0.1744  0.3229  0.5596
 3264SOL    HW114639   0.253   5.037   6.495  0.7735 -0.8459 -1.2528
 3264SOL    HW214640   0.389   5.044   6.561 -0.7544  1.0988  1.8206
 3265SOL     OW14641   8.031   5.145   0.938  0.2914 -0.4428  0.0509
 3265SOL    HW114642   8.116   5.181   0.913 -1.1133  1.6075 -2.0261
 3265SOL    HW214643   7.968   5.212   0.910 -2.0303 -2.1526  1.0695
 3266SOL     OW14644   0.345   5.404   9.625 -0.1866 -0.2176  0.1572
 3266SOL    HW114645   0.258   5.430   9.655 -0.4621  0.3762 -1.1390
 3266SOL    HW214646   0.400   5.481   9.642  0.3064 -0.9118  1.8282
 3267SOL     OW14647   1.163   4.234   7.440  0.0323 -0.1701 -0.0163
 3267SOL    HW114648   1.223   4.159   7.434 -0.7075 -0.7931  0.4062
 3267SOL    HW214649   1.130   4.246   7.351  2.3808  1.5018 -0.7149
 3268SOL     OW14650   1.019   4.907   8.386 -0.0082 -0.5510  0.0881
 3268SOL    HW114651   0.939   4.926   8.337 -0.0875 -1.2541 -0.0623
 3268SOL    HW214652   1.009   4.815   8.412  0.2280 -0.3034  1.0538
 3269SOL     OW14653   0.521   4.219   7.872 -0.1094  0.8965  0.3027
 3269SOL    HW114654   0.476   4.147   7.829 -1.7872  0.8966  2.0193
 3269SOL    HW214655   0.560   4.269   7.800  1.7173 -2.0816 -0.8745
 3270SOL     OW14656   1.968   4.278   1.101 -0.2412 -0.3460  0.2778
 3270SOL    HW114657   1.925   4.210   1.050 -0.6537  0.0179  0.1292
 3270SOL    HW214658   2.034   4.315   1.042 -0.2293 -0.4108  0.2513
 3271SOL     OW14659   0.775   4.729   9.060  0.3124 -0.0199 -0.3055
 3271SOL    HW114660   0.859   4.707   9.021  1.0944  0.3435  1.1167
 3271SOL    HW214661   0.711   4.678   9.011  1.4473 -0.8818 -0.9121
 3272SOL     OW14662   1.533   4.328   9.036  0.2351  0.2169 -0.0957
 3272SOL    HW114663   1.470   4.261   9.009 -0.7878  0.6967  1.0676
 3272SOL    HW214664   1.538   4.320   9.131 -0.2376  2.0763  0.1031
 3273SOL     OW14665   0.551   4.053   5.838  0.4170  0.6193 -0.5899
 3273SOL    HW114666   0.512   4.012   5.760  1.7449 -0.4593 -0.7176
 3273SOL    HW214667   0.505   4.136   5.847 -0.4985  0.2765 -1.9034
 3274SOL     OW14668   1.068   3.971   8.059 -0.2036 -0.1547 -0.0488
 3274SOL    HW114669   0.986   3.985   8.106 -0.4327 -0.3054 -0.3967
 3274SOL    HW214670   1.048   3.899   7.999 -0.5048  1.3341 -1.7650
 3275SOL     OW14671   9.296   3.204   7.925  0.1466 -0.2144  0.5783
 3275SOL    HW114672   9.295   3.114   7.894 -0.3457  0.1114 -0.3805
 3275SOL    HW214673   9.339   3.253   7.855 -0.8994  0.5166  0.4427
 3276SOL     OW14674   0.480   5.190   8.029 -0.3753  0.4456  0.7022
 3276SOL    HW114675   0.392   5.173   8.063 -0.0215 -0.4709  1.1738
 3276SOL    HW214676   0.467   5.199   7.934 -0.6708 -2.0197  0.4671
 3277SOL     OW14677   8.917   3.321   8.555  0.3505 -0.5476 -0.7274
 3277SOL    HW114678   8.901   3.377   8.479 -0.9200  0.1131  0.0012
 3277SOL    HW214679   8.890   3.234   8.527  1.7299 -0.6989 -1.6582
 3278SOL     OW14680   1.395   3.715   8.413 -0.3499  0.3505  0.2575
 3278SOL    HW114681   1.383   3.624   8.439  0.9235  0.1464  0.1693
 3278SOL    HW214682   1.306   3.751   8.408 -0.8699 -0.9488  0.0395
 3279SOL     OW14683   1.451   4.714   8.930 -0.1029 -0.1569  0.8181
 3279SOL    HW114684   1.413   4.680   8.849  0.1871  0.3162  0.4777
 3279SOL    HW214685   1.537   4.672   8.935  0.8980  1.6820 -0.4106
 3280SOL     OW14686   1.246   6.333   9.114 -0.5771 -0.4764 -0.0148
 3280SOL    HW114687   1.274   6.288   9.193 -0.4230 -0.3140  0.0251
 3280SOL    HW214688   1.180   6.396   9.143  0.0468  0.1306  0.1054
 3281SOL     OW14689   2.258   5.206   8.389  0.9649  0.2191  0.0128
 3281SOL    HW114690   2.343   5.161   8.387  0.3704 -1.0074  1.4514
 3281SOL    HW214691   2.254   5.245   8.477  0.0585  0.3467 -0.0872
 3282SOL     OW14692   0.295   4.897   8.077 -0.1219  0.5397 -0.0150
 3282SOL    HW114693   0.341   4.842   8.013 -1.4287 -1.1260  0.4210
 3282SOL    HW214694   0.210   4.915   8.037 -0.7160 -0.0028  0.9736
 3283SOL     OW14695   8.519   3.954   9.270 -0.2388  0.1172 -0.1814
 3283SOL    HW114696   8.517   3.900   9.191 -0.5725 -0.1645  0.0177
 3283SOL    HW214697   8.608   3.989   9.273 -0.4452  0.7609 -1.1141
 3284SOL     OW14698   2.719   3.022   7.371  0.4225 -0.0020  0.2195
 3284SOL    HW114699   2.680   3.107   7.393  0.5648  0.5546 -1.6220
 3284SOL    HW214700   2.717   2.973   7.454  0.1251  1.6993  1.2439
 3285SOL     OW14701   2.535   4.648   8.540 -0.5936 -0.2136  0.4188
 3285SOL    HW114702   2.450   4.674   8.503 -1.3441 -2.1103  0.7046
 3285SOL    HW214703   2.512   4.608   8.624  0.4572 -1.7884 -0.0304
 3286SOL     OW14704   0.423   4.575   8.533  0.5221  0.0400  0.2047
 3286SOL    HW114705   0.512   4.570   8.567 -0.5724 -1.4878  2.9923
 3286SOL    HW214706   0.372   4.612   8.605 -1.0562  1.3190 -1.5058
 3287SOL     OW14707   0.986   3.728   9.245 -0.3989 -0.1121  0.0009
 3287SOL    HW114708   0.895   3.699   9.251 -0.4447  0.1828  0.7567
 3287SOL    HW214709   0.998   3.749   9.153 -1.3798  0.7643  0.0661
 3288SOL     OW14710   0.370   7.332   0.160 -0.2362 -0.2324  0.4779
 3288SOL    HW114711   0.446   7.345   0.102  0.6653 -1.8041  1.2806
 3288SOL    HW214712   0.307   7.284   0.106  0.1672 -0.7218  0.4325
 3289SOL     OW14713   1.747   3.766   9.369 -0.1264 -0.0139 -0.0218
 3289SOL    HW114714   1.841   3.782   9.359 -0.5559  1.9982 -1.1255
 3289SOL    HW214715   1.733   3.680   9.330  0.9417  0.5832 -1.7797
 3290SOL     OW14716   3.883   3.500   9.083 -0.0086 -0.2667  0.1996
 3290SOL    HW114717   3.918   3.487   8.995 -0.1559  3.8785 -0.5401
 3290SOL    HW214718   3.942   3.563   9.124 -1.6363  0.1169  2.0330
 3291SOL     OW14719   0.051   6.279   9.154 -0.5760  0.2066 -0.1855
 3291SOL    HW114720   0.126   6.328   9.189 -0.5978 -0.8068  1.3168
 3291SOL    HW214721   0.066   6.277   9.059  0.0004  2.1448 -0.1570
 3292SOL     OW14722   1.613   4.486   9.357 -0.8782 -0.8247 -0.0927
 3292SOL    HW114723   1.706   4.465   9.361 -1.1015 -1.8106  0.0319
 3292SOL    HW214724   1.609   4.569   9.310  0.1573 -0.1770  0.9332
 3293SOL     OW14725   2.312   3.344   6.931  0.2996 -0.0377  1.0298
 3293SOL    HW114726   2.274   3.410   6.873 -0.1413 -0.4434  0.8580
 3293SOL    HW214727   2.332   3.270   6.874  0.7986 -0.0510  1.2211
 3294SOL     OW14728   1.178   4.292   8.411  0.4789 -0.1963  0.6500
 3294SOL    HW114729   1.188   4.197   8.402 -0.9847 -0.2619 -0.3152
 3294SOL    HW214730   1.194   4.327   8.324 -1.2779  0.2457  0.4953
 3295SOL     OW14731   9.843   4.639   8.970 -0.1630 -0.1732 -0.3404
 3295SOL    HW114732   9.820   4.570   9.033  0.7846 -0.1070  0.1010
 3295SOL    HW214733   9.938   4.648   8.980  0.0239 -0.3388 -1.9722
 3296SOL     OW14734   0.783   4.293   9.088  0.4168  0.0977 -0.5034
 3296SOL    HW114735   0.763   4.330   9.174  1.2783  0.5241 -0.4787
 3296SOL    HW214736   0.712   4.231   9.071  0.8702 -0.8642  1.0429
 3297SOL     OW14737   0.098   4.514   9.120  0.3854 -0.1883  0.2944
 3297SOL    HW114738   0.152   4.567   9.179 -0.3079 -0.6927  1.4088
 3297SOL    HW214739   0.074   4.438   9.173  1.8288 -1.9103 -1.4374
 3298SOL     OW14740   1.610   5.446   8.877 -0.1981 -0.1155 -0.5368
 3298SOL    HW114741   1.622   5.452   8.782 -0.3414 -1.5255 -0.6564
 3298SOL    HW214742   1.640   5.530   8.910  1.1534 -0.1088 -1.7218
 3299SOL     OW14743   1.065   4.226   8.919 -0.1165  0.3239 -0.2232
 3299SOL    HW114744   1.061   4.312   8.961  2.1306  0.1911  0.3618
 3299SOL    HW214745   1.042   4.164   8.988  1.1545  0.2816  0.1878
 3300SOL     OW14746   1.894   4.067   0.041 -0.0262  0.3291  0.2712
 3300SOL    HW114747   1.804   4.040   0.023  0.4269 -1.0401  0.0445
 3300SOL    HW214748   1.901   4.154   0.000 -0.6441 -0.4088 -1.4759
 3301SOL     OW14749   0.489   4.502   7.222 -0.1378 -0.0572 -0.0541
 3301SOL    HW114750   0.429   4.483   7.150 -1.1653  0.6712  0.6013
 3301SOL    HW214751   0.572   4.524   7.178 -0.4917 -0.5206 -0.9762
 3302SOL     OW14752   0.063   6.763   9.119 -0.7064 -0.6477  0.1555
 3302SOL    HW114753   0.125   6.821   9.163 -0.7442 -0.7358  0.3303
 3302SOL    HW214754   0.011   6.821   9.063 -0.4956 -0.5698  0.0428
 3303SOL     OW14755   0.779   3.702   9.477  0.9133  0.0921 -0.1282
 3303SOL    HW114756   0.807   3.610   9.477 -0.5986 -0.3800  0.7152
 3303SOL    HW214757   0.753   3.720   9.387  1.4600 -0.2176 -0.3514
 3304SOL     OW14758   2.656   3.622   7.998  0.3837  0.3090 -0.2971
 3304SOL    HW114759   2.589   3.690   7.992  0.0844  0.1296  0.8558
 3304SOL    HW214760   2.633   3.561   7.927 -1.2182 -0.2123  0.6362
 3305SOL     OW14761   1.433   3.856   9.278  0.1935  0.2070 -0.0852
 3305SOL    HW114762   1.348   3.822   9.306 -0.4362  0.2527 -1.8544
 3305SOL    HW214763   1.454   3.804   9.201 -0.5242  3.3904 -2.5464
 3306SOL     OW14764   9.798   4.398   7.179  0.3741 -0.2343  0.0224
 3306SOL    HW114765   9.795   4.383   7.085 -0.4223 -1.0448  0.1642
 3306SOL    HW214766   9.891   4.392   7.201  0.7122  1.3667 -0.9192
 3307SOL     OW14767   1.713   4.864   7.968  0.1921  0.5225  0.3965
 3307SOL    HW114768   1.724   4.769   7.976 -0.2966  0.5454  1.3636
 3307SOL    HW214769   1.648   4.886   8.035  0.9589  1.6673  0.7602
 3308SOL     OW14770   0.078   4.268   9.219 -0.1098 -0.0975 -0.0620
 3308SOL    HW114771   0.094   4.289   9.311 -0.0574 -0.1368 -0.0623
 3308SOL    HW214772   0.033   4.183   9.221  2.1156 -1.3132 -0.1935
 3309SOL     OW14773   1.325   4.640   8.706 -0.2241  0.1742 -0.2710
 3309SOL    HW114774   1.249   4.692   8.733  0.0366  0.0807  0.6518
 3309SOL    HW214775   1.290   4.578   8.642 -0.8102  0.5190 -0.2862
 3310SOL     OW14776   9.458   6.972   9.476  0.2318  0.1485 -0.2971
 3310SOL    HW114777   9.526   7.037   9.491  1.0679 -0.6741 -0.4837
 3310SOL    HW214778   9.497   6.909   9.415 -1.5980  1.0898 -2.5413
 3311SOL     OW14779   0.170   6.016   9.085  0.4262 -0.0629 -0.6067
 3311SOL    HW114780   0.165   5.995   8.992 -2.8195 -0.6392 -0.3439
 3311SOL    HW214781   0.126   6.100   9.093 -0.1174 -0.4467  0.5379
 3312SOL     OW14782   0.505   3.788   9.850  0.0183  0.1405  0.6686
 3312SOL    HW114783   0.527   3.878   9.826 -0.2661  0.0413  0.0199
 3312SOL    HW214784   0.586   3.739   9.835  0.4328  0.4481  1.8869
 3313SOL     OW14785   2.420   5.646   0.566  0.0466  0.7722  0.3039
 3313SOL    HW114786   2.359   5.573   0.571 -1.1103  1.5454 -1.8619
 3313SOL    HW214787   2.372   5.721   0.600  0.0635  1.1966 -0.5795
 3314SOL     OW14788   8.537   6.560   0.473  0.2021 -0.1185 -0.8317
 3314SOL    HW114789   8.509   6.631   0.415 -1.5603 -0.8963 -0.9570
 3314SOL    HW214790   8.632   6.554   0.458 -0.1575 -0.1126 -3.4535
 3315SOL     OW14791   1.505   5.232   8.276 -0.0514 -0.3973 -0.2357
 3315SOL    HW114792   1.525   5.276   8.193 -2.2386  0.2575 -0.4458
 3315SOL    HW214793   1.553   5.282   8.342  1.2216 -0.5526 -1.0340
 3316SOL     OW14794   3.567   5.338   1.807  0.7151 -0.0767  0.7832
 3316SOL    HW114795   3.566   5.308   1.716  1.6527 -0.1128  0.7785
 3316SOL    HW214796   3.505   5.280   1.852  0.6246 -0.3864  0.2671
 3317SOL     OW14797   9.176   5.822   0.010 -0.0237 -0.1392 -0.1828
 3317SOL    HW114798   9.270   5.809   0.023  0.0332 -0.7788 -1.1695
 3317SOL    HW214799   9.165   5.917   0.002  0.3482  0.0401  1.3072
 3318SOL     OW14800   9.824   3.836   9.863  0.0174 -0.0431  0.0115
 3318SOL    HW114801   9.832   3.768   9.929  1.4117  1.0103  0.9618
 3318SOL    HW214802   9.784   3.910   9.909 -1.7191 -0.2726 -1.0739
 3319SOL     OW14803   2.284   6.800   2.434 -0.2117 -0.2552  0.2208
 3319SOL    HW114804   2.318   6.735   2.494 -0.7126  0.6345  1.4920
 3319SOL    HW214805   2.355   6.863   2.423 -0.5256  0.2095  0.8190
 3320SOL     OW14806   2.454   5.451   8.622 -0.2028 -0.2568 -0.3024
 3320SOL    HW114807   2.484   5.371   8.579  0.5921  0.3572 -0.8975
 3320SOL    HW214808   2.397   5.493   8.557 -1.7084 -0.9995  0.5098
 3321SOL     OW14809   9.915   4.919   0.351  0.4350  0.0779 -0.2180
 3321SOL    HW114810   9.898   4.937   0.443  0.5189  2.2381 -0.6055
 3321SOL    HW214811   9.957   4.833   0.351  1.0014  0.3264  1.8084
 3322SOL     OW14812   1.157   3.868   8.971  0.1595 -0.0855  0.2324
 3322SOL    HW114813   1.092   3.832   8.911  0.0923  0.3518  0.0399
 3322SOL    HW214814   1.121   3.953   8.997  0.6827  0.1849  0.0803
 3323SOL     OW14815   2.387   6.103   8.946 -0.2478 -0.0664 -0.5926
 3323SOL    HW114816   2.352   6.187   8.916  0.0308  0.8156  1.4651
 3323SOL    HW214817   2.318   6.066   9.001  0.8719  0.3554  1.1597
 3324SOL     OW14818   0.078   6.110   9.808  0.6496 -0.4721 -0.4980
 3324SOL    HW114819   0.038   6.023   9.802 -0.0636 -0.1727 -0.2117
 3324SOL    HW214820   0.137   6.115   9.733  0.7929 -1.2516 -0.4431
 3325SOL     OW14821   7.369   5.555   9.088 -0.0680 -0.1056  0.1383
 3325SOL    HW114822   7.350   5.647   9.104  0.9790 -0.2190  2.2015
 3325SOL    HW214823   7.302   5.508   9.137 -0.4852 -0.4607 -0.7518
 3326SOL     OW14824   9.917   6.000   0.047  0.1544  0.0969  0.1024
 3326SOL    HW114825   9.982   6.000   0.118  0.9171 -0.3390 -0.5899
 3326SOL    HW214826   9.968   5.983  -0.032 -0.5972  1.3215 -0.6549
 3327SOL     OW14827   0.354   4.702   1.504  0.1373  0.2074 -0.2330
 3327SOL    HW114828   0.349   4.744   1.590  0.5281 -0.6416  0.2122
 3327SOL    HW214829   0.434   4.650   1.508  0.6389  0.8655 -1.4354
 3328SOL     OW14830   2.897   6.633   0.524  0.0068  0.4607 -0.0272
 3328SOL    HW114831   2.873   6.542   0.541 -2.0148  0.7998 -0.9477
 3328SOL    HW214832   2.926   6.667   0.608  0.0826 -0.8315  0.4724
 3329SOL     OW14833   0.142   6.192   0.054 -0.0848 -0.2764 -0.2574
 3329SOL    HW114834   0.237   6.199   0.067 -0.0376  2.7663 -2.0147
 3329SOL    HW214835   0.132   6.159  -0.035 -0.6923  0.0406 -0.3077
 3330SOL     OW14836   0.779   4.031   9.308  0.5028 -0.6204 -0.7587
 3330SOL    HW114837   0.719   4.070   9.373  1.9832  0.5589 -0.0748
 3330SOL    HW214838   0.759   3.938   9.311 -1.6927 -0.1920 -0.9390
 3331SOL     OW14839   0.313   4.558   8.937 -0.5249  0.3559  0.2983
 3331SOL    HW114840   0.241   4.541   8.997  0.0794  2.0830  1.5653
 3331SOL    HW214841   0.271   4.593   8.859 -1.0958  1.0991  0.9316
 3332SOL     OW14842   0.481   4.354   9.167  0.2584  0.6629  0.7513
 3332SOL    HW114843   0.549   4.313   9.220 -0.1429  0.7791  1.3582
 3332SOL    HW214844   0.452   4.429   9.219  0.6095  1.3990 -0.1091
 3333SOL     OW14845   0.840   4.079   0.263  0.0501  0.0967  0.7476
 3333SOL    HW114846   0.766   4.036   0.221  0.4310 -1.2433  1.4129
 3333SOL    HW214847   0.917   4.042   0.220  0.4056 -0.4406  1.8081
 3334SOL     OW14848   2.239   5.727   8.886  0.1915  0.1750 -0.2890
 3334SOL    HW114849   2.307   5.665   8.912 -0.8379 -0.9047 -0.1196
 3334SOL    HW214850   2.199   5.755   8.968  1.3046  1.8481 -0.2950
 3335SOL     OW14851   8.808   3.195   9.854  0.0190  0.0936  0.2429
 3335SOL    HW114852   8.849   3.232   9.932  1.4234 -0.1224 -0.3896
 3335SOL    HW214853   8.844   3.246   9.781  1.1745 -1.7911 -0.5511
 3336SOL     OW14854   9.221   5.830   0.419  0.1673 -0.7724  0.1315
 3336SOL    HW114855   9.266   5.907   0.454  3.0114 -2.7682  1.0262
 3336SOL    HW214856   9.177   5.791   0.494 -1.0413 -0.2189 -0.2690
 3337SOL     OW14857   0.324   5.795   9.913  0.5444  0.5477  0.8482
 3337SOL    HW114858   0.286   5.731   9.973 -0.4201 -1.2280 -1.5780
 3337SOL    HW214859   0.418   5.776   9.914  0.4438  0.0731  1.3001
 3338SOL     OW14860   1.590   6.363   0.562  0.0024  0.6269  0.1657
 3338SOL    HW114861   1.557   6.345   0.651  1.6815  0.9719  0.8661
 3338SOL    HW214862   1.614   6.456   0.564 -0.2117  0.7001 -0.7418
 3339SOL     OW14863   2.566   4.491   9.292  0.8581 -0.2049 -0.0640
 3339SOL    HW114864   2.494   4.514   9.351  2.5623  1.6744  1.3383
 3339SOL    HW214865   2.562   4.396   9.286 -0.7882 -0.2456  1.2057
 3340SOL     OW14866   1.730   6.128   0.402 -0.1237  0.4571 -0.1019
 3340SOL    HW114867   1.688   6.189   0.462 -0.1796 -0.4175  0.7647
 3340SOL    HW214868   1.662   6.107   0.337  0.2955  2.2988 -1.1695
 3341SOL     OW14869   0.092   5.140   1.202  0.2855 -0.4677 -0.6287
 3341SOL    HW114870  -0.001   5.145   1.223  0.5554 -2.2586  1.0466
 3341SOL    HW214871   0.095   5.154   1.107 -1.5563  0.7951 -0.5399
 3342SOL     OW14872   0.169   5.559   8.440 -0.2699  1.0713 -0.3186
 3342SOL    HW114873   0.241   5.570   8.378  0.6083  0.3359  0.5449
 3342SOL    HW214874   0.106   5.503   8.394  0.1396  0.9496 -0.7387
 3343SOL     OW14875   9.416   5.242   9.698  0.0152  0.7657  0.3091
 3343SOL    HW114876   9.397   5.223   9.790 -1.2415  0.5103 -0.0014
 3343SOL    HW214877   9.359   5.183   9.648  0.4882  1.0911 -0.6359
 3344SOL     OW14878   0.482   4.623   1.079  0.1762  1.0210  0.0477
 3344SOL    HW114879   0.435   4.548   1.115  2.1416 -0.5160 -0.4986
 3344SOL    HW214880   0.465   4.620   0.985  1.1138  0.6305 -0.1134
 3345SOL     OW14881   1.841   3.823   9.968 -0.0055 -0.4590  0.2973
 3345SOL    HW114882   1.821   3.792  10.056  1.2766  0.0017  0.7672
 3345SOL    HW214883   1.902   3.896   9.982 -0.6077  0.2947 -0.9211
 3346SOL     OW14884   1.069   3.726   9.940  0.0325 -0.3534  0.2966
 3346SOL    HW114885   1.036   3.765   9.859  2.2235  0.0552 -0.4399
 3346SOL    HW214886   1.115   3.797   9.984  1.1043 -1.2345  0.6271
 3347SOL     OW14887   9.791   1.810   1.797 -0.4767  0.0644 -0.8446
 3347SOL    HW114888   9.697   1.800   1.812 -0.4871  0.9301 -0.2817
 3347SOL    HW214889   9.812   1.748   1.728 -1.0305 -1.8499  0.6673
 3348SOL     OW14890   1.326   3.555   9.824 -0.4677  0.2928 -0.6614
 3348SOL    HW114891   1.374   3.627   9.864 -1.6395 -0.2410  1.8028
 3348SOL    HW214892   1.385   3.480   9.832 -0.2501  0.4294 -0.9696
 3349SOL     OW14893   0.615   4.050   0.081  0.2882  0.6113 -0.1310
 3349SOL    HW114894   0.703   4.044   0.044  0.3487 -1.7485  0.3183
 3349SOL    HW214895   0.557   4.060   0.005  0.6973 -0.9554 -0.6780
 3350SOL     OW14896   1.601   5.125   0.123 -0.4404  0.2420 -0.0131
 3350SOL    HW114897   1.514   5.149   0.091 -0.7259 -0.2898  0.3543
 3350SOL    HW214898   1.593   5.129   0.219  0.2259  1.2073  0.0086
 3351SOL     OW14899   9.272   4.778   0.829  0.5609 -0.0408 -0.2405
 3351SOL    HW114900   9.206   4.744   0.890  0.8119  0.7639  0.4889
 3351SOL    HW214901   9.354   4.776   0.878  0.7059  0.9155 -0.4253
 3352SOL     OW14902   0.868   6.016   9.018  0.6749 -0.1246  0.5541
 3352SOL    HW114903   0.863   5.979   9.106 -0.4101 -1.7729 -0.1668
 3352SOL    HW214904   0.776   6.028   8.992  0.9839  0.2935 -0.3819
 3353SOL     OW14905   1.490   4.269   0.535 -0.1006 -0.0613 -0.1705
 3353SOL    HW114906   1.573   4.271   0.489  0.7094 -0.0676  1.2630
 3353SOL    HW214907   1.448   4.188   0.506  0.2017  0.1483 -1.2068
 3354SOL     OW14908   1.564   4.721   0.474 -0.5074 -0.7140  0.0816
 3354SOL    HW114909   1.638   4.673   0.512 -0.0057  0.5763  0.7659
 3354SOL    HW214910   1.603   4.801   0.439 -1.8185  0.9671  2.2711
 3355SOL     OW14911   9.026   5.040   8.312  0.0697 -0.2817 -0.0536
 3355SOL    HW114912   9.090   5.092   8.264  0.5193 -1.1442 -0.3961
 3355SOL    HW214913   9.079   4.976   8.360 -0.5517 -1.2076 -0.5909
 3356SOL     OW14914   2.645   6.127   8.647  0.3790 -0.2054 -0.4499
 3356SOL    HW114915   2.561   6.103   8.686  0.5043 -1.9184 -1.1640
 3356SOL    HW214916   2.701   6.146   8.721  0.2610 -2.2291  0.2005
 3357SOL     OW14917   2.764   4.972   9.212 -0.4260  0.3530 -0.4885
 3357SOL    HW114918   2.792   5.061   9.190 -0.5623  0.2935 -0.9051
 3357SOL    HW214919   2.837   4.917   9.183 -0.2267  0.3474  0.0066
 3358SOL     OW14920   2.071   5.335   6.597  0.1665  0.2667  0.2150
 3358SOL    HW114921   2.085   5.352   6.504  1.2060  1.9438  0.6442
 3358SOL    HW214922   2.076   5.240   6.605 -2.1526 -0.0770 -1.7647
 3359SOL     OW14923   9.734   4.614   0.240 -0.4882 -0.1729  0.2968
 3359SOL    HW114924   9.807   4.643   0.185 -0.0054 -0.8267  0.5886
 3359SOL    HW214925   9.776   4.566   0.311 -1.1419  0.3301  1.0199
 3360SOL     OW14926   0.393   6.367   9.796 -0.1954  0.0798 -0.2443
 3360SOL    HW114927   0.367   6.286   9.752  0.2869 -0.4043  0.3349
 3360SOL    HW214928   0.362   6.437   9.739 -1.7172 -0.4927 -0.1247
 3361SOL     OW14929   9.664   3.981   1.111 -0.0957 -0.2409 -0.2076
 3361SOL    HW114930   9.713   4.002   1.191 -1.3360  0.2505  0.4316
 3361SOL    HW214931   9.684   3.889   1.094  0.6813 -0.1694  0.3043
 3362SOL     OW14932   9.523   6.293   1.224 -0.6111 -0.3656  0.0480
 3362SOL    HW114933   9.429   6.310   1.234 -0.3097  0.9248  0.7469
 3362SOL    HW214934   9.565   6.376   1.244  0.8605 -1.7090  2.7794
 3363SOL     OW14935   2.844   6.584   8.690 -0.0754  0.1005  0.4160
 3363SOL    HW114936   2.776   6.566   8.755  0.2630 -0.6450  0.5695
 3363SOL    HW214937   2.811   6.544   8.610 -0.0002  0.0814  0.3950
 3364SOL     OW14938   9.636   3.946   0.454 -0.1120  0.3805 -0.5292
 3364SOL    HW114939   9.602   3.996   0.528 -3.0599 -0.7009 -1.0978
 3364SOL    HW214940   9.569   3.880   0.437  1.7656 -1.0785 -2.4719
 3365SOL     OW14941   1.063   3.571   0.767  0.4081 -0.3878 -0.6284
 3365SOL    HW114942   1.052   3.492   0.713 -0.1625 -0.9033  0.2241
 3365SOL    HW214943   1.115   3.541   0.842  0.1870  0.0470 -0.3049
 3366SOL     OW14944   1.354   6.392   8.669  0.0345  0.3680 -0.2396
 3366SOL    HW114945   1.341   6.383   8.574  0.7768  0.9392 -0.4022
 3366SOL    HW214946   1.350   6.486   8.685 -0.7554  0.2231  0.4004
 3367SOL     OW14947   9.470   5.777   0.686 -0.0797  0.2848  0.4462
 3367SOL    HW114948   9.400   5.731   0.642  0.0532  0.6867 -0.1957
 3367SOL    HW214949   9.434   5.801   0.771  0.7179 -3.3647  1.9251
 3368SOL     OW14950   9.231   5.023   1.118 -0.0525  0.2431  0.2700
 3368SOL    HW114951   9.283   5.079   1.060 -0.7167 -0.3067 -0.8731
 3368SOL    HW214952   9.178   4.970   1.059 -1.7446  0.6353  1.4117
 3369SOL     OW14953   9.827   5.319   1.544 -0.1877  0.3670  0.2864
 3369SOL    HW114954   9.821   5.295   1.636  0.6658  1.1172  0.5460
 3369SOL    HW214955   9.823   5.415   1.544 -0.6161  0.3551 -0.4927
 3370SOL     OW14956   2.503   3.454   8.244  0.3828  1.0876  0.6783
 3370SOL    HW114957   2.578   3.451   8.303  0.2695  1.1746  0.8263
 3370SOL    HW214958   2.520   3.385   8.180 -1.4700 -1.7699  3.1750
 3371SOL     OW14959   9.894   5.222   9.915  0.2218  0.1168 -0.2623
 3371SOL    HW114960   9.850   5.164   9.977  2.1946 -1.0258  0.0953
 3371SOL    HW214961   9.827   5.240   9.848 -1.0636 -0.8670  0.7240
 3372SOL     OW14962   1.041   5.464   0.077  0.5788  0.1726  0.5463
 3372SOL    HW114963   1.011   5.513   0.153 -0.6110 -0.1386  0.2775
 3372SOL    HW214964   1.014   5.374   0.093  0.7469  0.0144 -0.0253
 3373SOL     OW14965   0.610   6.236   9.150 -0.2591 -0.5450 -0.3816
 3373SOL    HW114966   0.521   6.269   9.162 -0.0630  0.1318 -0.7863
 3373SOL    HW214967   0.598   6.149   9.111 -0.6990  0.1278 -1.7530
 3374SOL     OW14968   9.319   6.840   0.111  0.1668  0.2471 -0.5778
 3374SOL    HW114969   9.402   6.811   0.151  0.3127  1.4753  0.0474
 3374SOL    HW214970   9.264   6.865   0.186 -1.0203 -1.1801 -0.9545
 3375SOL     OW14971   0.378   5.152   2.067  0.0397 -0.3687 -0.0023
 3375SOL    HW114972   0.327   5.143   1.987  1.3459  1.1991 -1.0484
 3375SOL    HW214973   0.450   5.090   2.058  0.0351 -0.3862  0.0766
 3376SOL     OW14974   0.774   6.979   1.207 -0.9563  0.2500  0.0098
 3376SOL    HW114975   0.816   6.938   1.132  1.6212  0.5536  1.2063
 3376SOL    HW214976   0.721   6.910   1.247  0.0168 -0.7331 -0.3997
 3377SOL     OW14977   1.178   7.935   0.526 -0.4873  0.4670  0.4007
 3377SOL    HW114978   1.098   7.884   0.514  0.0826 -0.2690 -0.3852
 3377SOL    HW214979   1.192   7.937   0.621 -0.7880 -0.4252  0.4676
 3378SOL     OW14980   0.627   5.625   0.241 -0.2055 -0.7122 -0.1952
 3378SOL    HW114981   0.649   5.670   0.159 -1.1113  1.1002  0.5546
 3378SOL    HW214982   0.599   5.538   0.212  5.0598 -2.1996 -1.3980
 3379SOL     OW14983   1.080   7.390   0.464 -0.5830 -0.3181  0.1284
 3379SOL    HW114984   1.017   7.433   0.522 -1.3558 -0.7813 -0.3616
 3379SOL    HW214985   1.036   7.385   0.380  1.2927  2.1321 -1.0418
 3380SOL     OW14986   0.495   6.977   0.969 -0.6073  0.2647  0.4072
 3380SOL    HW114987   0.580   7.017   0.953 -1.2409  0.5699 -2.4971
 3380SOL    HW214988   0.466   6.947   0.883 -2.8267 -1.0746  1.5749
 3381SOL     OW14989   0.381   6.776   2.750  0.0159  0.0977 -0.2925
 3381SOL    HW114990   0.337   6.844   2.699 -0.4089  0.1137  0.0904
 3381SOL    HW214991   0.474   6.795   2.739 -0.0022 -0.8604 -2.3575
 3382SOL     OW14992   0.039   7.897   1.046  0.5787  0.3311  0.3411
 3382SOL    HW114993   0.095   7.878   1.121 -0.3148 -0.0132  0.9236
 3382SOL    HW214994   0.091   7.957   0.992  1.9560 -0.8617  0.3000
 3383SOL     OW14995   0.068   6.294   1.126 -0.7385 -0.9143 -0.3803
 3383SOL    HW114996  -0.019   6.270   1.157 -0.8769  0.3491  0.2309
 3383SOL    HW214997   0.053   6.352   1.052 -0.4642  1.2262  1.1942
 3384SOL     OW14998   9.873   6.573   0.656  0.0186  0.6591 -0.2188
 3384SOL    HW114999   9.944   6.636   0.670 -0.7791  1.6841 -0.7257
 3384SOL    HW215000   9.793   6.624   0.665 -0.7333 -0.7729  1.8187
 3385SOL     OW15001   2.039   6.796   2.090 -0.5618  0.1509  0.1720
 3385SOL    HW115002   2.017   6.878   2.135  1.9052  0.7834  0.2975
 3385SOL    HW215003   2.024   6.728   2.155 -0.1830  0.7453  0.8872
 3386SOL     OW15004   9.612   4.292   1.718  0.3114 -0.0048 -0.2586
 3386SOL    HW115005   9.544   4.300   1.652  0.7403  0.1845 -0.6865
 3386SOL    HW215006   9.629   4.382   1.746 -1.9111 -0.3066  2.2410
 3387SOL     OW15007   2.332   6.427   0.356 -0.4852  0.2809  0.4115
 3387SOL    HW115008   2.318   6.456   0.446 -2.9643 -0.4858  0.3252
 3387SOL    HW215009   2.245   6.397   0.328  0.8686 -2.2488 -1.2266
 3388SOL     OW15010   1.583   8.348   9.957  0.5174  0.7680  0.5705
 3388SOL    HW115011   1.586   8.442   9.978 -1.0814  1.0339 -0.3027
 3388SOL    HW215012   1.621   8.342   9.870 -0.7496  0.7989  0.0153
 3389SOL     OW15013   2.384   6.996   3.162  0.1470  0.1830 -0.3217
 3389SOL    HW115014   2.326   6.962   3.094  0.3763  0.8298 -0.8529
 3389SOL    HW215015   2.360   7.089   3.168 -0.1465  0.0357  0.7602
 3390SOL     OW15016   0.811   8.010   1.970  0.0142 -0.3809 -0.2847
 3390SOL    HW115017   0.814   7.916   1.990  0.7861  0.1458  2.2755
 3390SOL    HW215018   0.718   8.029   1.958 -0.1794 -1.3922 -0.4278
 3391SOL     OW15019   9.949   7.318   0.255 -0.0077  0.6906 -0.1561
 3391SOL    HW115020   9.957   7.245   0.193 -1.7811  1.8605 -1.8187
 3391SOL    HW215021  10.026   7.309   0.312  0.4743 -1.7260 -1.1042
 3392SOL     OW15022   2.713   6.247   0.234  0.3477  0.3623  0.1416
 3392SOL    HW115023   2.686   6.329   0.192  0.6382  0.6007  0.4199
 3392SOL    HW215024   2.802   6.264   0.264 -0.1627  0.4787  1.6217
 3393SOL     OW15025   0.269   5.868   0.600  0.3867 -0.0037 -0.7712
 3393SOL    HW115026   0.191   5.855   0.654  1.4116 -1.2507  0.4216
 3393SOL    HW215027   0.318   5.937   0.645  1.5874 -1.5306  0.3257
 3394SOL     OW15028   1.074   7.532   1.200 -0.0539 -0.1035  0.3233
 3394SOL    HW115029   1.087   7.504   1.290  0.1006  0.1785  0.3891
 3394SOL    HW215030   0.998   7.590   1.204  0.7021  0.8829  0.4686
 3395SOL     OW15031   8.491   7.480   0.824  0.4520  0.4105 -0.0042
 3395SOL    HW115032   8.434   7.543   0.780 -0.0663  0.7382  1.1228
 3395SOL    HW215033   8.431   7.423   0.874  1.0867  0.7390  1.1599
 3396SOL     OW15034   1.128   6.040   2.461 -0.0502 -0.1338  0.2485
 3396SOL    HW115035   1.211   6.030   2.413 -0.6863  0.6684 -1.0522
 3396SOL    HW215036   1.153   6.078   2.545  0.8858  0.1805 -0.1636
 3397SOL     OW15037   2.456   5.819   1.826 -0.3918 -0.1125  0.0615
 3397SOL    HW115038   2.372   5.797   1.786  0.4016 -1.4083 -0.9516
 3397SOL    HW215039   2.501   5.872   1.760  0.0536 -0.4402  0.0944
 3398SOL     OW15040   9.767   6.547   3.984 -0.2289 -0.3395  0.3244
 3398SOL    HW115041   9.736   6.603   3.913  1.5880  0.3946  0.0792
 3398SOL    HW215042   9.843   6.502   3.948 -1.3346 -2.6046  0.6984
 3399SOL     OW15043   9.563   7.292   9.591  0.1133 -0.0373 -0.1437
 3399SOL    HW115044   9.653   7.313   9.566  0.4521 -0.8156  0.4082
 3399SOL    HW215045   9.567   7.201   9.622 -0.5361  0.4988  1.5248
 3400SOL     OW15046   0.881   6.786   2.070  0.8026  0.4036  0.6445
 3400SOL    HW115047   0.913   6.861   2.019 -0.7547 -0.3438 -1.4613
 3400SOL    HW215048   0.834   6.827   2.143 -0.5854  1.4906 -0.8345
 3401SOL     OW15049   0.418   6.047   0.438 -0.7039 -0.1143  0.6741
 3401SOL    HW115050   0.471   6.099   0.378  0.6098 -3.0214 -0.7629
 3401SOL    HW215051   0.413   6.101   0.518  1.9503  1.4754 -0.1765
 3402SOL     OW15052   9.103   7.215   1.748 -0.5403  0.1396  0.0261
 3402SOL    HW115053   9.075   7.139   1.799 -2.3439  2.3252  2.4265
 3402SOL    HW215054   9.193   7.231   1.776 -0.1544 -1.0271 -0.4728
 3403SOL     OW15055   0.684   5.305   0.127  0.7448 -0.0644  0.1197
 3403SOL    HW115056   0.717   5.295   0.216 -0.8049  2.2502  0.9895
 3403SOL    HW215057   0.624   5.231   0.115  1.4477 -0.7442  0.7467
 3404SOL     OW15058   2.445   7.927   3.358  0.4484  0.3145 -0.3813
 3404SOL    HW115059   2.514   7.932   3.424  0.0012  2.4134 -0.0170
 3404SOL    HW215060   2.449   8.012   3.313 -0.7933 -0.1841 -1.4532
 3405SOL     OW15061   1.300   6.786   2.468 -0.0941  0.1006  0.2217
 3405SOL    HW115062   1.389   6.778   2.434 -0.0136  0.3857  0.3588
 3405SOL    HW215063   1.244   6.766   2.394  0.0837 -1.4864  0.4982
 3406SOL     OW15064   2.209   7.151   9.452  0.3191  0.2630  0.0300
 3406SOL    HW115065   2.172   7.208   9.384 -0.0032 -0.3830 -0.3418
 3406SOL    HW215066   2.134   7.100   9.483  0.8949 -1.1130 -0.7827
 3407SOL     OW15067   1.145   6.859   1.582 -0.7250  0.1348  0.2755
 3407SOL    HW115068   1.060   6.889   1.551 -2.6654 -1.7428  3.5499
 3407SOL    HW215069   1.151   6.769   1.551 -0.4114 -0.0768  0.9475
 3408SOL     OW15070   1.941   7.541   0.617 -0.9767 -0.3231  0.1282
 3408SOL    HW115071   1.963   7.618   0.670 -0.3241  1.0408 -2.0564
 3408SOL    HW215072   1.850   7.555   0.591 -0.7632 -0.0977 -0.5261
 3409SOL     OW15073   0.690   6.173   1.097  0.0048  0.1018 -0.1117
 3409SOL    HW115074   0.650   6.223   1.026  1.5209  0.0458 -1.0369
 3409SOL    HW215075   0.736   6.102   1.054  3.6611  1.8962  0.5863
 3410SOL     OW15076   1.531   5.830   1.964 -0.9025  0.2401 -0.0127
 3410SOL    HW115077   1.583   5.781   1.900 -0.6876 -1.5551  1.4969
 3410SOL    HW215078   1.551   5.922   1.947 -0.3832 -0.2354 -2.1142
 3411SOL     OW15079   0.882   6.361   1.498  0.2289 -0.1467  0.2484
 3411SOL    HW115080   0.887   6.275   1.540  1.2605 -0.2770 -0.1151
 3411SOL    HW215081   0.884   6.423   1.571  1.1838 -0.3941  0.4425
 3412SOL     OW15082   1.631   6.495   9.573 -0.2617 -0.1110 -0.0110
 3412SOL    HW115083   1.548   6.450   9.563 -0.0722 -0.0550 -1.9633
 3412SOL    HW215084   1.696   6.435   9.535  0.3252  0.6613 -0.2467
 3413SOL     OW15085   1.361   6.903   0.250 -0.0092 -0.5822  0.1758
 3413SOL    HW115086   1.387   6.990   0.282  0.0738 -0.3821 -0.4265
 3413SOL    HW215087   1.289   6.877   0.306  0.6440 -0.5748  1.0341
 3414SOL     OW15088   9.530   6.078   0.239  0.2109  0.1293 -0.0325
 3414SOL    HW115089   9.439   6.082   0.270  0.0213  0.4763 -0.6121
 3414SOL    HW215090   9.566   6.000   0.279  0.0564  0.7309  1.2947
 3415SOL     OW15091   9.097   8.099   1.535 -0.0744  0.2610  0.3491
 3415SOL    HW115092   9.113   8.137   1.621  0.1231 -0.2511  0.5395
 3415SOL    HW215093   9.081   8.006   1.552  0.0787  0.1363 -0.1781
 3416SOL     OW15094   1.088   7.002   9.809  0.0954 -0.0028 -0.1312
 3416SOL    HW115095   1.040   6.924   9.783 -1.3528  0.7220  0.3423
 3416SOL    HW215096   1.102   6.993   9.903  0.7733 -0.1457 -0.2406
 3417SOL     OW15097   0.583   5.739   9.939 -0.3503 -0.5148  0.5259
 3417SOL    HW115098   0.619   5.826   9.957 -0.4975  0.0028 -1.5278
 3417SOL    HW215099   0.658   5.680   9.947  0.4492  0.2335 -1.2888
 3418SOL     OW15100   8.386   5.321   9.105 -0.8475 -0.7120  0.6977
 3418SOL    HW115101   8.355   5.399   9.152 -1.9590 -1.2366  0.8356
 3418SOL    HW215102   8.383   5.251   9.170  1.2748 -0.6345  0.9029
 3419SOL     OW15103   2.856   6.751   9.411  0.3694  0.0117  0.1732
 3419SOL    HW115104   2.919   6.679   9.420  0.6771  0.2592  0.0357
 3419SOL    HW215105   2.833   6.751   9.318  0.2373 -0.0232  0.2077
 3420SOL     OW15106   9.941   9.365   0.686  0.3457  0.2844  0.0969
 3420SOL    HW115107  10.016   9.344   0.630  0.5240  0.7854  0.1438
 3420SOL    HW215108   9.956   9.316   0.767  0.4859  0.1732  0.0038
 3421SOL     OW15109   0.722   6.608   0.075 -0.5724  0.3013  0.2911
 3421SOL    HW115110   0.789   6.670   0.104  0.4789 -1.5819  2.0420
 3421SOL    HW215111   0.771   6.533   0.042 -1.8257 -0.4247  0.0245
 3422SOL     OW15112   0.708   5.524   1.797  0.6136  0.1144 -0.1737
 3422SOL    HW115113   0.731   5.606   1.840  0.2374 -0.2738  0.7714
 3422SOL    HW215114   0.782   5.466   1.815  0.0782 -0.3096  0.6435
 3423SOL     OW15115   2.550   6.844   0.090  0.1586 -0.9354  0.0425
 3423SOL    HW115116   2.468   6.877   0.052  0.0887 -0.4411  0.6128
 3423SOL    HW215117   2.529   6.754   0.116 -0.3995 -0.5975  0.7779
 3424SOL     OW15118   0.041   6.103   3.308  0.5192 -0.5205  0.2378
 3424SOL    HW115119   0.039   6.163   3.383 -0.3801 -0.3462  0.0836
 3424SOL    HW215120   0.094   6.148   3.243  1.7781 -0.9175  0.9635
 3425SOL     OW15121   1.389   7.738   0.074 -0.2129  0.0975  0.2283
 3425SOL    HW115122   1.311   7.746   0.130 -1.9085  2.8656 -2.3625
 3425SOL    HW215123   1.369   7.665   0.016 -1.0412  1.0347 -0.6698
 3426SOL     OW15124   9.811   5.319   0.572  0.1305  0.4510 -0.5249
 3426SOL    HW115125   9.782   5.229   0.560  1.7383 -0.2575  0.7319
 3426SOL    HW215126   9.814   5.331   0.666  0.6439  1.5931 -0.6798
 3427SOL     OW15127   1.500   6.666   9.957  0.1067 -0.3703  0.4933
 3427SOL    HW115128   1.510   6.757   9.983 -0.9738 -0.1235  0.0935
 3427SOL    HW215129   1.451   6.626  10.030  1.2203 -0.8130  1.0102
 3428SOL     OW15130   0.503   7.915   9.252  0.2862 -0.1004 -0.1558
 3428SOL    HW115131   0.563   7.958   9.313  0.4608  1.4333 -1.3711
 3428SOL    HW215132   0.558   7.888   9.179 -0.4804  1.4158 -1.3327
 3429SOL     OW15133   0.884   6.404   9.995 -0.0608 -0.0195 -0.2210
 3429SOL    HW115134   0.847   6.324  10.033  2.4366 -1.2879 -0.3695
 3429SOL    HW215135   0.975   6.382   9.976  0.6765  2.8651 -0.2834
 3430SOL     OW15136   1.033   7.948   1.141  0.1174 -0.2011 -0.3986
 3430SOL    HW115137   1.076   7.980   1.220  0.6654  0.2208 -0.8593
 3430SOL    HW215138   1.097   7.889   1.101 -0.1191 -0.3392 -0.5734
 3431SOL     OW15139   1.529   4.297   0.097 -0.0990 -0.4216  0.0579
 3431SOL    HW115140   1.595   4.363   0.119 -0.1183 -0.8256  1.3795
 3431SOL    HW215141   1.464   4.303   0.167 -0.7934 -0.9180 -0.5338
 3432SOL     OW15142   9.213   7.267   2.863 -0.0118  0.1856  0.4057
 3432SOL    HW115143   9.248   7.289   2.949  1.0476  0.1731 -0.0130
 3432SOL    HW215144   9.287   7.276   2.804 -1.1384  1.8443 -0.7822
 3433SOL     OW15145   1.830   8.091   9.363 -0.5061 -0.3722 -0.0615
 3433SOL    HW115146   1.792   8.147   9.431  0.9856  1.0189 -0.3466
 3433SOL    HW215147   1.814   8.138   9.281  0.5580 -0.4630 -0.3278
 3434SOL     OW15148   9.571   5.146   1.508  0.4873  0.1132 -0.2787
 3434SOL    HW115149   9.628   5.098   1.568  0.1431  1.7526  1.4268
 3434SOL    HW215150   9.601   5.237   1.514  0.2206  0.3651 -2.3610
 3435SOL     OW15151   9.738   8.072   1.217  0.3267  0.4647  0.0674
 3435SOL    HW115152   9.788   8.005   1.263  1.7813  0.6179 -1.2602
 3435SOL    HW215153   9.735   8.041   1.126  1.3857  2.4040 -0.6374
 3436SOL     OW15154   1.227   6.300   0.617 -0.2955  0.0281  0.6836
 3436SOL    HW115155   1.175   6.281   0.695  1.2539  1.2069  2.0203
 3436SOL    HW215156   1.305   6.344   0.650  0.0301  1.2245 -1.6069
 3437SOL     OW15157   0.453   6.709   1.550 -0.3262 -0.2989  0.0538
 3437SOL    HW115158   0.454   6.732   1.456 -2.0486 -0.0139  0.0795
 3437SOL    HW215159   0.453   6.614   1.551  0.9437 -0.3082 -0.2046
 3438SOL     OW15160   2.437   5.423   1.797 -0.6437  0.5913 -0.4941
 3438SOL    HW115161   2.503   5.368   1.756 -2.4023 -1.4610 -0.6461
 3438SOL    HW215162   2.484   5.502   1.823  1.9591 -1.0363 -0.1241
 3439SOL     OW15163   0.592   6.051   8.912  0.0636  0.2779  1.1828
 3439SOL    HW115164   0.507   6.079   8.881  0.6293  2.0356  1.1907
 3439SOL    HW215165   0.574   5.971   8.963 -1.1847 -1.0360 -1.2363
 3440SOL     OW15166   1.268   7.130   2.250  0.1650  0.3648  0.2012
 3440SOL    HW115167   1.178   7.100   2.245 -0.2708  1.5831  0.5134
 3440SOL    HW215168   1.305   7.109   2.164 -0.5578  0.2946 -0.0915
 3441SOL     OW15169   1.761   6.746   1.367 -0.1082  0.9656 -0.3281
 3441SOL    HW115170   1.811   6.777   1.292  0.4029 -0.5207 -0.6245
 3441SOL    HW215171   1.721   6.664   1.337 -3.9651  2.8313 -0.6057
 3442SOL     OW15172   2.304   7.701   0.157 -0.5556 -0.5867  0.4328
 3442SOL    HW115173   2.238   7.693   0.226 -2.4153  0.0105 -1.2458
 3442SOL    HW215174   2.321   7.795   0.151 -0.3654 -0.6418  0.1008
 3443SOL     OW15175   0.687   6.016   9.680  0.6162  0.3557 -0.1733
 3443SOL    HW115176   0.621   6.031   9.748  0.0669 -0.0490 -0.6107
 3443SOL    HW215177   0.750   5.956   9.720  1.1371  1.3484  0.5086
 3444SOL     OW15178   1.527   6.336   1.619 -0.3536 -0.1409 -0.2752
 3444SOL    HW115179   1.445   6.379   1.642  1.0350  1.7412  1.3855
 3444SOL    HW215180   1.559   6.300   1.701  1.3696  0.7384 -0.5368
 3445SOL     OW15181   0.494   3.652   0.804  0.1518 -0.2634  0.2611
 3445SOL    HW115182   0.459   3.715   0.741 -3.1462 -0.9403  1.3367
 3445SOL    HW215183   0.560   3.702   0.853 -0.0532  1.3700 -1.0567
 3446SOL     OW15184   0.740   6.589   0.477 -0.8171 -0.4022 -0.1029
 3446SOL    HW115185   0.737   6.613   0.570 -2.8493  0.3865 -0.3735
 3446SOL    HW215186   0.698   6.503   0.473 -1.4420 -0.0769 -0.4254
 3447SOL     OW15187   9.429   5.908   0.029  0.7025 -0.0137 -0.3556
 3447SOL    HW115188   9.496   5.844   0.051  0.7301 -0.2649 -1.1481
 3447SOL    HW215189   9.422   5.964   0.106 -0.7386 -2.1931  1.1520
 3448SOL     OW15190   0.520   6.439   1.550  0.4627  0.6634 -0.8469
 3448SOL    HW115191   0.529   6.428   1.456 -0.2374  0.6807 -0.9174
 3448SOL    HW215192   0.557   6.359   1.588  2.3361  1.3991 -1.0587
 3449SOL     OW15193   1.531   5.535   0.778  0.2896  0.2664 -0.1463
 3449SOL    HW115194   1.595   5.463   0.781 -0.2524 -0.2378 -0.5271
 3449SOL    HW215195   1.459   5.505   0.834  0.0886  0.5488 -0.2544
 3450SOL     OW15196   1.891   6.843   0.551  0.6730  0.4293 -0.2842
 3450SOL    HW115197   1.903   6.860   0.458 -1.2895 -0.2778 -0.6717
 3450SOL    HW215198   1.823   6.904   0.579  0.4125 -0.1695  0.4253
 3451SOL     OW15199   0.555   6.616   9.450 -0.6427 -0.7024 -0.1947
 3451SOL    HW115200   0.598   6.543   9.407  0.8186 -0.6644  1.1454
 3451SOL    HW215201   0.626   6.676   9.472 -1.6521  0.4251  0.0246
 3452SOL     OW15202   2.018   5.831   0.605 -0.3827 -0.3561  0.0416
 3452SOL    HW115203   2.023   5.751   0.553  1.1097 -0.2497  0.0128
 3452SOL    HW215204   2.077   5.816   0.678 -0.0001  0.7670 -0.0302
 3453SOL     OW15205   1.249   4.487   0.010  0.0042  0.6365  0.0836
 3453SOL    HW115206   1.320   4.550   0.023 -0.0435  0.5203  0.9141
 3453SOL    HW215207   1.250   4.432   0.089  0.0672 -0.4307 -0.6469
 3454SOL     OW15208   0.571   4.959   9.753  0.3713 -0.8248 -0.2007
 3454SOL    HW115209   0.515   4.977   9.678  1.3814  1.4329 -0.4507
 3454SOL    HW215210   0.660   4.972   9.720  0.8140  0.4705  1.4472
 3455SOL     OW15211   1.925   5.738   2.523 -0.0188  0.0871 -0.1444
 3455SOL    HW115212   1.857   5.729   2.456 -0.4573 -1.4125  0.4988
 3455SOL    HW215213   2.002   5.696   2.484  0.0369  0.1936 -0.1485
 3456SOL     OW15214   1.884   5.326   1.069  0.3624 -0.3149 -0.3772
 3456SOL    HW115215   1.923   5.261   1.128  0.6614 -0.0646 -0.2948
 3456SOL    HW215216   1.797   5.342   1.105 -0.2280 -1.6633 -1.1705
 3457SOL     OW15217   1.041   6.521   3.124 -0.2242 -0.3045 -0.0939
 3457SOL    HW115218   0.981   6.448   3.138 -1.0272  0.3415 -0.1295
 3457SOL    HW215219   1.047   6.565   3.209 -0.2211 -0.0510 -0.2243
 3458SOL     OW15220   1.151   6.870   1.107 -0.8664  0.3563 -0.2923
 3458SOL    HW115221   1.179   6.817   1.182 -1.8436  0.7109  0.3235
 3458SOL    HW215222   1.228   6.923   1.086 -1.1589  1.5822  1.6251
 3459SOL     OW15223   0.757   7.046   0.875  0.4190 -0.1562  0.2333
 3459SOL    HW115224   0.786   7.071   0.787 -0.9022  1.3411  0.1968
 3459SOL    HW215225   0.812   6.971   0.898  1.8341  0.3859 -1.2534
 3460SOL     OW15226   0.218   5.355   1.614  0.3255 -0.2798  0.3305
 3460SOL    HW115227   0.173   5.402   1.684  0.5958 -1.1052  1.0619
 3460SOL    HW215228   0.310   5.378   1.625  0.2117  0.6074 -0.5437
 3461SOL     OW15229   0.984   7.046   3.584  0.5550  0.5258 -0.3213
 3461SOL    HW115230   1.026   7.093   3.512 -1.1993  0.9211 -1.1215
 3461SOL    HW215231   0.894   7.077   3.583  0.1812 -0.4516  1.2239
 3462SOL     OW15232   1.071   8.517   0.418 -0.9030 -0.1119  0.2734
 3462SOL    HW115233   1.050   8.424   0.409 -1.5088 -0.1021  1.4077
 3462SOL    HW215234   1.086   8.529   0.512 -0.1289  0.7959  0.0413
 3463SOL     OW15235   0.631   6.613   2.315  0.2259 -0.0575  0.2855
 3463SOL    HW115236   0.590   6.533   2.349 -0.0869 -0.7277 -1.6149
 3463SOL    HW215237   0.582   6.633   2.235 -0.1845  2.4632  1.1146
 3464SOL     OW15238   1.366   5.650   9.595  0.6024  0.3453  0.1708
 3464SOL    HW115239   1.300   5.719   9.594 -0.4929 -0.5960  2.4743
 3464SOL    HW215240   1.361   5.610   9.508 -0.2955  1.7381 -0.4284
 3465SOL     OW15241   8.436   7.763   2.061 -0.6370 -0.1726  0.0236
 3465SOL    HW115242   8.468   7.693   2.003 -1.3248  0.0423 -0.6151
 3465SOL    HW215243   8.514   7.792   2.108 -0.3681 -1.4693  0.3957
 3466SOL     OW15244   2.344   6.383   9.941  0.0711  0.3196  0.1199
 3466SOL    HW115245   2.392   6.311   9.981  0.5065  1.2844  1.3612
 3466SOL    HW215246   2.261   6.385   9.989 -0.4578 -0.1357 -0.7524
 3467SOL     OW15247   1.060   6.099   2.872 -0.2585  0.1491 -0.1712
 3467SOL    HW115248   1.011   6.028   2.913 -0.3852  0.8571  0.9070
 3467SOL    HW215249   0.999   6.172   2.866 -0.2709  0.0291 -1.7226
 3468SOL     OW15250   0.965   7.506   3.130  0.0334  0.1884  0.2327
 3468SOL    HW115251   1.002   7.455   3.058 -0.2443  0.6182 -0.2194
 3468SOL    HW215252   1.032   7.570   3.151 -0.1300  0.4563 -0.0561
 3469SOL     OW15253   2.234   4.929   0.411  0.3259  0.0673 -0.2547
 3469SOL    HW115254   2.269   4.929   0.322 -0.6654  1.3791 -0.6553
 3469SOL    HW215255   2.141   4.912   0.401  0.3609 -0.6663  0.6027
 3470SOL     OW15256   9.524   7.058   1.830  0.1317 -0.0357 -0.2947
 3470SOL    HW115257   9.608   7.097   1.805 -1.2818  2.7671 -0.8755
 3470SOL    HW215258   9.477   7.044   1.748 -0.9396  0.7502  0.1613
 3471SOL     OW15259   0.609   5.314   3.451 -0.1520  0.0591  0.1101
 3471SOL    HW115260   0.568   5.252   3.391 -0.9094  0.7122 -0.0643
 3471SOL    HW215261   0.557   5.307   3.532  0.4887 -0.3828  0.4882
 3472SOL     OW15262   2.390   6.076   1.119 -0.3476  0.3378 -0.1546
 3472SOL    HW115263   2.375   6.120   1.203 -0.0284 -2.3819  1.3572
 3472SOL    HW215264   2.452   6.134   1.073  1.1662  0.8150  2.3704
 3473SOL     OW15265   1.234   6.396   2.495  0.1386 -0.1594  0.1225
 3473SOL    HW115266   1.247   6.318   2.549  0.9823 -0.0391  0.1045
 3473SOL    HW215267   1.155   6.377   2.444  0.1948 -0.8959  0.2967
 3474SOL     OW15268   0.172   5.669   1.552 -0.2322 -0.4556  0.4333
 3474SOL    HW115269   0.093   5.722   1.560 -0.6614 -1.2650  1.6363
 3474SOL    HW215270   0.204   5.660   1.641  0.9560 -0.5497  0.0069
 3475SOL     OW15271   0.703   6.577   2.662  0.0183  0.6728 -0.4805
 3475SOL    HW115272   0.670   6.527   2.587 -0.7415  1.5311 -0.7298
 3475SOL    HW215273   0.712   6.513   2.732  1.6484 -0.3285 -1.5798
 3476SOL     OW15274   1.253   5.951   0.589 -0.0100 -0.1565 -0.2624
 3476SOL    HW115275   1.317   6.004   0.541  1.3954 -1.2545  0.3730
 3476SOL    HW215276   1.254   5.988   0.678  1.4499 -1.6331  0.3540
 3477SOL     OW15277   1.838   5.404   0.153  0.2683  0.2784 -0.3143
 3477SOL    HW115278   1.785   5.337   0.109 -1.3497  2.2167 -1.3411
 3477SOL    HW215279   1.843   5.476   0.090  2.4936  0.9233  0.5460
 3478SOL     OW15280   8.916   4.973   1.081  0.3678 -0.0366  0.1202
 3478SOL    HW115281   8.850   4.904   1.073 -0.8429  1.0768  0.3672
 3478SOL    HW215282   8.939   4.972   1.174  1.2260 -0.8798 -0.0857
 3479SOL     OW15283   0.907   6.829   1.025  0.0195 -0.4325  0.8451
 3479SOL    HW115284   0.997   6.852   1.048  1.2353 -0.2653 -3.5150
 3479SOL    HW215285   0.911   6.736   1.003 -0.9210 -0.4816  0.8725
 3480SOL     OW15286   1.861   6.346   1.884  0.0142 -0.0611 -0.1627
 3480SOL    HW115287   1.766   6.340   1.884  0.0873 -1.9459  1.5776
 3480SOL    HW215288   1.891   6.255   1.880  1.6971  0.3864  1.3834
 3481SOL     OW15289   9.597   5.604   1.816  0.1250 -0.2371  0.3171
 3481SOL    HW115290   9.679   5.623   1.862  0.0437  0.0393  0.3539
 3481SOL    HW215291   9.622   5.591   1.725  0.2341 -0.3282  0.3613
 3482SOL     OW15292   1.059   6.236   0.399  0.3241  0.1809 -0.0968
 3482SOL    HW115293   0.972   6.244   0.361  0.3825  0.6154 -0.1471
 3482SOL    HW215294   1.045   6.199   0.486  0.0954  0.1941 -0.1287
 3483SOL     OW15295   1.780   7.510   2.396  0.2928  0.1314 -0.2262
 3483SOL    HW115296   1.810   7.479   2.311 -1.1856  0.9583 -1.0756
 3483SOL    HW215297   1.748   7.599   2.379 -1.6656 -0.3441  0.8081
 3484SOL     OW15298   1.174   8.191   2.142 -0.2905  0.3236 -0.2291
 3484SOL    HW115299   1.189   8.286   2.145 -0.1630  0.2897  0.3301
 3484SOL    HW215300   1.233   8.156   2.208 -1.4778  0.0079  0.6725
 3485SOL     OW15301   0.731   7.180   1.792 -0.3794 -0.2129 -0.5898
 3485SOL    HW115302   0.678   7.254   1.764 -0.8533 -0.2125  0.2876
 3485SOL    HW215303   0.668   7.118   1.829  0.0122 -1.0494 -1.2868
 3486SOL     OW15304   2.478   5.811   0.335 -0.4479 -0.0869  0.8367
 3486SOL    HW115305   2.567   5.806   0.370 -0.1198 -2.0402 -0.2614
 3486SOL    HW215306   2.427   5.755   0.392 -0.6212 -0.4172  0.3546
 3487SOL     OW15307   0.651   5.392   9.450  0.6585 -0.1441  0.4463
 3487SOL    HW115308   0.617   5.386   9.539  1.5917 -0.6584  0.7760
 3487SOL    HW215309   0.610   5.470   9.413 -1.9464 -1.5095  0.3615
 3488SOL     OW15310   0.672   7.487   1.337 -0.0667 -0.8608 -0.3273
 3488SOL    HW115311   0.689   7.488   1.242  1.8961 -0.5613  0.0248
 3488SOL    HW215312   0.580   7.461   1.343 -0.9107  1.3954 -2.4158
 3489SOL     OW15313   0.744   6.699   1.216 -0.6510  0.1430  0.2647
 3489SOL    HW115314   0.654   6.720   1.241 -1.1365 -0.5696 -0.8074
 3489SOL    HW215315   0.737   6.677   1.123  0.1147 -2.9451  0.8945
 3490SOL     OW15316   0.503   5.839   0.918 -0.3334  0.0672 -0.7802
 3490SOL    HW115317   0.423   5.804   0.958  1.0155  0.6275  2.5428
 3490SOL    HW215318   0.476   5.923   0.881 -1.3199  0.1654  0.1358
 3491SOL     OW15319   0.947   6.654   2.373  0.1185 -0.0826  1.0211
 3491SOL    HW115320   0.988   6.738   2.351  0.2301  0.4087  3.0092
 3491SOL    HW215321   0.971   6.597   2.301  1.6628  1.0769  0.5734
 3492SOL     OW15322   1.691   5.303   2.805 -0.2861 -0.2127 -0.1885
 3492SOL    HW115323   1.606   5.346   2.816  0.3716  1.8696 -2.7253
 3492SOL    HW215324   1.749   5.351   2.864 -0.4687 -0.4081  0.1515
 3493SOL     OW15325   8.980   0.373   2.207  0.8160 -0.3256  0.1110
 3493SOL    HW115326   9.024   0.294   2.239  0.6894  0.4596  2.2612
 3493SOL    HW215327   8.896   0.374   2.253  1.0809  1.3985  0.5845
 3494SOL     OW15328   0.553   6.954   1.892 -0.3417 -0.1966 -0.4663
 3494SOL    HW115329   0.511   6.876   1.857  0.7001 -1.0682  0.1896
 3494SOL    HW215330   0.509   6.968   1.977  0.1001 -0.6103 -0.1669
 3495SOL     OW15331   2.054   5.121   1.170 -0.2810 -0.1835 -0.0481
 3495SOL    HW115332   2.138   5.107   1.126 -1.3902  2.3326 -3.1377
 3495SOL    HW215333   2.041   5.042   1.222  3.7597 -0.8323  0.1233
 3496SOL     OW15334   0.716   6.349   0.803  0.3056  0.7483 -0.0674
 3496SOL    HW115335   0.657   6.339   0.877  0.4732 -1.1266 -0.1436
 3496SOL    HW215336   0.797   6.382   0.841  0.3879 -0.1983  0.5930
 3497SOL     OW15337   9.899   6.073   2.961  0.6738  0.2065 -0.2267
 3497SOL    HW115338   9.835   6.085   3.031 -0.4819 -2.7507 -0.7132
 3497SOL    HW215339   9.982   6.058   3.006  0.1922 -0.2784  0.5069
 3498SOL     OW15340   0.082   6.512   1.901  0.0379  0.2989  0.3876
 3498SOL    HW115341   0.000   6.521   1.853  0.6367  0.3989 -0.6153
 3498SOL    HW215342   0.148   6.492   1.835  0.6732 -0.7128  1.2896
 3499SOL     OW15343   0.062   5.773   0.281  0.0244 -0.0311  0.2069
 3499SOL    HW115344   0.087   5.773   0.189  2.5906  0.4547  0.8607
 3499SOL    HW215345   0.081   5.684   0.311 -1.2517 -0.3220  0.1496
 3500SOL     OW15346   2.549   6.905   3.353  0.0412 -0.0412 -0.2751
 3500SOL    HW115347   2.604   6.981   3.371 -2.0644  1.1484  1.2798
 3500SOL    HW215348   2.503   6.926   3.272 -0.2067  0.1730 -0.0811
 3501SOL     OW15349   1.577   7.500   1.472 -0.1979 -0.2661 -0.4007
 3501SOL    HW115350   1.597   7.409   1.454  0.1865 -0.7122  2.1051
 3501SOL    HW215351   1.498   7.498   1.526 -0.7294  0.9255 -1.1155
 3502SOL     OW15352   0.635   5.951   0.130  0.5762  0.7972 -0.1934
 3502SOL    HW115353   0.605   6.038   0.159  1.6896  0.7957  1.0575
 3502SOL    HW215354   0.556   5.898   0.126  0.3038  0.9069  2.6184
 3503SOL     OW15355   2.447   8.152   0.409  0.3885  0.2152  0.0513
 3503SOL    HW115356   2.458   8.242   0.440  0.6565  0.6782 -1.3293
 3503SOL    HW215357   2.353   8.135   0.421  0.8554 -0.4245  3.1378
 3504SOL     OW15358   1.505   6.039   0.572 -0.6106  0.0149  0.1331
 3504SOL    HW115359   1.465   5.957   0.600  0.4486 -0.7814 -0.6551
 3504SOL    HW215360   1.542   6.076   0.652 -1.9773  0.2327  0.6741
 3505SOL     OW15361   0.839   6.320   2.325  0.4200  0.2070  0.4285
 3505SOL    HW115362   0.928   6.307   2.294  0.0034 -1.6652 -0.0235
 3505SOL    HW215363   0.830   6.415   2.332  1.0395  0.6523 -3.6618
 3506SOL     OW15364   0.474   5.615   0.677  0.5081  0.3852 -0.2192
 3506SOL    HW115365   0.477   5.704   0.711 -0.2444  0.9156 -1.4750
 3506SOL    HW215366   0.504   5.559   0.749 -0.6657  1.4920  1.1394
 3507SOL     OW15367   0.025   6.908   2.112 -0.5250 -0.0317  0.2828
 3507SOL    HW115368   0.007   6.895   2.205 -0.5799  0.3652  0.3311
 3507SOL    HW215369  -0.058   6.942   2.077 -1.5774 -3.2960 -0.5720
 3508SOL     OW15370   2.155   5.283   0.201 -0.2567  0.4445  0.4862
 3508SOL    HW115371   2.177   5.222   0.131  0.5012 -0.8856  1.8284
 3508SOL    HW215372   2.060   5.286   0.202 -0.3129 -1.0091  0.6283
 3509SOL     OW15373   1.614   4.855   9.476  0.8469 -0.0764 -0.0166
 3509SOL    HW115374   1.519   4.859   9.484  0.9471  0.9549  0.7124
 3509SOL    HW215375   1.647   4.916   9.542  1.9955  0.1922 -0.8241
 3510SOL     OW15376   0.961   6.646   1.393 -0.5523 -0.3695 -0.3225
 3510SOL    HW115377   0.934   6.585   1.462 -2.0122  0.4848 -0.1181
 3510SOL    HW215378   0.884   6.700   1.378  0.2875  0.5148 -1.4907
 3511SOL     OW15379   1.180   7.444   9.170  0.5664 -0.9277  0.3667
 3511SOL    HW115380   1.147   7.476   9.085  1.6287  1.2455  0.7222
 3511SOL    HW215381   1.109   7.392   9.205 -0.6006 -0.3525 -1.0668
 3512SOL     OW15382   9.579   4.585   0.469 -0.4284 -0.0469  0.3313
 3512SOL    HW115383   9.510   4.542   0.417  0.5338  0.1648 -1.1518
 3512SOL    HW215384   9.639   4.621   0.403  0.1004  1.3964  1.5948
 3513SOL     OW15385   9.427   7.773   9.363 -0.2043  0.1600 -0.7794
 3513SOL    HW115386   9.392   7.704   9.307  1.0981 -0.4761 -0.8074
 3513SOL    HW215387   9.517   7.747   9.382 -0.6009  0.3748  1.5875
 3514SOL     OW15388   1.593   6.906   2.084 -0.3269  0.6823  0.2040
 3514SOL    HW115389   1.571   6.834   2.143  0.1425  1.4342  1.3287
 3514SOL    HW215390   1.635   6.865   2.009  0.6780 -0.1487  1.2144
 3515SOL     OW15391   1.124   5.861   1.586 -0.7529 -0.0601  0.2642
 3515SOL    HW115392   1.122   5.767   1.605 -4.1828 -0.0306  0.4368
 3515SOL    HW215393   1.097   5.902   1.669  0.2866  1.0524  0.0592
 3516SOL     OW15394   9.834   4.860   0.612 -0.2624  0.0950 -0.2645
 3516SOL    HW115395   9.756   4.805   0.599 -1.2179  1.5693 -0.8256
 3516SOL    HW215396   9.876   4.824   0.691 -2.1383  0.0169  0.7161
 3517SOL     OW15397   2.197   6.630   1.601  0.1902  0.4510  0.4829
 3517SOL    HW115398   2.115   6.580   1.612  0.6183 -0.4905 -0.5198
 3517SOL    HW215399   2.171   6.709   1.555  0.2059 -0.9841 -2.0489
 3518SOL     OW15400   1.833   6.298   1.095 -0.0327 -0.0190  0.0191
 3518SOL    HW115401   1.901   6.236   1.122 -0.1668 -0.0022  0.3979
 3518SOL    HW215402   1.824   6.284   1.000  1.6175  1.0946 -0.3317
 3519SOL     OW15403   1.736   7.001   0.378 -0.5462  0.6628  0.1444
 3519SOL    HW115404   1.642   7.011   0.392 -0.8989  3.3914 -3.3598
 3519SOL    HW215405   1.744   6.957   0.293  1.2739  2.4730 -0.6781
 3520SOL     OW15406   9.469   8.627   0.708  0.6926 -0.1351  0.3414
 3520SOL    HW115407   9.396   8.608   0.649 -0.1520  3.1536  0.2161
 3520SOL    HW215408   9.544   8.582   0.669 -0.1535  0.8200 -2.5182
 3521SOL     OW15409   0.787   5.227   1.642  0.2986  0.2197 -0.0979
 3521SOL    HW115410   0.695   5.228   1.667  0.7369  0.6702  1.5631
 3521SOL    HW215411   0.828   5.294   1.697  1.5775  0.1568 -0.9548
 3522SOL     OW15412   0.621   7.102   0.522  0.4846  0.4189  0.0030
 3522SOL    HW115413   0.588   7.014   0.542  3.4868 -1.2611 -2.0386
 3522SOL    HW215414   0.560   7.161   0.567 -2.4961 -2.6152  0.1633
 3523SOL     OW15415   1.870   6.036   1.352 -0.0354 -0.4337  0.4104
 3523SOL    HW115416   1.781   6.038   1.315  0.3921  1.6629 -0.5706
 3523SOL    HW215417   1.924   6.083   1.288  1.8340 -1.8601  0.8987
 3524SOL     OW15418   0.068   7.957   0.719  0.3267  0.8319 -0.2181
 3524SOL    HW115419   0.058   8.042   0.676  1.7185  0.7145 -0.8057
 3524SOL    HW215420   0.134   7.911   0.666  0.0068 -0.3851  0.4272
 3525SOL     OW15421   8.680   7.534   8.426  0.1458  0.2922 -0.2901
 3525SOL    HW115422   8.770   7.531   8.395 -0.0335 -0.5251 -0.7501
 3525SOL    HW215423   8.687   7.549   8.520  0.8887 -3.3214  0.2934
 3526SOL     OW15424   0.279   7.225   1.306 -0.2853  0.5352  0.2097
 3526SOL    HW115425   0.203   7.283   1.299  0.2983  1.3253  0.2925
 3526SOL    HW215426   0.284   7.182   1.221 -1.2442 -0.0622  0.4435
 3527SOL     OW15427   1.847   5.892   2.195 -0.6547  0.6243  0.2228
 3527SOL    HW115428   1.934   5.860   2.173  0.1242  2.4091  0.6745
 3527SOL    HW215429   1.812   5.926   2.113 -1.4739 -1.2596 -0.2524
 3528SOL     OW15430   0.045   6.069   8.834 -0.6500  0.0709 -0.0525
 3528SOL    HW115431   0.075   6.127   8.763 -0.8208  0.0732 -0.1218
 3528SOL    HW215432   0.066   5.981   8.802  0.5867  0.1492  0.5081
 3529SOL     OW15433   2.076   7.233   1.917  0.6807 -0.0318  0.5949
 3529SOL    HW115434   2.051   7.248   2.008 -0.5666 -0.3703  0.3276
 3529SOL    HW215435   2.151   7.290   1.902  1.0584 -0.1775  1.9080
 3530SOL     OW15436   9.746   6.441   9.077 -0.1095 -0.1968 -0.4392
 3530SOL    HW115437   9.728   6.348   9.088 -3.2532  0.1355 -2.0074
 3530SOL    HW215438   9.784   6.448   8.989 -0.8124  0.1024 -0.7232
 3531SOL     OW15439   1.601   6.344   1.280  0.3233  0.7478  0.8783
 3531SOL    HW115440   1.631   6.312   1.365  1.8234  0.7232  0.3578
 3531SOL    HW215441   1.682   6.363   1.232 -0.4754 -0.3677 -0.9590
 3532SOL     OW15442   0.216   6.394   3.556  0.6591 -0.5178  0.2956
 3532SOL    HW115443   0.171   6.472   3.524  0.5149 -1.5558 -2.2055
 3532SOL    HW215444   0.156   6.322   3.535  2.9008 -1.8170 -2.0905
 3533SOL     OW15445   1.247   6.471   1.857 -0.2161  0.2727  0.5044
 3533SOL    HW115446   1.222   6.378   1.856  1.1416 -0.0921  0.3603
 3533SOL    HW215447   1.273   6.490   1.767 -0.0678  0.6864  0.6366
 3534SOL     OW15448   0.310   6.136   1.826 -0.5585 -0.1375 -0.4029
 3534SOL    HW115449   0.373   6.155   1.895 -0.5147 -0.3851 -0.3724
 3534SOL    HW215450   0.326   6.201   1.758 -0.4807 -0.0067 -0.2577
 3535SOL     OW15451   1.337   6.154   1.316 -0.4073  0.3144 -0.4236
 3535SOL    HW115452   1.296   6.160   1.402 -0.3782  0.6714 -0.4342
 3535SOL    HW215453   1.287   6.215   1.261 -0.0517  0.5270 -0.5105
 3536SOL     OW15454   9.833   7.506   0.413  0.7461  0.5905 -0.0680
 3536SOL    HW115455   9.817   7.431   0.470 -0.2073 -0.5520 -1.7700
 3536SOL    HW215456   9.881   7.469   0.339  0.1279  1.6208 -0.9967
 3537SOL     OW15457   2.047   7.960   1.386 -0.0267  0.3751 -0.3909
 3537SOL    HW115458   2.053   7.899   1.312 -1.7620  1.1085 -1.1624
 3537SOL    HW215459   1.960   7.945   1.422 -0.9556  3.1673 -1.3035
 3538SOL     OW15460   1.925   6.457   9.751 -0.3534 -0.3643 -0.4079
 3538SOL    HW115461   1.853   6.474   9.812 -0.3045  3.1852 -1.2738
 3538SOL    HW215462   1.882   6.426   9.671 -0.7986  0.2094 -0.3912
 3539SOL     OW15463   9.353   6.907   1.642 -0.5420  0.2947 -0.7966
 3539SOL    HW115464   9.284   6.959   1.602 -2.0734 -0.1313  1.2164
 3539SOL    HW215465   9.417   6.893   1.572 -2.2313  1.1483 -2.5356
 3540SOL     OW15466   2.015   6.018   2.418  0.3067  0.1687  0.4993
 3540SOL    HW115467   1.966   5.982   2.344  1.1412 -0.8828  0.4531
 3540SOL    HW215468   1.976   5.976   2.495 -1.2820  2.0549  0.7879
 3541SOL     OW15469   0.561   7.800   0.165  0.4294 -0.5404 -0.9971
 3541SOL    HW115470   0.590   7.731   0.225 -1.2301 -0.0014  0.4613
 3541SOL    HW215471   0.620   7.874   0.183 -1.8146  0.6093  2.0811
 3542SOL     OW15472   0.332   5.261   8.371 -0.2269 -0.0639  0.0530
 3542SOL    HW115473   0.247   5.275   8.413  0.9313  1.0294  2.1326
 3542SOL    HW215474   0.316   5.280   8.279 -2.2978 -0.1282  0.3615
 3543SOL     OW15475   0.551   7.335   9.925  0.4996 -0.2710  0.5830
 3543SOL    HW115476   0.576   7.388   9.849  1.4925 -0.1552  0.9889
 3543SOL    HW215477   0.522   7.252   9.887 -0.7125  0.4243 -0.0298
 3544SOL     OW15478   1.864   7.260   1.376  0.0128 -0.2943 -0.1371
 3544SOL    HW115479   1.855   7.354   1.387  0.1981 -0.3579  0.6403
 3544SOL    HW215480   1.774   7.227   1.373 -0.0658  0.0191 -1.5451
 3545SOL     OW15481   0.757   7.736   2.019 -0.0697  0.2961 -0.0417
 3545SOL    HW115482   0.676   7.785   2.002 -1.2664 -1.1529  1.2217
 3545SOL    HW215483   0.736   7.646   1.992  1.6781  0.2439 -1.2328
 3546SOL     OW15484   1.731   6.656   0.790  0.6465  0.2026  0.0570
 3546SOL    HW115485   1.661   6.689   0.845  0.6348  1.9945 -0.9548
 3546SOL    HW215486   1.715   6.697   0.705  3.2587  1.1787 -0.0159
 3547SOL     OW15487   9.871   6.378   1.445 -0.2374 -0.1283  0.2544
 3547SOL    HW115488   9.795   6.434   1.428  0.9793  1.4074 -0.2517
 3547SOL    HW215489   9.854   6.340   1.531 -2.3777 -1.1711 -0.5938
 3548SOL     OW15490   0.483   7.360   0.413 -0.5659  0.2093  0.1843
 3548SOL    HW115491   0.467   7.319   0.328  2.6043 -0.5020 -0.1092
 3548SOL    HW215492   0.543   7.300   0.458 -0.8727  1.4221  2.2535
 3549SOL     OW15493   1.055   5.909   0.179 -0.1528 -0.3080 -0.7705
 3549SOL    HW115494   1.135   5.874   0.218 -0.7652  0.8292  1.6320
 3549SOL    HW215495   1.081   5.991   0.138  0.0205 -0.2228 -0.4894
 3550SOL     OW15496   1.938   6.081   0.879 -0.3275 -0.0231 -0.3532
 3550SOL    HW115497   2.031   6.105   0.877 -0.6398  1.6537  2.3599
 3550SOL    HW215498   1.897   6.137   0.813  0.5433 -0.5655 -1.3586
 3551SOL     OW15499   1.291   5.749   1.256 -0.5453  0.0507 -0.0507
 3551SOL    HW115500   1.369   5.694   1.250 -0.3077  0.2527  1.0460
 3551SOL    HW215501   1.319   5.824   1.309 -1.1839  0.6695 -0.5720
 3552SOL     OW15502   0.768   5.835   0.859  0.2760  0.3442 -0.3361
 3552SOL    HW115503   0.811   5.816   0.942  0.7291  1.1541 -0.3809
 3552SOL    HW215504   0.674   5.832   0.879  0.3600 -0.5399 -0.0456
 3553SOL     OW15505   1.139   7.763   0.205 -0.5894 -0.1654  0.2646
 3553SOL    HW115506   1.046   7.748   0.222 -0.4671 -0.8913  0.3186
 3553SOL    HW215507   1.177   7.784   0.290 -0.9179  1.3444  0.0573
 3554SOL     OW15508   1.532   7.447   0.778  0.6441  0.2373 -0.0178
 3554SOL    HW115509   1.448   7.428   0.735 -1.1668  0.8478  3.0204
 3554SOL    HW215510   1.573   7.361   0.789  0.7338 -0.0083 -2.0853
 3555SOL     OW15511   1.503   6.600   9.133 -1.0446  0.3860  0.5634
 3555SOL    HW115512   1.479   6.598   9.226  0.3419 -0.5013  0.9125
 3555SOL    HW215513   1.588   6.557   9.129 -1.5966 -0.5946 -1.2861
 3556SOL     OW15514   1.527   7.149   9.395 -0.7027  0.2156  0.2244
 3556SOL    HW115515   1.504   7.068   9.350  0.8483  0.0901 -0.3736
 3556SOL    HW215516   1.604   7.126   9.447  0.3030  1.5274 -0.6603
 3557SOL     OW15517   3.114   8.036   1.583  0.1220  0.1693  0.8830
 3557SOL    HW115518   3.101   8.121   1.624  0.1287  0.4438  0.3236
 3557SOL    HW215519   3.154   8.056   1.499  0.8307 -0.4357  1.0677
 3558SOL     OW15520   1.465   7.682   0.995 -0.6004  0.7653 -0.3821
 3558SOL    HW115521   1.403   7.715   0.930  0.9343  2.3553 -1.0559
 3558SOL    HW215522   1.532   7.636   0.944 -0.5389  0.1210  0.2564
 3559SOL     OW15523   0.414   5.248   2.338  0.2056 -0.0592 -0.2343
 3559SOL    HW115524   0.466   5.200   2.403 -0.4504 -1.0901 -0.4605
 3559SOL    HW215525   0.420   5.195   2.259 -0.1608  0.4699 -0.6185
 3560SOL     OW15526   1.294   6.015   3.908 -0.1627  0.2108 -0.4551
 3560SOL    HW115527   1.205   5.982   3.894 -0.1971 -0.5707  1.4390
 3560SOL    HW215528   1.350   5.938   3.900  0.2397  0.5197 -0.6207
 3561SOL     OW15529   9.767   5.320   1.900 -0.0798 -0.1832  0.7286
 3561SOL    HW115530   9.834   5.388   1.906 -0.4774  0.3425 -0.6062
 3561SOL    HW215531   9.701   5.356   1.840  0.1810 -2.1289 -0.7730
 3562SOL     OW15532   1.591   8.431   2.801  0.0854 -0.0725 -0.2698
 3562SOL    HW115533   1.614   8.496   2.734 -0.3501  2.3072  1.8210
 3562SOL    HW215534   1.673   8.413   2.847 -0.2335  0.7302  0.6219
 3563SOL     OW15535   3.088   8.378   2.582  0.1048  0.5207 -0.3268
 3563SOL    HW115536   3.087   8.309   2.515  2.2003 -0.0718  0.2359
 3563SOL    HW215537   3.047   8.453   2.539  2.2151  0.4232 -2.5790
 3564SOL     OW15538   8.206   6.221   1.637 -0.8637 -0.5304 -0.3871
 3564SOL    HW115539   8.289   6.246   1.597 -0.8179 -0.2156 -0.0940
 3564SOL    HW215540   8.140   6.248   1.574 -0.8346  0.5969  0.0524
 3565SOL     OW15541   1.810   6.795   2.635  0.1366  0.0797 -0.4073
 3565SOL    HW115542   1.801   6.702   2.617 -1.9794  0.6435 -2.5580
 3565SOL    HW215543   1.790   6.804   2.729 -0.5742 -1.4989 -0.4010
 3566SOL     OW15544   9.093   5.712   3.104 -0.0034 -0.6045  0.4339
 3566SOL    HW115545   9.108   5.643   3.040 -1.3447  0.2980 -0.8748
 3566SOL    HW215546   9.003   5.699   3.133  0.6478 -1.1383  2.3309
 3567SOL     OW15547   9.800   5.250   1.244  0.2135 -0.5254 -0.0741
 3567SOL    HW115548   9.769   5.265   1.334 -0.1599  0.3873 -0.3497
 3567SOL    HW215549   9.806   5.338   1.206 -0.1703 -0.9533 -1.1248
 3568SOL     OW15550   9.390   8.099   5.151  0.3371 -0.1596  1.0083
 3568SOL    HW115551   9.396   8.153   5.073 -0.0554 -0.1662  0.9740
 3568SOL    HW215552   9.328   8.145   5.208  1.6339  0.5484  1.8762
 3569SOL     OW15553   1.176   7.269   3.880 -0.0625 -0.1872  0.3045
 3569SOL    HW115554   1.175   7.180   3.847 -0.6796 -0.9159  2.2331
 3569SOL    HW215555   1.253   7.274   3.937 -1.4942 -0.3132  2.3099
 3570SOL     OW15556   0.487   6.879   3.526  0.6167  0.0098  0.3545
 3570SOL    HW115557   0.487   6.871   3.622 -2.9874  0.5947  0.4506
 3570SOL    HW215558   0.518   6.794   3.495  1.0496 -0.4590  2.0100
 3571SOL     OW15559   1.593   6.034   3.292 -0.3465  0.6513 -0.2153
 3571SOL    HW115560   1.557   6.046   3.380 -0.3850 -2.6645  0.2832
 3571SOL    HW215561   1.524   5.989   3.244  0.4867  0.4938 -1.2774
 3572SOL     OW15562   0.247   6.038   4.159 -0.6210 -0.3646 -0.3038
 3572SOL    HW115563   0.323   6.046   4.101  0.9211 -2.5182  1.2981
 3572SOL    HW215564   0.242   6.122   4.204 -0.6031  0.6037 -2.1087
 3573SOL     OW15565   1.684   5.678   3.033 -0.8398  0.4658 -0.2155
 3573SOL    HW115566   1.624   5.633   2.974 -0.3648  0.5130 -0.7323
 3573SOL    HW215567   1.753   5.614   3.051  0.2590  1.2450 -1.5872
 3574SOL     OW15568   0.194   5.985   2.634 -0.0453  0.2093 -0.6089
 3574SOL    HW115569   0.134   6.059   2.632  1.5041  1.4558 -3.6062
 3574SOL    HW215570   0.147   5.914   2.590  0.3267  0.9053 -2.1357
 3575SOL     OW15571   1.316   9.557   3.834 -0.3388  0.4169  0.5320
 3575SOL    HW115572   1.354   9.612   3.765 -0.7493  0.4384  0.3192
 3575SOL    HW215573   1.269   9.619   3.890  0.1109  0.4144  0.9117
 3576SOL     OW15574   9.643   7.498   3.613 -1.5216 -0.0077 -0.2527
 3576SOL    HW115575   9.561   7.450   3.621 -1.8064  0.5769  0.3490
 3576SOL    HW215576   9.675   7.506   3.703 -0.2946 -1.1220 -0.5755
 3577SOL     OW15577   3.720   7.067   3.976  0.4357 -0.2683  0.1130
 3577SOL    HW115578   3.801   7.029   3.945 -0.5770 -1.0089 -1.6792
 3577SOL    HW215579   3.651   7.015   3.936 -0.9460  1.0403  0.7006
 3578SOL     OW15580   1.095   5.237   3.585  0.3025 -0.0579  0.1573
 3578SOL    HW115581   1.037   5.201   3.652  0.8140  0.5673  0.9350
 3578SOL    HW215582   1.041   5.239   3.506 -0.1970 -1.1212  0.4543
 3579SOL     OW15583   1.576   7.171   2.023 -0.1544 -0.1566  1.2005
 3579SOL    HW115584   1.612   7.086   2.048  1.1898  0.2312  0.5711
 3579SOL    HW215585   1.481   7.157   2.023  0.0806 -1.8951  0.2498
 3580SOL     OW15586   9.350   7.273   1.844 -0.1194 -0.1292  0.1986
 3580SOL    HW115587   9.398   7.312   1.770  1.3769 -0.0059  1.2033
 3580SOL    HW215588   9.401   7.195   1.867  0.1078  0.4873  1.8481
 3581SOL     OW15589   1.339   5.033   4.089 -0.2848  0.6503 -0.3975
 3581SOL    HW115590   1.385   4.969   4.034 -0.3877  1.6708 -1.7089
 3581SOL    HW215591   1.278   5.076   4.029  1.2567  3.4350 -0.0475
 3582SOL     OW15592   1.355   5.649   3.328  0.0602 -0.5713 -0.2914
 3582SOL    HW115593   1.304   5.626   3.405  1.9905 -0.2566  1.1120
 3582SOL    HW215594   1.402   5.569   3.306  0.7124 -0.2152 -0.1979
 3583SOL     OW15595   1.238   6.443   4.087  0.2805 -0.2699 -0.4017
 3583SOL    HW115596   1.156   6.405   4.056  1.1672 -1.1904 -1.6762
 3583SOL    HW215597   1.283   6.470   4.007 -0.3674  3.6221  0.4635
 3584SOL     OW15598   0.239   6.405   1.675 -0.1600  0.0217 -0.5082
 3584SOL    HW115599   0.326   6.443   1.667 -0.2759  0.2334 -0.7239
 3584SOL    HW215600   0.220   6.369   1.588 -0.1368 -0.3488 -0.3644
 3585SOL     OW15601   0.424   7.447   3.469 -0.4465  0.3595 -0.1316
 3585SOL    HW115602   0.367   7.519   3.443 -0.0247  0.5393 -0.5759
 3585SOL    HW215603   0.414   7.381   3.400 -1.3626 -0.3133  0.6268
 3586SOL     OW15604   0.767   3.787   1.226 -0.2371  0.0339 -0.2303
 3586SOL    HW115605   0.718   3.704   1.218 -0.3220  0.1246 -0.6816
 3586SOL    HW215606   0.852   3.768   1.188  0.6122 -0.5493  1.8927
 3587SOL     OW15607   1.098   7.631   3.468  0.7778 -0.1380  0.2993
 3587SOL    HW115608   1.106   7.694   3.396  0.8258 -1.1348 -0.5817
 3587SOL    HW215609   1.111   7.683   3.547  3.3274  0.5479 -0.5167
 3588SOL     OW15610   1.751   7.235   0.541  0.1793 -0.7823  0.2359
 3588SOL    HW115611   1.793   7.208   0.623 -1.9033 -1.2599  1.1862
 3588SOL    HW215612   1.753   7.157   0.486  0.8237 -0.7090  0.1572
 3589SOL     OW15613   2.699   8.176   3.269  0.0903  0.5356 -0.1025
 3589SOL    HW115614   2.755   8.100   3.252  0.5803  1.2186 -1.6278
 3589SOL    HW215615   2.664   8.161   3.357  2.1896 -0.2134  0.6382
 3590SOL     OW15616   9.693   6.147   2.744 -0.2761 -0.0667  0.2758
 3590SOL    HW115617   9.678   6.058   2.710  1.6334 -0.8220  1.3586
 3590SOL    HW215618   9.664   6.142   2.835  0.7662  0.1293  0.6254
 3591SOL     OW15619   0.348   7.146   3.640  0.0680 -0.1707  0.0594
 3591SOL    HW115620   0.347   7.242   3.639 -1.2815 -0.1261  2.1501
 3591SOL    HW215621   0.317   7.123   3.728  1.5840 -2.5114  0.0388
 3592SOL     OW15622   2.162   7.170   3.097 -0.6797  0.7475 -0.3654
 3592SOL    HW115623   2.104   7.098   3.072 -0.8146  0.5459  0.5083
 3592SOL    HW215624   2.127   7.201   3.180  1.0496 -0.0586  0.6998
 3593SOL     OW15625   9.293   6.577   3.751  0.1807 -0.3002  0.5282
 3593SOL    HW115626   9.203   6.605   3.734  0.7216  0.6363 -0.8699
 3593SOL    HW215627   9.311   6.608   3.840 -0.9619 -0.7078  0.9043
 3594SOL     OW15628   2.041   5.926   3.053 -0.6922  0.0223 -0.0728
 3594SOL    HW115629   1.955   5.915   3.092 -0.1447 -0.2017  1.0750
 3594SOL    HW215630   2.075   5.836   3.045 -0.1758  0.1771  0.3591
 3595SOL     OW15631   1.929   6.995   2.220 -0.0581  0.9344  0.3957
 3595SOL    HW115632   1.971   7.078   2.237 -0.9267  1.6761 -0.9871
 3595SOL    HW215633   1.835   7.014   2.226 -0.2453 -0.1442  0.9964
 3596SOL     OW15634   1.536   6.404   2.845 -0.2405 -0.1000 -0.2979
 3596SOL    HW115635   1.455   6.370   2.882 -0.7429  0.7706 -0.5880
 3596SOL    HW215636   1.509   6.459   2.772  0.6990 -1.0185 -1.3676
 3597SOL     OW15637   0.346   6.587   3.909 -0.4615  1.0209 -1.0053
 3597SOL    HW115638   0.427   6.546   3.881 -0.7762  0.4785 -1.1184
 3597SOL    HW215639   0.293   6.516   3.944  0.4013  1.8457  2.1408
 3598SOL     OW15640   0.583   7.819   2.879 -0.3595 -0.5268 -0.6067
 3598SOL    HW115641   0.652   7.884   2.893  0.1892 -1.2486  0.0679
 3598SOL    HW215642   0.507   7.871   2.851 -1.1547  0.9077  3.8412
 3599SOL     OW15643   3.695   6.777   2.872  0.5120  0.0562 -0.0752
 3599SOL    HW115644   3.670   6.743   2.786  0.2635 -1.1049  0.4476
 3599SOL    HW215645   3.612   6.790   2.917  0.4254  3.8562 -1.1571
 3600SOL     OW15646   0.608   6.539   3.813  0.0479 -0.0844 -0.4488
 3600SOL    HW115647   0.685   6.566   3.863  0.5007 -1.9738 -0.1213
 3600SOL    HW215648   0.635   6.547   3.722  0.2119  0.4440 -0.3599
 3601SOL     OW15649   0.045   5.974   3.962 -0.4484 -0.4226  0.0352
 3601SOL    HW115650   0.105   5.967   4.036 -0.5812 -1.2341  0.0673
 3601SOL    HW215651   0.072   5.905   3.902 -1.2587 -0.6974 -0.0229
 3602SOL     OW15652   9.530   6.842   4.300  0.4716 -0.4894  0.1293
 3602SOL    HW115653   9.491   6.870   4.217 -1.3882  1.4772  1.5816
 3602SOL    HW215654   9.614   6.804   4.276  0.1371  0.3937 -2.6273
 3603SOL     OW15655   0.138   5.068   0.134  0.5369 -0.9401 -0.6719
 3603SOL    HW115656   0.058   5.021   0.108 -0.2355  0.0883 -0.2151
 3603SOL    HW215657   0.209   5.007   0.116 -0.4277 -2.2016 -0.2673
 3604SOL     OW15658   0.021   6.386   2.160  0.6207 -0.0225  0.7948
 3604SOL    HW115659   0.022   6.422   2.072  0.0462 -1.0544  0.3527
 3604SOL    HW215660  -0.025   6.302   2.151  1.8214 -0.8185  1.8077
 3605SOL     OW15661   1.153   7.738   3.176  0.4230 -0.1411 -0.1265
 3605SOL    HW115662   1.219   7.763   3.111  2.2965 -0.3962  1.6079
 3605SOL    HW215663   1.094   7.812   3.180  2.4778  1.5143  0.5988
 3606SOL     OW15664   0.297   5.577   2.765  0.1760 -0.2975 -0.3564
 3606SOL    HW115665   0.265   5.492   2.736  1.3477 -1.2326  0.9875
 3606SOL    HW215666   0.370   5.596   2.706 -1.3809  0.7667 -1.9730
 3607SOL     OW15667   9.601   8.590   3.372 -0.5085  0.1278  0.0663
 3607SOL    HW115668   9.689   8.627   3.366 -0.3717  0.4382  3.1250
 3607SOL    HW215669   9.574   8.578   3.281  2.1666  1.2558 -0.9391
 3608SOL     OW15670   2.796   6.516   4.186  0.6663 -0.4990  0.1557
 3608SOL    HW115671   2.860   6.453   4.153  1.7037  0.6768 -0.1353
 3608SOL    HW215672   2.813   6.596   4.135  0.2975  0.4346  1.4626
 3609SOL     OW15673   0.405   7.961   3.765 -0.8509  0.6938 -0.0915
 3609SOL    HW115674   0.326   8.010   3.788 -0.6940 -0.1315  2.3246
 3609SOL    HW215675   0.374   7.889   3.711 -1.7487  0.4142  0.7871
 3610SOL     OW15676   0.181   6.635   2.409 -0.1451 -0.0924 -0.6026
 3610SOL    HW115677   0.213   6.711   2.360  0.0936 -0.0368 -0.3619
 3610SOL    HW215678   0.253   6.613   2.469 -1.3183  1.2484  1.3384
 3611SOL     OW15679   1.298   7.889   2.979 -0.2064 -0.5777 -0.2129
 3611SOL    HW115680   1.222   7.920   2.930 -0.0075  0.3944  0.0820
 3611SOL    HW215681   1.321   7.963   3.036  1.9329 -0.2709 -1.4313
 3612SOL     OW15682   1.164   6.980   4.278  0.3133  0.2098 -0.4700
 3612SOL    HW115683   1.101   6.910   4.295 -1.3495  1.5907 -0.7557
 3612SOL    HW215684   1.111   7.059   4.273  1.8251  1.1356 -2.8686
 3613SOL     OW15685   0.341   4.942   2.678 -0.0891  0.0110  0.2062
 3613SOL    HW115686   0.381   5.027   2.697  1.2038 -0.5885  0.1962
 3613SOL    HW215687   0.397   4.904   2.610 -2.7739  0.7177 -2.4928
 3614SOL     OW15688   0.048   5.733   2.517  0.5144 -0.6587 -0.4318
 3614SOL    HW115689   0.089   5.772   2.440 -0.6965  3.2044  0.7923
 3614SOL    HW215690  -0.036   5.699   2.486  0.2470  0.4446 -0.9079
 3615SOL     OW15691   0.276   6.820   2.196 -0.2378 -0.3296 -0.4377
 3615SOL    HW115692   0.337   6.893   2.186 -0.7466  0.2191  0.3601
 3615SOL    HW215693   0.191   6.857   2.172 -0.9577  0.1513  2.6276
 3616SOL     OW15694   0.981   3.995   1.300  0.3330  0.1659 -0.4060
 3616SOL    HW115695   1.047   3.962   1.362 -0.3310  1.7622  1.1896
 3616SOL    HW215696   0.919   3.923   1.290  1.6378 -0.9023 -0.9496
 3617SOL     OW15697   0.832   8.405   4.835 -0.3716  0.4370  0.7809
 3617SOL    HW115698   0.776   8.467   4.881 -0.9073  0.2129  0.4434
 3617SOL    HW215699   0.823   8.429   4.742 -1.6560 -0.9925  0.5153
 3618SOL     OW15700   0.804   8.561   3.137 -0.0974  0.5604  0.0525
 3618SOL    HW115701   0.726   8.582   3.085 -0.4225  0.0236  0.3211
 3618SOL    HW215702   0.877   8.585   3.080 -0.4365 -1.1681 -1.1526
 3619SOL     OW15703   0.680   6.308   1.725  0.1627  0.4695  0.4340
 3619SOL    HW115704   0.615   6.324   1.794 -1.4206 -1.4664 -0.5783
 3619SOL    HW215705   0.685   6.213   1.718  1.3980  0.6250 -1.1230
 3620SOL     OW15706   0.954   6.184   4.945  0.8722  0.1679  0.7157
 3620SOL    HW115707   1.004   6.167   4.865  0.1844  1.9842 -0.1303
 3620SOL    HW215708   1.001   6.255   4.988  0.7933 -0.2707  1.5244
 3621SOL     OW15709   0.573   5.714   2.235 -0.5164  0.0821  0.1392
 3621SOL    HW115710   0.625   5.721   2.315  0.3568 -0.9699 -0.3192
 3621SOL    HW215711   0.506   5.648   2.255 -0.0979 -0.4199 -0.0871
 3622SOL     OW15712   1.142   6.652   4.700  0.0992 -0.5698 -0.0570
 3622SOL    HW115713   1.056   6.677   4.666  0.2930 -2.4415 -2.0936
 3622SOL    HW215714   1.202   6.715   4.659  0.0130 -1.1194 -1.0619
 3623SOL     OW15715   9.822   8.605   2.263  0.2062 -0.0797  0.1907
 3623SOL    HW115716   9.873   8.669   2.313  0.2686 -0.8681  1.1547
 3623SOL    HW215717   9.733   8.613   2.297  0.1481 -0.2695  0.0831
 3624SOL     OW15718   1.189   7.003   3.797 -0.0118  1.1533  0.2175
 3624SOL    HW115719   1.147   6.999   3.711  1.8413  1.1648 -0.7058
 3624SOL    HW215720   1.136   6.945   3.851 -0.1799 -0.2452 -1.3855
 3625SOL     OW15721   0.678   6.836   2.865 -0.0056  0.2373  0.1042
 3625SOL    HW115722   0.606   6.900   2.867 -0.2210  0.0758 -1.5260
 3625SOL    HW215723   0.723   6.854   2.782 -0.1257 -1.7911 -0.4068
 3626SOL     OW15724   9.689   6.809   2.754 -0.4945  0.0338  0.1949
 3626SOL    HW115725   9.667   6.821   2.662 -2.8472  0.1628  0.7421
 3626SOL    HW215726   9.660   6.890   2.797  0.4245 -0.0890  1.0757
 3627SOL     OW15727   0.745   5.341   2.258 -0.5381 -0.2647 -0.8737
 3627SOL    HW115728   0.683   5.359   2.188 -0.2141 -0.6421 -1.2603
 3627SOL    HW215729   0.830   5.368   2.222 -0.4572  0.1198 -0.4040
 3628SOL     OW15730   2.893   8.597   2.179  0.2003  0.2037 -0.7370
 3628SOL    HW115731   2.950   8.545   2.122 -1.0871  0.1338 -1.9799
 3628SOL    HW215732   2.886   8.682   2.136  0.0675  0.5009 -0.1410
 3629SOL     OW15733   0.510   6.008   3.577  0.2119 -0.8107  0.5632
 3629SOL    HW115734   0.422   6.013   3.615  0.3038  1.2822  0.5417
 3629SOL    HW215735   0.568   6.037   3.647  0.6898 -0.0900 -0.1302
 3630SOL     OW15736   0.708   4.717   3.222 -0.5810 -0.0604 -0.2372
 3630SOL    HW115737   0.698   4.636   3.172  0.7993 -0.5761  0.2891
 3630SOL    HW215738   0.631   4.770   3.199 -0.4412 -0.6610 -2.1861
 3631SOL     OW15739   0.511   7.781   2.354  0.2525 -0.1480 -0.7011
 3631SOL    HW115740   0.532   7.872   2.337 -2.4367  0.7097  0.4191
 3631SOL    HW215741   0.439   7.761   2.294  0.0041 -1.1671 -0.0694
 3632SOL     OW15742   0.110   7.111   2.898  0.0311 -0.7485 -0.1896
 3632SOL    HW115743   0.149   7.059   2.827 -0.8341  1.1346 -2.1198
 3632SOL    HW215744   0.065   7.183   2.853 -0.4016  0.6082  2.3011
 3633SOL     OW15745   1.458   7.661   4.390 -0.3557 -0.1235 -0.0879
 3633SOL    HW115746   1.484   7.752   4.404 -0.4677 -0.4928  2.8361
 3633SOL    HW215747   1.525   7.610   4.435 -1.1964 -1.4369 -0.3031
 3634SOL     OW15748   1.886   5.902   4.024 -0.1463 -0.3564 -0.3987
 3634SOL    HW115749   1.965   5.948   3.998 -0.5442  1.0894  0.8576
 3634SOL    HW215750   1.879   5.918   4.119 -1.1491 -1.6796 -0.2281
 3635SOL     OW15751   9.348   6.409   2.593 -0.0734  0.5740 -0.4488
 3635SOL    HW115752   9.281   6.341   2.597 -0.0094  0.5834  1.0298
 3635SOL    HW215753   9.302   6.485   2.556 -0.8630  0.5507  0.4583
 3636SOL     OW15754   3.900   3.895   4.140  0.2933 -0.4174  0.3568
 3636SOL    HW115755   3.922   3.874   4.230  0.9895 -0.9525  0.0678
 3636SOL    HW215756   3.805   3.903   4.140  0.3269  0.0136  1.2217
 3637SOL     OW15757   9.575   6.715   1.569  0.4375  0.4302 -0.4838
 3637SOL    HW115758   9.584   6.626   1.602  1.9208  0.9606  0.5962
 3637SOL    HW215759   9.577   6.706   1.474 -0.2971 -0.7630 -0.3936
 3638SOL     OW15760   2.561   6.914   1.998  0.2641 -0.5683 -0.0834
 3638SOL    HW115761   2.476   6.892   2.036  1.3883  0.4480  3.2393
 3638SOL    HW215762   2.584   6.997   2.039  2.4792 -0.3919 -1.6125
 3639SOL     OW15763   1.657   7.050   2.715 -0.2532  0.0960 -0.5031
 3639SOL    HW115764   1.575   7.090   2.744 -0.8644 -1.3062 -0.2750
 3639SOL    HW215765   1.651   6.959   2.744  1.2595 -0.0881 -0.7435
 3640SOL     OW15766   0.719   6.019   3.395 -0.2093 -0.0007 -0.0973
 3640SOL    HW115767   0.765   6.100   3.414  1.5564 -1.5338  2.4099
 3640SOL    HW215768   0.676   5.996   3.477 -2.5155 -0.4992 -1.3911
 3641SOL     OW15769   0.286   7.185   1.729  0.1041  0.0277 -0.1656
 3641SOL    HW115770   0.311   7.254   1.790  0.6939  0.1549 -0.5453
 3641SOL    HW215771   0.364   7.130   1.720  0.6477  1.0675 -2.2284
 3642SOL     OW15772   2.054   5.999   3.306 -0.5665 -0.1241  0.4813
 3642SOL    HW115773   2.067   5.917   3.355  0.1141 -0.4318 -0.2048
 3642SOL    HW215774   2.055   5.972   3.214 -2.7201  0.3233  0.3063
 3643SOL     OW15775   2.070   4.667   1.912 -0.2593  0.4574 -0.0774
 3643SOL    HW115776   2.016   4.746   1.910 -0.6381  0.2381  0.9760
 3643SOL    HW215777   2.107   4.666   2.000  1.3140  0.4957 -0.7361
 3644SOL     OW15778   1.104   7.064   3.165 -0.2771  0.2055 -0.0735
 3644SOL    HW115779   1.033   7.028   3.219  0.3447 -0.1664  0.5026
 3644SOL    HW215780   1.138   7.137   3.218 -0.8684  1.0135 -0.7853
 3645SOL     OW15781   0.051   8.077   4.445  0.2064 -0.6254  0.6910
 3645SOL    HW115782   0.094   8.141   4.388  0.2061 -2.5723 -1.5811
 3645SOL    HW215783  -0.037   8.068   4.408  0.6313 -2.8758  0.1495
 3646SOL     OW15784   0.643   5.967   4.449  0.2441  0.1828  0.5333
 3646SOL    HW115785   0.727   6.010   4.429  0.5370 -0.1196  1.1221
 3646SOL    HW215786   0.634   5.900   4.381 -1.0714  2.3014 -1.5043
 3647SOL     OW15787   0.435   6.453   3.065 -0.6551 -0.0454 -0.3607
 3647SOL    HW115788   0.356   6.419   3.106 -1.1255  1.3594 -0.0639
 3647SOL    HW215789   0.448   6.538   3.107  1.2043 -0.4102 -0.1518
 3648SOL     OW15790   1.229   7.436   2.181  0.2760 -0.2486  0.2511
 3648SOL    HW115791   1.283   7.367   2.141  0.3956 -0.7144  1.2196
 3648SOL    HW215792   1.190   7.395   2.258 -3.8503 -0.8588 -1.9873
 3649SOL     OW15793   0.192   5.899   3.470  0.3777 -0.3501 -0.0280
 3649SOL    HW115794   0.139   5.972   3.437  2.4214  0.8844 -0.6467
 3649SOL    HW215795   0.233   5.934   3.550  0.2170 -1.3318  0.4931
 3650SOL     OW15796   8.514   8.593   2.588 -0.0325 -0.2925  0.1570
 3650SOL    HW115797   8.564   8.674   2.579 -0.4115  0.1492  1.8437
 3650SOL    HW215798   8.568   8.538   2.644 -0.9233 -0.2092  1.1212
 3651SOL     OW15799   0.364   5.804   2.455 -0.4898  0.1535  0.3301
 3651SOL    HW115800   0.348   5.865   2.528  0.6215 -0.3778  1.0232
 3651SOL    HW215801   0.292   5.821   2.394 -0.6119  1.6336  0.8677
 3652SOL     OW15802   1.717   6.066   2.465 -0.5059  0.1441  0.1260
 3652SOL    HW115803   1.667   6.035   2.390 -0.2390  0.0439 -0.0110
 3652SOL    HW215804   1.654   6.118   2.516  0.1020  3.0054 -1.8690
 3653SOL     OW15805   0.339   6.206   3.225  0.2276  0.0291 -0.0831
 3653SOL    HW115806   0.381   6.259   3.293 -0.0042 -0.4281  0.4169
 3653SOL    HW215807   0.265   6.259   3.195  0.1250  0.0793  0.2604
 3654SOL     OW15808   0.593   6.878   2.564 -0.1936  0.3267  0.7180
 3654SOL    HW115809   0.563   6.878   2.473 -0.4468 -0.6473  0.8021
 3654SOL    HW215810   0.612   6.970   2.582 -0.1686  0.5348 -0.3103
 3655SOL     OW15811   0.457   6.648   2.117 -0.5870 -0.3296 -0.3047
 3655SOL    HW115812   0.442   6.639   2.023 -2.1225 -1.7579  0.0550
 3655SOL    HW215813   0.384   6.701   2.149  0.3375  0.7973 -0.0221
 3656SOL     OW15814   0.973   5.488   2.686  0.1588 -0.1182  0.0178
 3656SOL    HW115815   1.008   5.557   2.743  0.2726 -1.3563  1.4653
 3656SOL    HW215816   1.045   5.427   2.673 -0.5445 -1.0689  0.4852
 3657SOL     OW15817   1.328   6.693   1.981  0.0202  0.0874  0.0002
 3657SOL    HW115818   1.281   6.609   1.986  1.4610 -0.8565 -1.5322
 3657SOL    HW215819   1.264   6.755   1.947 -1.1809 -0.2969  1.5412
 3658SOL     OW15820   0.336   8.422   4.710  0.4211 -0.0115  0.5929
 3658SOL    HW115821   0.275   8.495   4.697 -0.0270 -0.2431  1.3870
 3658SOL    HW215822   0.416   8.463   4.741  1.0955  0.4263 -1.6043
 3659SOL     OW15823   2.261   6.508   3.007  0.1042 -0.6674 -0.3508
 3659SOL    HW115824   2.180   6.550   3.036  0.9667  0.6306  0.2407
 3659SOL    HW215825   2.233   6.435   2.952 -1.4864 -0.9823  0.8645
 3660SOL     OW15826   1.095   6.697   4.369 -0.1949 -0.2832 -0.1665
 3660SOL    HW115827   1.036   6.712   4.296  0.5918 -0.1969 -0.7868
 3660SOL    HW215828   1.039   6.699   4.446 -1.0860 -0.7602 -0.8005
 3661SOL     OW15829   1.099   5.437   3.946 -0.2247 -0.0676  0.1124
 3661SOL    HW115830   1.055   5.520   3.964 -0.5306  0.0870 -1.2806
 3661SOL    HW215831   1.027   5.374   3.933 -0.0975  0.2824 -2.6203
 3662SOL     OW15832   1.477   5.456   2.964  0.2609 -0.3245 -0.2875
 3662SOL    HW115833   1.446   5.371   2.932 -0.3317 -0.7296  1.3574
 3662SOL    HW215834   1.438   5.465   3.050 -1.2333  2.4950 -1.2071
 3663SOL     OW15835   8.688   5.341   3.291 -0.2556 -0.6538  0.1161
 3663SOL    HW115836   8.630   5.279   3.248 -0.4439 -0.6005  0.2929
 3663SOL    HW215837   8.665   5.336   3.384  0.5542 -1.1949  0.2861
 3664SOL     OW15838   9.597   7.106   2.879 -0.4386 -0.3190 -0.0851
 3664SOL    HW115839   9.671   7.167   2.877 -0.8098  0.1315 -0.1127
 3664SOL    HW215840   9.522   7.159   2.853 -1.0364 -0.3963  1.4379
 3665SOL     OW15841   1.261   5.904   2.027 -0.6118  0.0512  0.0714
 3665SOL    HW115842   1.251   5.991   2.065 -1.4211 -0.4424  0.9796
 3665SOL    HW215843   1.353   5.901   1.999 -0.7118  1.3810 -0.4382
 3666SOL     OW15844   8.883   5.627   2.934  0.2499 -0.4808 -0.1394
 3666SOL    HW115845   8.816   5.615   3.002  0.3551 -0.5288 -0.0425
 3666SOL    HW215846   8.917   5.539   2.919  1.3041 -0.2673  0.8648
 3667SOL     OW15847   1.425   5.723   4.345  0.0573  0.5085  0.6998
 3667SOL    HW115848   1.337   5.729   4.309 -0.4426 -1.0718  1.5746
 3667SOL    HW215849   1.447   5.630   4.337  1.6316  0.8934  0.5112
 3668SOL     OW15850   1.998   6.498   3.079  0.4318  0.2009 -0.0264
 3668SOL    HW115851   1.998   6.424   3.139  1.3654 -1.1515 -1.6397
 3668SOL    HW215852   1.925   6.481   3.020  0.5242  0.6651 -0.2769
 3669SOL     OW15853   2.932   8.001   4.028 -0.3323  0.4772 -0.5592
 3669SOL    HW115854   2.899   8.041   4.109 -0.5141  1.3490 -1.0631
 3669SOL    HW215855   2.873   8.033   3.960  0.3721  0.4562 -1.1736
 3670SOL     OW15856   0.409   5.494   1.887 -0.1231 -0.9700 -0.7129
 3670SOL    HW115857   0.486   5.534   1.846 -0.3550 -0.0508 -0.2723
 3670SOL    HW215858   0.339   5.558   1.873 -0.4066 -1.0386  0.3660
 3671SOL     OW15859   0.999   5.744   2.376  0.2905  0.6697  0.2830
 3671SOL    HW115860   1.015   5.838   2.372  1.1723  0.5982  1.8202
 3671SOL    HW215861   0.976   5.726   2.467 -2.9762 -0.1677 -0.6326
 3672SOL     OW15862   0.410   5.749   3.276  0.2793 -0.4366  0.7087
 3672SOL    HW115863   0.464   5.826   3.261 -0.5572 -0.1306 -0.9101
 3672SOL    HW215864   0.473   5.677   3.288  1.0682 -0.0931 -1.1666
 3673SOL     OW15865   9.573   7.387   4.119 -0.0508 -0.7427  0.2269
 3673SOL    HW115866   9.643   7.453   4.127  0.2052 -0.9502 -0.3037
 3673SOL    HW215867   9.492   7.437   4.131  0.1216 -0.2575 -0.5708
 3674SOL     OW15868   0.855   8.293   2.485 -0.3167 -0.3015  0.1224
 3674SOL    HW115869   0.769   8.296   2.445 -0.2092  2.2941  0.0437
 3674SOL    HW215870   0.907   8.238   2.426 -1.7281 -1.3514 -0.1533
 3675SOL     OW15871   1.570   6.878   4.684 -0.1434 -0.1618  0.1613
 3675SOL    HW115872   1.505   6.862   4.616  0.4353 -0.0597 -0.4275
 3675SOL    HW215873   1.571   6.973   4.695 -0.3062 -0.1853  0.3833
 3676SOL     OW15874   1.072   5.975   1.213  0.1547  0.4506  0.0154
 3676SOL    HW115875   1.111   6.055   1.178  1.7597  0.6513  2.2013
 3676SOL    HW215876   1.141   5.909   1.207 -1.0699 -0.7378 -1.5121
 3677SOL     OW15877   2.564   5.754   0.868 -0.3283  0.7381 -0.7146
 3677SOL    HW115878   2.560   5.667   0.908  0.5992  1.2716  0.5847
 3677SOL    HW215879   2.489   5.801   0.906 -0.5127  0.6765 -1.0020
 3678SOL     OW15880   1.883   7.032   2.518 -0.2437 -0.1499 -0.2924
 3678SOL    HW115881   1.849   6.948   2.550  1.3575 -0.6022  0.2596
 3678SOL    HW215882   1.937   7.009   2.443  0.7272  0.3061  0.2551
 3679SOL     OW15883   9.613   5.667   3.309 -0.0480  0.8870 -0.0781
 3679SOL    HW115884   9.604   5.682   3.215 -1.5560  0.9733  0.0839
 3679SOL    HW215885   9.570   5.741   3.350  0.2253  0.6190  0.6968
 3680SOL     OW15886   9.893   6.147   2.120  0.3627  0.2650 -0.1714
 3680SOL    HW115887   9.855   6.145   2.032 -0.6118 -0.9001  0.2623
 3680SOL    HW215888   9.950   6.071   2.123 -1.1792 -0.8835  0.8760
 3681SOL     OW15889   0.165   4.733   4.397  0.0060 -0.1326  0.2298
 3681SOL    HW115890   0.133   4.811   4.444 -1.8965 -0.5627 -0.3399
 3681SOL    HW215891   0.130   4.659   4.447  0.0197 -0.6083 -0.4704
 3682SOL     OW15892   9.213   6.610   0.878 -0.0027 -0.9207  0.3868
 3682SOL    HW115893   9.151   6.664   0.927 -0.1604 -2.1886  1.5914
 3682SOL    HW215894   9.298   6.630   0.918  0.3176  0.3456 -0.8566
 3683SOL     OW15895   0.858   7.031   1.600 -0.4286 -0.4605  0.1577
 3683SOL    HW115896   0.807   7.079   1.665  0.3422 -1.1288  1.2642
 3683SOL    HW215897   0.805   6.954   1.580 -0.9336  0.0362 -0.4487
 3684SOL     OW15898   9.918   6.646   2.514 -0.5621  0.1088 -0.3483
 3684SOL    HW115899   9.874   6.713   2.462  1.2017  2.9198  1.6273
 3684SOL    HW215900  10.011   6.666   2.505  0.2065 -3.6950 -1.7571
 3685SOL     OW15901   9.486   5.388   3.000  0.0538 -0.5446  0.0022
 3685SOL    HW115902   9.464   5.478   2.978 -2.6463 -1.3239 -0.7117
 3685SOL    HW215903   9.566   5.370   2.952 -0.2914  0.9808 -1.1585
 3686SOL     OW15904   1.374   5.141   4.562  0.4795  0.4675 -0.1647
 3686SOL    HW115905   1.442   5.191   4.519 -0.1255  0.3410 -1.2781
 3686SOL    HW215906   1.323   5.103   4.491 -1.0610  0.9677  0.6493
 3687SOL     OW15907   2.181   5.794   4.236 -0.9919  0.1729 -0.1406
 3687SOL    HW115908   2.255   5.750   4.278 -0.8513  0.4654 -0.0862
 3687SOL    HW215909   2.218   5.833   4.157 -0.3653  3.1816  1.5705
 3688SOL     OW15910   1.281   6.007   0.851 -0.2679  0.1670 -0.1719
 3688SOL    HW115911   1.240   6.081   0.896  1.3505  1.2166 -0.3784
 3688SOL    HW215912   1.375   6.016   0.871 -0.0404 -1.7432 -0.3228
 3689SOL     OW15913   2.367   6.044   4.343 -0.5103 -0.2145 -0.1320
 3689SOL    HW115914   2.395   5.998   4.264 -0.3752  1.2058 -0.9224
 3689SOL    HW215915   2.362   5.976   4.410  2.8575 -0.8781 -0.4731
 3690SOL     OW15916   1.828   6.914   3.609 -0.2367  0.1833 -0.1987
 3690SOL    HW115917   1.855   6.862   3.685 -1.0747  0.3856  0.2354
 3690SOL    HW215918   1.825   6.852   3.537  0.9609  0.0626 -0.1689
 3691SOL     OW15919   1.557   8.240   4.011  0.0448  0.2336  0.3415
 3691SOL    HW115920   1.502   8.314   4.036  0.7257  0.2898  1.7695
 3691SOL    HW215921   1.498   8.165   4.012 -0.5371  0.6712 -0.6082
 3692SOL     OW15922   0.299   6.334   2.124 -0.1685  0.0682 -0.1040
 3692SOL    HW115923   0.206   6.358   2.123  0.6520  3.4952 -0.3158
 3692SOL    HW215924   0.324   6.340   2.216 -0.0931 -0.6653 -0.0732
 3693SOL     OW15925   0.594   7.558   2.709  0.0368 -0.4166 -0.1045
 3693SOL    HW115926   0.673   7.612   2.713  0.8137 -1.5144 -0.2338
 3693SOL    HW215927   0.561   7.571   2.620  0.3873 -0.3992 -0.2317
 3694SOL     OW15928   3.566   7.317   3.967 -0.0576 -0.0504 -0.5778
 3694SOL    HW115929   3.598   7.227   3.973 -0.9731 -0.3123  0.7656
 3694SOL    HW215930   3.618   7.356   3.898  0.0699 -1.7354 -1.4700
 3695SOL     OW15931   2.202   7.852   4.180 -0.4330  0.2283 -0.1391
 3695SOL    HW115932   2.178   7.859   4.272 -0.5895 -1.1710 -0.0644
 3695SOL    HW215933   2.133   7.899   4.134  0.3698  2.1234  0.5327
 3696SOL     OW15934   1.102   6.344   2.248 -0.1330  0.5027  0.0985
 3696SOL    HW115935   1.147   6.266   2.215  0.1857  1.0314 -0.7303
 3696SOL    HW215936   1.091   6.400   2.171 -0.3728  1.2724  0.6820
 3697SOL     OW15937   1.242   8.724   4.667 -0.4319  0.3475  0.3027
 3697SOL    HW115938   1.324   8.696   4.708 -1.5651 -2.5265  0.7689
 3697SOL    HW215939   1.177   8.719   4.737 -1.3883  0.5950 -0.5539
 3698SOL     OW15940   0.326   6.211   1.225  0.4195  0.0323  0.1129
 3698SOL    HW115941   0.327   6.116   1.212 -0.7446  0.0156  0.1183
 3698SOL    HW215942   0.275   6.245   1.151  3.1323  0.9092 -1.4275
 3699SOL     OW15943   1.143   8.459   2.060 -0.3173 -0.1416 -0.0141
 3699SOL    HW115944   1.089   8.539   2.063 -0.6962 -0.4017  0.0955
 3699SOL    HW215945   1.130   8.425   1.971  0.7356  0.5298 -0.4372
 3700SOL     OW15946   0.962   7.407   3.558  0.0626  0.1249  0.1322
 3700SOL    HW115947   1.017   7.475   3.519 -1.4510  1.7087  0.6708
 3700SOL    HW215948   0.939   7.350   3.485  0.9453  0.4717 -0.4245
 3701SOL     OW15949   1.165   6.809   4.013 -0.2146 -0.1127 -0.1442
 3701SOL    HW115950   1.259   6.815   3.997 -0.0026 -2.0544  0.1568
 3701SOL    HW215951   1.154   6.832   4.105 -0.0353  0.2140 -0.2069
 3702SOL     OW15952   9.933   8.545   4.793  0.8251 -0.0832  0.4569
 3702SOL    HW115953   9.885   8.497   4.861 -0.4678  1.4162  0.6311
 3702SOL    HW215954   9.918   8.494   4.713  2.1093 -1.6906  1.2083
 3703SOL     OW15955   9.554   8.754   2.057 -0.2240  1.0168 -1.0332
 3703SOL    HW115956   9.535   8.811   1.982 -1.0796 -0.1994 -1.7476
 3703SOL    HW215957   9.470   8.717   2.082  0.4011 -0.3112 -0.8688
 3704SOL     OW15958   2.663   5.791   2.793  0.3952  0.2153  0.0068
 3704SOL    HW115959   2.612   5.798   2.874 -0.2011 -0.9356 -0.2468
 3704SOL    HW215960   2.607   5.830   2.726  0.0374 -0.6029 -0.1839
 3705SOL     OW15961   9.771   5.816   2.148 -0.2536 -0.7250 -0.0807
 3705SOL    HW115962   9.858   5.852   2.131 -0.4733 -0.1699 -0.0388
 3705SOL    HW215963   9.779   5.773   2.233  0.2905 -1.6977 -0.6064
 3706SOL     OW15964   0.485   7.036   2.848 -0.3423  0.6533 -0.6501
 3706SOL    HW115965   0.404   7.016   2.800 -0.5074  2.4034 -1.1417
 3706SOL    HW215966   0.495   7.131   2.839  0.4572  0.7953  1.5082
 3707SOL     OW15967   1.976   6.518   2.149  0.2726  0.5232  0.5232
 3707SOL    HW115968   2.061   6.534   2.189  0.2414 -1.3449  1.3622
 3707SOL    HW215969   1.963   6.424   2.156 -1.5976  0.7105 -0.1356
 3708SOL     OW15970   0.929   6.121   1.625  0.1077 -0.3970 -0.2857
 3708SOL    HW115971   0.895   6.058   1.561  0.2033 -0.0049 -0.7291
 3708SOL    HW215972   0.965   6.067   1.695  0.6244 -0.8452 -0.8856
 3709SOL     OW15973   0.502   7.307   2.687 -0.3086  0.0955 -0.3361
 3709SOL    HW115974   0.565   7.376   2.705  0.2475 -0.1562 -1.3319
 3709SOL    HW215975   0.425   7.353   2.654  0.7966  0.1063 -3.0059
 3710SOL     OW15976   2.934   6.230   2.373  0.3684 -0.0542  0.5608
 3710SOL    HW115977   2.902   6.175   2.444 -3.9742  0.5822 -0.7473
 3710SOL    HW215978   2.946   6.317   2.412 -0.3158 -0.1047  0.8756
 3711SOL     OW15979   0.746   6.682   1.872  0.0931  0.0134  0.3222
 3711SOL    HW115980   0.679   6.670   1.940 -1.0985 -1.2005 -1.0430
 3711SOL    HW215981   0.813   6.735   1.915 -0.3491 -1.2090  2.6346
 3712SOL     OW15982   0.857   5.630   3.440  0.2688 -0.0479  0.7912
 3712SOL    HW115983   0.891   5.711   3.402  0.7106  0.0395  1.3641
 3712SOL    HW215984   0.893   5.628   3.529 -0.8410 -0.1899  1.2469
 3713SOL     OW15985   0.457   6.421   1.887 -0.0516  0.4537 -0.4514
 3713SOL    HW115986   0.444   6.513   1.864  0.8765  0.9747  0.9905
 3713SOL    HW215987   0.420   6.413   1.974 -1.9449 -1.0564 -1.3669
 3714SOL     OW15988   0.853   6.830   3.081 -0.1794  0.1034 -0.6267
 3714SOL    HW115989   0.784   6.848   3.017  0.0568  0.4506 -0.7876
 3714SOL    HW215990   0.914   6.772   3.036  0.5263  1.1908 -1.0697
 3715SOL     OW15991   1.423   6.564   2.594 -0.0573 -0.3496 -0.1377
 3715SOL    HW115992   1.395   6.641   2.545 -0.1547 -1.6706 -2.2556
 3715SOL    HW215993   1.362   6.495   2.566  1.3934 -1.7222  0.0481
 3716SOL     OW15994   1.072   4.796   4.141 -0.5316 -0.4194 -0.2298
 3716SOL    HW115995   1.158   4.758   4.125  0.2353  0.6167  1.3216
 3716SOL    HW215996   1.029   4.734   4.201 -0.0573  0.0940  0.6590
 3717SOL     OW15997   9.951   8.254   3.099  0.3674  0.0372 -0.0269
 3717SOL    HW115998   9.944   8.305   3.018  0.1596 -0.9819 -0.6613
 3717SOL    HW215999   9.925   8.314   3.168  2.9150  1.6808 -0.4366
 3718SOL     OW16000   1.037   6.147   4.133 -0.8561 -0.4958  1.2632
 3718SOL    HW116001   0.947   6.115   4.144 -0.4147 -1.4787  1.9626
 3718SOL    HW216002   1.079   6.083   4.076 -0.0579 -1.0107  2.4293
 3719SOL     OW16003   1.595   8.229   2.566  0.0122 -0.5258  0.1977
 3719SOL    HW116004   1.600   8.317   2.529  0.3064 -0.8828 -0.6242
 3719SOL    HW216005   1.532   8.236   2.637 -0.3264  0.2427 -0.1785
 3720SOL     OW16006   0.967   6.376   4.602 -0.1614  0.3790  0.1827
 3720SOL    HW116007   1.006   6.289   4.599  0.9733  0.8112  2.0343
 3720SOL    HW216008   1.041   6.436   4.610 -0.9194  1.5570 -1.2256
 3721SOL     OW16009   1.176   7.939   3.429 -0.1637 -0.2110  0.2214
 3721SOL    HW116010   1.097   7.991   3.437 -0.8495 -1.4788  1.9075
 3721SOL    HW216011   1.246   7.997   3.458 -0.5203  0.7331 -0.7653
 3722SOL     OW16012   3.191   7.019   4.216 -0.2104 -0.4714 -0.3761
 3722SOL    HW116013   3.166   6.931   4.244  0.9299 -1.0529 -1.1190
 3722SOL    HW216014   3.114   7.053   4.170 -1.1789 -0.4931  1.1869
 3723SOL     OW16015   0.547   5.099   3.710 -0.2342  0.5878 -0.1349
 3723SOL    HW116016   0.528   5.040   3.637 -0.2342  1.1779 -0.6197
 3723SOL    HW216017   0.485   5.171   3.699  0.0027  0.8535  0.2499
 3724SOL     OW16018   1.800   4.077   1.392  0.2261 -0.2003 -0.7490
 3724SOL    HW116019   1.881   4.030   1.373 -0.1761  0.3310 -4.1470
 3724SOL    HW216020   1.744   4.013   1.436  1.5790 -1.3109 -0.6211
 3725SOL     OW16021   1.789   6.277   5.397 -0.5290  0.0815  0.2547
 3725SOL    HW116022   1.755   6.322   5.474  1.0845  0.3010  0.8612
 3725SOL    HW216023   1.722   6.212   5.375 -1.2579  0.3970  1.4910
 3726SOL     OW16024   1.962   6.249   3.217 -0.5084 -0.0024  0.3168
 3726SOL    HW116025   1.878   6.235   3.175  0.3829 -0.7262 -1.2528
 3726SOL    HW216026   1.984   6.164   3.256 -0.0347 -0.0855 -0.1317
 3727SOL     OW16027   0.178   8.671   2.931 -0.4392 -0.2238 -0.3608
 3727SOL    HW116028   0.232   8.724   2.874 -0.2993  0.3670  0.3180
 3727SOL    HW216029   0.089   8.700   2.914 -0.4365 -0.3457 -0.5852
 3728SOL     OW16030   2.433   6.094   3.445  0.0045  0.0665  0.0859
 3728SOL    HW116031   2.348   6.136   3.436 -0.0605  0.0872  0.7457
 3728SOL    HW216032   2.496   6.162   3.423 -0.0171  1.1967  3.2835
 3729SOL     OW16033   0.788   6.917   2.334  0.7581  0.8111 -0.2384
 3729SOL    HW116034   0.732   6.994   2.346  0.0127  0.1291  0.6589
 3729SOL    HW216035   0.868   6.952   2.295 -0.1683  1.8329 -1.2412
 3730SOL     OW16036   1.374   8.186   1.757  0.1271  0.0341  0.2154
 3730SOL    HW116037   1.317   8.116   1.789 -0.7298  0.2964 -0.7047
 3730SOL    HW216038   1.371   8.178   1.662 -0.2575  1.5329  0.0834
 3731SOL     OW16039   9.678   6.857   2.452 -0.5607  0.6475  0.1730
 3731SOL    HW116040   9.627   6.795   2.401  0.7566  0.2529 -0.6815
 3731SOL    HW216041   9.624   6.936   2.456 -1.2209  0.2407 -0.7377
 3732SOL     OW16042   9.572   7.148   3.984 -0.1770 -0.0431 -0.5170
 3732SOL    HW116043   9.511   7.174   3.914 -0.1491  0.3110 -0.4121
 3732SOL    HW216044   9.567   7.220   4.047  1.0010  0.3976 -0.9231
 3733SOL     OW16045   2.969   6.305   3.954 -0.6934 -0.2149 -0.2213
 3733SOL    HW116046   2.896   6.250   3.926  0.0682  0.3766 -3.4924
 3733SOL    HW216047   3.039   6.244   3.976 -0.7039 -0.6257 -1.3415
 3734SOL     OW16048   0.297   5.484   3.351 -0.1769 -0.3136  0.3750
 3734SOL    HW116049   0.337   5.402   3.379  0.5206  0.0066  0.3307
 3734SOL    HW216050   0.207   5.460   3.326  0.0427 -1.0670  0.3015
 3735SOL     OW16051   1.923   6.301   3.688 -0.1473 -0.1958 -0.0026
 3735SOL    HW116052   1.917   6.206   3.690  4.2918 -0.5863 -0.9893
 3735SOL    HW216053   1.893   6.325   3.600 -3.4367 -0.3946  0.9957
 3736SOL     OW16054   1.452   6.956   2.970  0.7651 -0.0152 -0.0880
 3736SOL    HW116055   1.414   6.949   2.883  1.5137 -0.5497 -0.3742
 3736SOL    HW216056   1.380   6.938   3.030 -0.4646  3.1464 -0.4972
 3737SOL     OW16057   0.943   8.072   3.524  0.5473  0.1872 -0.0653
 3737SOL    HW116058   0.927   8.155   3.568  1.9980  0.2982  0.2876
 3737SOL    HW216059   0.950   8.008   3.595 -1.8903 -0.4970 -0.3943
 3738SOL     OW16060   2.694   6.453   3.060 -0.3062 -0.1315  0.3737
 3738SOL    HW116061   2.777   6.499   3.047 -0.9080  0.8080 -0.1653
 3738SOL    HW216062   2.643   6.511   3.118  0.0087 -1.4334  1.9839
 3739SOL     OW16063   0.303   4.109   4.279  0.1834 -0.4176 -0.6979
 3739SOL    HW116064   0.325   4.027   4.323  0.0349 -1.1454 -1.9582
 3739SOL    HW216065   0.368   4.172   4.312 -1.8167 -0.1405  2.8870
 3740SOL     OW16066   0.735   9.061   3.169  0.1175 -0.1600 -0.0199
 3740SOL    HW116067   0.770   9.033   3.253 -1.3827 -1.5148  0.1844
 3740SOL    HW216068   0.810   9.098   3.122  0.9258  0.8200  1.9800
 3741SOL     OW16069   0.218   6.313   3.832 -0.0112 -0.3076  0.1339
 3741SOL    HW116070   0.206   6.360   3.749  2.2461  2.0328  1.0337
 3741SOL    HW216071   0.130   6.305   3.869 -0.5433  2.9552 -0.2757
 3742SOL     OW16072   1.744   5.050   1.950 -0.0218 -0.0867 -0.2698
 3742SOL    HW116073   1.702   5.127   1.990  0.8934 -0.6557  1.8449
 3742SOL    HW216074   1.672   5.001   1.911 -0.7695  1.1837 -0.5245
 3743SOL     OW16075   2.471   6.919   4.018 -0.3138 -0.5040 -0.7950
 3743SOL    HW116076   2.452   6.996   4.072  1.8961 -0.6174  0.2017
 3743SOL    HW216077   2.554   6.940   3.975  0.4407 -2.4455 -0.2955
 3744SOL     OW16078   1.373   7.605   2.998  0.7405  0.5409  0.7052
 3744SOL    HW116079   1.352   7.696   2.977 -0.0011  0.0574 -0.6809
 3744SOL    HW216080   1.383   7.563   2.913  1.0673 -0.6764  1.3477
 3745SOL     OW16081   9.176   6.080   1.321 -0.0925  0.3065  0.2884
 3745SOL    HW116082   9.151   5.995   1.285  1.7323 -0.1109 -0.0497
 3745SOL    HW216083   9.227   6.059   1.400  1.2056  1.0255 -0.3326
 3746SOL     OW16084   0.220   6.479   4.392 -0.4152  0.3824 -0.5166
 3746SOL    HW116085   0.145   6.471   4.334  0.0148  1.1322 -1.1901
 3746SOL    HW216086   0.183   6.496   4.478 -1.0179  0.7953 -0.8565
 3747SOL     OW16087   9.795   7.530   4.893 -0.4681  0.1185  0.1544
 3747SOL    HW116088   9.871   7.495   4.941 -0.8279 -0.8142  0.0447
 3747SOL    HW216089   9.810   7.503   4.803 -0.7153  0.3018  0.0612
 3748SOL     OW16090   9.462   8.445   4.732 -1.2023 -0.3450  0.7548
 3748SOL    HW116091   9.401   8.435   4.659 -0.6742 -0.4956  0.3280
 3748SOL    HW216092   9.548   8.443   4.691 -0.8250 -2.2071  1.5612
 3749SOL     OW16093   1.814   7.056   4.157  0.3919  0.3835  0.1994
 3749SOL    HW116094   1.852   6.977   4.195 -0.4276 -0.7997 -1.3594
 3749SOL    HW216095   1.759   7.024   4.086 -0.0141  2.3664 -0.4141
 3750SOL     OW16096   2.689   8.682   5.190 -0.0767 -0.2140 -0.4046
 3750SOL    HW116097   2.645   8.764   5.168 -0.3486 -0.3217 -0.2691
 3750SOL    HW216098   2.782   8.699   5.173  0.5259  1.6226  4.0097
 3751SOL     OW16099   1.052   5.412   5.623 -0.2267 -0.2615 -0.1086
 3751SOL    HW116100   1.111   5.480   5.656 -0.8861 -0.0675  0.6574
 3751SOL    HW216101   1.107   5.333   5.618 -0.5733 -0.7798  3.2511
 3752SOL     OW16102   1.788   5.556   4.093 -0.1687 -0.4522  0.1022
 3752SOL    HW116103   1.793   5.498   4.017  0.9332  1.8658 -1.6618
 3752SOL    HW216104   1.737   5.631   4.063 -0.5180  0.0850  1.9445
 3753SOL     OW16105   1.377   6.833   4.877  0.1278  0.3357 -0.1265
 3753SOL    HW116106   1.429   6.870   4.805  0.7056  0.3942  0.3164
 3753SOL    HW216107   1.410   6.744   4.888  0.4860  0.5411  0.4900
 3754SOL     OW16108   0.707   6.466   4.447  0.0733  0.7870  0.1937
 3754SOL    HW116109   0.798   6.440   4.432 -0.3665  0.4548 -2.0897
 3754SOL    HW216110   0.709   6.561   4.438  0.0580  0.7062 -0.7655
 3755SOL     OW16111   0.206   4.098   3.796 -0.5491 -0.0492 -0.4737
 3755SOL    HW116112   0.261   4.023   3.772  0.8194  1.0225 -0.7378
 3755SOL    HW216113   0.267   4.159   3.839 -1.3622  1.5107 -1.5000
 3756SOL     OW16114   0.040   6.058   5.085 -0.2693 -0.2221  0.3995
 3756SOL    HW116115   0.128   6.094   5.076 -0.2975 -0.1725  0.3157
 3756SOL    HW216116   0.040   6.014   5.170 -0.6738  1.1886  1.1414
 3757SOL     OW16117   0.488   5.865   5.157 -0.0706  0.2747 -0.7638
 3757SOL    HW116118   0.567   5.862   5.104 -0.2184 -1.0110 -0.9104
 3757SOL    HW216119   0.421   5.902   5.100  0.3257  1.0115 -0.7555
 3758SOL     OW16120   1.569   5.804   4.140 -0.0076 -0.2829  0.5109
 3758SOL    HW116121   1.648   5.834   4.184 -1.9618  1.6708  2.8202
 3758SOL    HW216122   1.514   5.770   4.211 -1.7725 -0.3603 -0.8696
 3759SOL     OW16123   0.500   4.711   5.605 -0.1617 -0.2467  0.2707
 3759SOL    HW116124   0.476   4.801   5.580 -2.2557 -1.1038 -0.9451
 3759SOL    HW216125   0.474   4.705   5.697  0.6842  0.6071  0.5808
 3760SOL     OW16126   1.725   6.385   4.697 -0.4640 -0.4353  0.1705
 3760SOL    HW116127   1.667   6.396   4.773  0.9598  0.2096  1.1981
 3760SOL    HW216128   1.800   6.337   4.732  0.1971 -0.1561 -0.8462
 3761SOL     OW16129   9.817   9.267   2.814 -0.1712 -0.3902 -0.5804
 3761SOL    HW116130   9.789   9.204   2.880 -0.2088 -0.4481 -0.6535
 3761SOL    HW216131   9.822   9.217   2.733  2.5084 -0.9439 -0.1040
 3762SOL     OW16132   1.801   7.522   5.148 -0.1618  0.1457 -0.3682
 3762SOL    HW116133   1.749   7.495   5.224 -1.1508  0.8442 -0.7951
 3762SOL    HW216134   1.765   7.606   5.123  1.7823  1.0860 -0.1107
 3763SOL     OW16135   1.082   7.209   4.574  0.2834  0.2019 -0.0109
 3763SOL    HW116136   1.047   7.120   4.573 -1.6779  0.9736 -1.8363
 3763SOL    HW216137   1.136   7.215   4.495  0.5649  0.5772  0.2051
 3764SOL     OW16138   1.293   7.314   4.372 -1.0297 -0.0513  0.2733
 3764SOL    HW116139   1.326   7.337   4.285  0.0188  1.7712  1.1331
 3764SOL    HW216140   1.240   7.389   4.398  0.1950  0.2470  1.9839
 3765SOL     OW16141   1.915   7.366   4.091 -0.1610  0.5056 -0.1229
 3765SOL    HW116142   1.955   7.291   4.046 -0.7298  0.6951 -0.9488
 3765SOL    HW216143   1.935   7.351   4.183  0.1942 -0.3882 -0.3347
 3766SOL     OW16144   0.028   7.820   4.211 -0.2288 -0.2352  0.3654
 3766SOL    HW116145   0.091   7.800   4.141  0.4469  0.8070  0.6781
 3766SOL    HW216146   0.000   7.910   4.194 -0.0721  0.0207  1.4355
 3767SOL     OW16147   0.316   6.907   4.060 -0.3193  0.1444 -0.0926
 3767SOL    HW116148   0.274   6.832   4.018  2.6808 -1.1438 -0.9239
 3767SOL    HW216149   0.303   6.979   3.998  0.5427 -0.7642 -1.3634
 3768SOL     OW16150   0.242   7.132   4.421 -0.0964 -0.3240 -0.5095
 3768SOL    HW116151   0.330   7.166   4.399  0.6968 -0.3285  2.4584
 3768SOL    HW216152   0.245   7.040   4.395 -0.2097  0.3141 -2.9870
 3769SOL     OW16153   0.470   7.511   3.985  0.6701  0.2937  0.1106
 3769SOL    HW116154   0.554   7.544   3.954  0.3784 -0.1532 -1.1773
 3769SOL    HW216155   0.425   7.479   3.907 -2.4981  4.3484  0.0871
 3770SOL     OW16156   0.691   7.053   3.509 -0.3786  0.1237  0.3467
 3770SOL    HW116157   0.605   7.014   3.497 -0.5634 -0.1287  2.2597
 3770SOL    HW216158   0.698   7.066   3.604  0.3720  3.1371 -0.0665
 3771SOL     OW16159   2.643   6.020   4.454 -0.2178 -0.6020  0.0830
 3771SOL    HW116160   2.737   6.003   4.463 -0.3186 -1.0876  0.2334
 3771SOL    HW216161   2.634   6.066   4.371  0.2545  0.2119  0.4821
 3772SOL     OW16162   9.612   7.554   5.838 -0.7137  0.1575  0.2389
 3772SOL    HW116163   9.586   7.642   5.809 -1.1009 -0.4305 -1.2124
 3772SOL    HW216164   9.651   7.513   5.761  1.2221 -0.2753  1.4344
 3773SOL     OW16165   1.462   6.316   3.551 -0.2588 -0.1544 -0.0333
 3773SOL    HW116166   1.518   6.329   3.628  0.8817  0.5470 -0.9536
 3773SOL    HW216167   1.502   6.372   3.484 -0.4493 -1.7826 -1.5258
 3774SOL     OW16168   9.672   5.862   3.748 -0.2551  0.2899  0.2607
 3774SOL    HW116169   9.637   5.846   3.836 -1.3791 -0.1286 -0.2498
 3774SOL    HW216170   9.646   5.785   3.698  0.3578  0.5401 -0.4468
 3775SOL     OW16171   1.374   7.149   6.689 -0.1881  0.1756 -0.3608
 3775SOL    HW116172   1.405   7.238   6.673  0.5653 -0.3039 -1.6358
 3775SOL    HW216173   1.280   7.151   6.671  0.0268  0.4636 -1.4687
 3776SOL     OW16174   0.555   5.644   5.313 -0.0868  0.0523  0.1015
 3776SOL    HW116175   0.620   5.616   5.249 -0.3648 -1.5321  0.4911
 3776SOL    HW216176   0.524   5.728   5.280 -1.4679 -1.5022 -2.7799
 3777SOL     OW16177   1.218   4.987   4.923 -0.3676  0.3115  0.3992
 3777SOL    HW116178   1.231   5.038   5.003 -2.3106 -0.2318  1.0945
 3777SOL    HW216179   1.200   4.898   4.953  2.0284 -0.6115 -0.7828
 3778SOL     OW16180   2.817   6.684   3.950  0.0912 -0.2526 -0.3202
 3778SOL    HW116181   2.837   6.662   3.859  0.1754 -0.4372 -0.2549
 3778SOL    HW216182   2.826   6.780   3.953 -0.9199 -0.1296 -0.7577
 3779SOL     OW16183   2.440   8.015   2.553  0.1177 -0.1188  0.5222
 3779SOL    HW116184   2.375   8.066   2.504 -0.2156 -2.1667 -1.2171
 3779SOL    HW216185   2.389   7.967   2.618 -0.0907 -1.3914 -0.5592
 3780SOL     OW16186   2.959   5.853   3.969  0.0284 -0.1360  0.6195
 3780SOL    HW116187   3.049   5.823   3.984 -0.4384 -0.2110  3.5045
 3780SOL    HW216188   2.904   5.784   4.005 -1.2123  0.0695 -0.8210
 3781SOL     OW16189   1.739   7.834   5.665 -0.2153  0.3367 -0.3716
 3781SOL    HW116190   1.782   7.917   5.643 -2.6631  1.6667 -0.2978
 3781SOL    HW216191   1.688   7.812   5.587 -0.1018 -0.7589 -0.1435
 3782SOL     OW16192   0.484   6.819   3.794  0.0854 -0.1965  0.7067
 3782SOL    HW116193   0.558   6.789   3.848 -1.0904  0.3042  2.6322
 3782SOL    HW216194   0.409   6.768   3.825 -0.7256  0.4859 -0.0919
 3783SOL     OW16195   0.840   4.825   5.948 -0.2491 -0.2981 -0.3810
 3783SOL    HW116196   0.884   4.904   5.979  0.1505  0.1183 -1.9669
 3783SOL    HW216197   0.829   4.838   5.854 -1.0147 -1.7279 -0.5121
 3784SOL     OW16198   9.768   7.011   4.940 -0.0056  0.1038 -0.7690
 3784SOL    HW116199   9.730   7.098   4.953  0.7646  0.1818  1.0608
 3784SOL    HW216200   9.789   7.008   4.846  2.1884  2.8257 -0.4326
 3785SOL     OW16201   1.068   4.553   3.618  0.2765 -0.2187 -0.2606
 3785SOL    HW116202   0.993   4.500   3.648 -0.3973  1.1076  0.4031
 3785SOL    HW216203   1.047   4.571   3.526  0.9585 -1.8619 -0.7634
 3786SOL     OW16204   9.738   6.115   5.317 -0.2186 -0.3398 -0.3710
 3786SOL    HW116205   9.703   6.161   5.240 -1.9322  0.6914  0.9712
 3786SOL    HW216206   9.758   6.185   5.379  0.5746 -1.2090  0.3547
 3787SOL     OW16207   9.377   8.761   4.986 -0.4098  0.1853 -0.0964
 3787SOL    HW116208   9.385   8.833   4.924 -0.4899  0.1635 -0.1318
 3787SOL    HW216209   9.291   8.723   4.968 -0.6546  0.5125  0.3873
 3788SOL     OW16210   0.839   4.502   3.741 -0.3073  0.0777  0.0077
 3788SOL    HW116211   0.765   4.507   3.681 -0.0933 -0.7417 -0.3429
 3788SOL    HW216212   0.848   4.590   3.776 -2.3728 -0.1520  1.1710
 3789SOL     OW16213   1.855   6.705   5.419  0.3552  0.5177  0.2215
 3789SOL    HW116214   1.770   6.732   5.383  1.1622  2.5669 -0.2603
 3789SOL    HW216215   1.858   6.747   5.505 -0.3849 -2.0805  1.5602
 3790SOL     OW16216   1.891   7.702   4.367  0.5338 -0.6922 -0.1016
 3790SOL    HW116217   1.882   7.749   4.284  1.2533  0.2074  0.3302
 3790SOL    HW216218   1.831   7.746   4.427  0.3783 -1.0331 -0.0030
 3791SOL     OW16219   3.388   6.250   4.155  0.1179 -0.1277 -0.0847
 3791SOL    HW116220   3.374   6.262   4.249  1.8174 -0.1405  0.1902
 3791SOL    HW216221   3.426   6.333   4.126 -0.3929 -0.1286 -0.7723
 3792SOL     OW16222   1.814   5.528   5.104 -0.4207 -0.0952  0.2306
 3792SOL    HW116223   1.903   5.494   5.099 -0.8560 -1.0978 -1.1201
 3792SOL    HW216224   1.770   5.471   5.168  0.2638  1.2694  1.9424
 3793SOL     OW16225   2.583   7.239   5.444 -0.2057 -0.5592  0.0544
 3793SOL    HW116226   2.602   7.307   5.509 -0.3040  0.4362 -0.9360
 3793SOL    HW216227   2.653   7.247   5.379 -1.5339  0.2082 -1.3225
 3794SOL     OW16228   1.741   6.679   4.709 -0.7227 -0.2826 -0.0406
 3794SOL    HW116229   1.693   6.598   4.726 -1.6744  0.1143 -0.8198
 3794SOL    HW216230   1.674   6.744   4.690  0.0423  0.6921  0.5645
 3795SOL     OW16231   9.001   6.029   4.452  0.1543  0.4401  0.0120
 3795SOL    HW116232   8.949   6.108   4.458  0.2386  0.5939 -1.0699
 3795SOL    HW216233   8.965   5.982   4.377  0.2919 -0.3991  0.4697
 3796SOL     OW16234   3.414   6.293   4.482 -0.1824  0.1296  0.3062
 3796SOL    HW116235   3.340   6.233   4.472 -0.3433  0.2298  0.8942
 3796SOL    HW216236   3.480   6.242   4.528 -0.3320  0.4075  0.8370
 3797SOL     OW16237   8.938   8.507   6.897  0.2357  0.1591  0.0508
 3797SOL    HW116238   8.998   8.441   6.863  0.1966  0.9282 -1.5227
 3797SOL    HW216239   8.915   8.476   6.985  2.3183 -0.5348  0.3625
 3798SOL     OW16240   1.834   7.459   3.226  0.0443  0.3107 -0.7996
 3798SOL    HW116241   1.853   7.369   3.251 -0.9084 -0.2371 -2.0065
 3798SOL    HW216242   1.817   7.504   3.309 -1.8248 -1.1805 -0.3499
 3799SOL     OW16243   0.531   5.577   6.033 -0.4275 -1.1078  0.4771
 3799SOL    HW116244   0.620   5.544   6.045  0.0024 -0.3026 -0.4536
 3799SOL    HW216245   0.506   5.549   5.945 -1.2762 -1.7229  0.9004
 3800SOL     OW16246   2.374   5.293   4.432  0.0293 -0.3900 -0.5018
 3800SOL    HW116247   2.279   5.296   4.446 -0.0809  0.0214 -1.2864
 3800SOL    HW216248   2.384   5.261   4.342  0.5912  0.7299 -0.8519
 3801SOL     OW16249   1.123   7.410   4.913  0.5564  0.3312 -0.2234
 3801SOL    HW116250   1.159   7.322   4.908 -2.4144 -0.8913 -1.2581
 3801SOL    HW216251   1.120   7.440   4.821  0.6397  1.1136  0.0231
 3802SOL     OW16252   1.005   6.205   3.562  0.2025  0.2427  0.0014
 3802SOL    HW116253   0.912   6.199   3.584  0.2386  0.1430  0.1273
 3802SOL    HW216254   1.038   6.277   3.615  0.0976  0.5799 -0.3875
 3803SOL     OW16255   0.157   7.217   6.744  0.3405  0.2146  0.8195
 3803SOL    HW116256   0.122   7.302   6.717 -1.7678 -1.2127 -1.0856
 3803SOL    HW216257   0.214   7.190   6.672 -1.6084 -1.4699 -0.1460
 3804SOL     OW16258   0.996   7.651   4.992  0.0993  0.0302  0.3151
 3804SOL    HW116259   1.047   7.572   4.971  0.3456  0.5346 -1.0440
 3804SOL    HW216260   0.977   7.643   5.085 -2.7603 -3.3346 -0.4582
 3805SOL     OW16261   2.400   7.691   4.569  0.0242 -0.0516  0.0005
 3805SOL    HW116262   2.450   7.772   4.572 -0.9218  0.5937 -1.4504
 3805SOL    HW216263   2.418   7.654   4.483 -0.6619 -0.6619  0.1137
 3806SOL     OW16264   2.052   4.977   6.374 -0.2846  0.3776 -0.1655
 3806SOL    HW116265   2.003   4.908   6.328 -0.9319 -1.1013  2.6425
 3806SOL    HW216266   2.045   5.053   6.316 -2.7110 -0.8688 -1.6137
 3807SOL     OW16267   8.843   6.542   2.726 -0.7249 -0.1788 -0.3539
 3807SOL    HW116268   8.843   6.461   2.677 -0.2713 -1.2918  1.4253
 3807SOL    HW216269   8.859   6.610   2.661  1.3860 -1.7479 -1.5255
 3808SOL     OW16270   1.581   6.212   4.460  0.0918 -0.4379  0.2660
 3808SOL    HW116271   1.566   6.173   4.546  0.0735 -0.1512  0.3922
 3808SOL    HW216272   1.658   6.268   4.471 -1.7154  2.0149  0.8876
 3809SOL     OW16273   0.253   7.433   4.785  0.5449  0.0532 -0.1314
 3809SOL    HW116274   0.192   7.402   4.852  2.9729 -0.9018  1.7162
 3809SOL    HW216275   0.269   7.525   4.806  0.1166  0.1822 -0.3550
 3810SOL     OW16276   2.191   6.173   5.034 -0.1820  0.3789  0.3669
 3810SOL    HW116277   2.125   6.222   5.084 -0.9103  1.8301 -1.9012
 3810SOL    HW216278   2.200   6.090   5.080 -3.7200  0.0934  0.6882
 3811SOL     OW16279   0.532   5.955   5.541 -0.0461  0.1972  0.2017
 3811SOL    HW116280   0.588   5.888   5.580 -1.0490 -0.6630  0.1739
 3811SOL    HW216281   0.451   5.951   5.591 -0.7238  0.2517 -0.8768
 3812SOL     OW16282   1.658   5.961   3.732  0.2539  0.2700  0.6120
 3812SOL    HW116283   1.667   6.018   3.808 -1.4017 -0.0589  1.0782
 3812SOL    HW216284   1.571   5.982   3.697  0.4257 -0.5956 -0.3481
 3813SOL     OW16285   1.879   6.172   2.859 -0.2507  0.1118  0.5841
 3813SOL    HW116286   1.817   6.170   2.931  0.5660  0.6417  1.3064
 3813SOL    HW216287   1.962   6.142   2.897  0.1381  0.2210 -0.1627
 3814SOL     OW16288   1.341   6.755   5.702  0.2290 -0.1231  0.9776
 3814SOL    HW116289   1.363   6.756   5.608  0.1655 -2.5659  0.9037
 3814SOL    HW216290   1.426   6.757   5.746  0.2373  2.4700  0.9386
 3815SOL     OW16291   0.500   5.639   2.620  0.3160  0.1551  0.2856
 3815SOL    HW116292   0.448   5.665   2.544  0.3533  1.0526  0.5622
 3815SOL    HW216293   0.573   5.589   2.582  1.3785  2.2041 -0.4610
 3816SOL     OW16294   1.659   6.085   4.803 -0.1025  0.3285 -0.3602
 3816SOL    HW116295   1.591   6.117   4.863 -1.3290 -1.6602 -0.6627
 3816SOL    HW216296   1.739   6.129   4.833 -0.5200 -1.1823  3.2352
 3817SOL     OW16297   9.630   5.861   5.041  0.0289  0.2824 -0.0639
 3817SOL    HW116298   9.570   5.921   4.997  0.8968  2.1095  1.1930
 3817SOL    HW216299   9.717   5.898   5.027  0.5403 -0.4630  1.0397
 3818SOL     OW16300   1.966   8.499   5.102 -0.0592  0.7631 -0.3455
 3818SOL    HW116301   1.988   8.587   5.132 -2.2938  0.8901  1.0144
 3818SOL    HW216302   1.967   8.446   5.182 -2.8261  0.4422 -0.4656
 3819SOL     OW16303   9.477   7.072   5.223 -0.3758 -0.3238  0.7895
 3819SOL    HW116304   9.399   7.019   5.238 -0.2731  0.4330  4.3379
 3819SOL    HW216305   9.541   7.011   5.188 -2.0123 -1.3156 -0.5544
 3820SOL     OW16306   2.669   7.599   2.949 -0.5985  0.1166  0.0837
 3820SOL    HW116307   2.637   7.629   3.033  2.9542  1.1288  1.1597
 3820SOL    HW216308   2.707   7.513   2.967  0.2426  0.3681 -0.4464
 3821SOL     OW16309   0.456   5.445   3.100  0.0089 -0.1190 -0.2210
 3821SOL    HW116310   0.428   5.496   3.176 -1.7425  2.2834 -2.4156
 3821SOL    HW216311   0.405   5.364   3.106 -0.4448  0.2350  0.8951
 3822SOL     OW16312   9.071   6.311   4.974  0.0224 -0.9394  0.1229
 3822SOL    HW116313   9.039   6.312   5.064 -0.3026  1.2147  0.0105
 3822SOL    HW216314   8.992   6.321   4.921  0.4735  0.6179 -0.2824
 3823SOL     OW16315   0.744   5.382   4.802 -0.0222  0.5252  0.1701
 3823SOL    HW116316   0.751   5.293   4.767  2.0888  1.2698 -1.4335
 3823SOL    HW216317   0.688   5.373   4.879 -1.2196 -1.9015 -0.9261
 3824SOL     OW16318   0.275   7.175   3.913  0.0188 -0.0366  0.1793
 3824SOL    HW116319   0.314   7.257   3.882 -0.3073 -0.2995 -0.9324
 3824SOL    HW216320   0.242   7.197   4.001 -1.4468  1.4564 -0.7139
 3825SOL     OW16321   0.189   6.603   4.833 -0.1218  0.4305 -0.1964
 3825SOL    HW116322   0.137   6.676   4.798 -0.6293  0.9830  1.6755
 3825SOL    HW216323   0.158   6.527   4.784 -0.4620  1.2611 -1.3048
 3826SOL     OW16324   1.377   4.241   4.388 -0.4472  0.1410 -0.2009
 3826SOL    HW116325   1.353   4.247   4.480  0.9666  0.8182  0.1262
 3826SOL    HW216326   1.364   4.149   4.366 -0.0973 -0.1616  0.8547
 3827SOL     OW16327   0.899   5.654   2.950  0.1983 -0.2869 -0.6617
 3827SOL    HW116328   0.887   5.748   2.961 -1.2081 -0.8671  3.4587
 3827SOL    HW216329   0.819   5.625   2.904 -0.8055  0.1274  0.7887
 3828SOL     OW16330   2.057   4.995   5.431 -0.2605  0.4258 -0.2557
 3828SOL    HW116331   2.118   4.984   5.358  1.6316 -1.0553  1.4624
 3828SOL    HW216332   2.069   5.086   5.459  1.5618  0.0120  0.3684
 3829SOL     OW16333   1.819   9.168   4.539 -0.4786  0.6447  0.0648
 3829SOL    HW116334   1.907   9.191   4.509 -0.1714  0.2159  0.6435
 3829SOL    HW216335   1.800   9.231   4.608  0.3852 -0.8674  1.6917
 3830SOL     OW16336   0.606   5.803   4.084  0.0546 -0.1330  0.2584
 3830SOL    HW116337   0.527   5.858   4.082 -0.7600 -1.2090  1.7773
 3830SOL    HW216338   0.678   5.865   4.094 -0.8666  0.6736  2.0662
 3831SOL     OW16339   2.270   6.450   5.700 -0.7011 -0.1996  0.0677
 3831SOL    HW116340   2.281   6.427   5.608 -1.0840 -2.0405  0.4644
 3831SOL    HW216341   2.193   6.507   5.702 -0.9853 -0.5590 -0.6942
 3832SOL     OW16342   2.742   6.793   6.003  0.0432 -0.3430  0.0748
 3832SOL    HW116343   2.727   6.781   5.910  0.1427  1.3197 -0.1760
 3832SOL    HW216344   2.686   6.728   6.046 -0.7034 -0.4842 -1.1087
 3833SOL     OW16345   2.406   7.315   6.957  0.7768  0.2709 -0.0124
 3833SOL    HW116346   2.317   7.350   6.957  0.2736 -1.0036  0.0323
 3833SOL    HW216347   2.428   7.306   6.864 -0.2749 -2.2522 -0.0400
 3834SOL     OW16348   3.351   6.394   4.767  0.0896  0.2065  0.1129
 3834SOL    HW116349   3.290   6.405   4.694  0.5679  2.2181 -0.0063
 3834SOL    HW216350   3.437   6.401   4.727  0.3557  0.9233  0.7929
 3835SOL     OW16351   1.913   6.028   5.291  0.2681  0.0204  0.3759
 3835SOL    HW116352   1.866   5.960   5.242 -0.7136  1.3120 -0.5017
 3835SOL    HW216353   1.845   6.089   5.319  1.5307  2.6512 -2.0605
 3836SOL     OW16354   9.397   6.293   3.945  0.2589 -0.1553 -0.2259
 3836SOL    HW116355   9.308   6.328   3.935 -0.7024 -2.5830 -0.5549
 3836SOL    HW216356   9.447   6.334   3.875 -0.7963  0.6668 -0.5120
 3837SOL     OW16357   1.162   5.549   4.441  0.0510  0.0977 -0.3658
 3837SOL    HW116358   1.211   5.530   4.361  0.3346  0.7951 -0.3628
 3837SOL    HW216359   1.108   5.624   4.419 -1.1422 -0.7568 -0.4121
 3838SOL     OW16360   0.763   7.484   4.150 -0.3120  0.1884  0.3586
 3838SOL    HW116361   0.697   7.466   4.083 -1.0916 -0.2548  1.2201
 3838SOL    HW216362   0.811   7.559   4.118 -0.4228 -0.2638 -0.8819
 3839SOL     OW16363   0.309   6.192   5.054 -0.4878 -0.3844  0.2776
 3839SOL    HW116364   0.304   6.116   4.996 -0.0944 -1.2436  1.3564
 3839SOL    HW216365   0.335   6.264   4.996 -0.5206 -1.1296 -0.6873
 3840SOL     OW16366   1.481   7.215   6.283 -0.4126 -0.6462 -0.8293
 3840SOL    HW116367   1.476   7.269   6.361  0.2252 -2.3762  0.4275
 3840SOL    HW216368   1.408   7.246   6.228 -1.2164  0.1898  0.6828
 3841SOL     OW16369   9.828   7.073   5.368  0.0359  0.2374 -0.3564
 3841SOL    HW116370   9.745   7.098   5.409  0.7224  0.3557  0.9924
 3841SOL    HW216371   9.832   6.978   5.379  1.4408  0.5465  2.2678
 3842SOL     OW16372   1.848   7.178   5.809 -0.2457 -0.2245  0.3755
 3842SOL    HW116373   1.755   7.202   5.807  0.2219  1.5279 -1.5248
 3842SOL    HW216374   1.869   7.156   5.718  1.2251 -0.5238  0.7852
 3843SOL     OW16375   0.817   6.258   2.864  0.1954 -0.1793  0.9312
 3843SOL    HW116376   0.728   6.276   2.893  0.6179 -0.4258  2.4439
 3843SOL    HW216377   0.818   6.283   2.772 -1.7383 -1.2263  0.5925
 3844SOL     OW16378   9.664   7.818   5.400 -0.0106  0.2910  0.2637
 3844SOL    HW116379   9.720   7.881   5.354 -1.3787  0.6191 -0.9552
 3844SOL    HW216380   9.620   7.870   5.467 -1.6447  0.8114 -1.1682
 3845SOL     OW16381   1.119   5.491   2.966 -0.1289 -0.2122 -0.4006
 3845SOL    HW116382   1.037   5.522   3.003 -0.4337 -0.8526 -0.5368
 3845SOL    HW216383   1.168   5.458   3.041  0.4709  1.1916 -0.1602
 3846SOL     OW16384   0.419   7.478   4.439 -0.0568  0.3774 -0.3268
 3846SOL    HW116385   0.430   7.386   4.414 -1.2007  0.3920 -0.8898
 3846SOL    HW216386   0.361   7.476   4.515  0.9312  0.5584  0.4546
 3847SOL     OW16387   9.512   5.788   4.297 -0.0907 -0.2657  0.2065
 3847SOL    HW116388   9.468   5.865   4.332  1.7749  0.6870  0.5261
 3847SOL    HW216389   9.477   5.714   4.346 -0.2804  0.6410  1.4287
 3848SOL     OW16390   1.345   7.059   5.438 -0.2054 -0.6112 -0.1833
 3848SOL    HW116391   1.359   6.966   5.418 -0.0707 -0.5995 -0.1403
 3848SOL    HW216392   1.250   7.068   5.443 -0.2365 -0.6503 -0.6507
 3849SOL     OW16393   1.599   4.764   5.562  1.0814 -0.3247  0.0837
 3849SOL    HW116394   1.583   4.674   5.590 -2.3238  0.3124  0.4153
 3849SOL    HW216395   1.532   4.815   5.607  1.9403  2.1491 -1.3626
 3850SOL     OW16396   1.743   5.977   7.207  0.1463  0.1602  0.4216
 3850SOL    HW116397   1.839   5.970   7.210  0.1602  0.3156  0.3557
 3850SOL    HW216398   1.716   5.910   7.144  0.4711  2.4604 -2.2778
 3851SOL     OW16399   1.058   7.484   4.633  0.9905 -0.5019 -0.0052
 3851SOL    HW116400   1.091   7.511   4.548  0.7518  1.3496  0.4593
 3851SOL    HW216401   1.040   7.390   4.624  0.3914 -0.2023 -2.1749
 3852SOL     OW16402   1.934   5.936   5.567  0.3724  0.4123 -0.1150
 3852SOL    HW116403   1.954   5.996   5.496  1.3100  0.2330 -0.0170
 3852SOL    HW216404   1.893   5.860   5.525  0.3187  0.5905 -0.3822
 3853SOL     OW16405   0.007   6.772   4.700  0.5848 -0.2793  0.5128
 3853SOL    HW116406  -0.039   6.856   4.704 -0.1099 -0.5804 -0.9131
 3853SOL    HW216407  -0.062   6.707   4.716  0.3472 -0.7715 -2.2960
 3854SOL     OW16408   0.951   5.762   4.714 -0.7588  0.1872 -0.2244
 3854SOL    HW116409   0.940   5.837   4.772  0.3434  0.3152 -0.1718
 3854SOL    HW216410   1.028   5.717   4.747 -0.1154  0.2608 -1.5906
 3855SOL     OW16411   8.521   6.377   4.659 -0.0606 -0.2326 -0.1911
 3855SOL    HW116412   8.594   6.439   4.657  1.0010 -1.4399  0.0736
 3855SOL    HW216413   8.483   6.382   4.572 -0.3102  1.1566 -0.0121
 3856SOL     OW16414   1.784   5.729   5.431  0.1366 -0.0261  0.0636
 3856SOL    HW116415   1.743   5.721   5.344 -0.7749 -0.3983  0.5205
 3856SOL    HW216416   1.877   5.711   5.415 -0.2094 -1.3034 -0.6539
 3857SOL     OW16417   1.557   6.565   5.928 -0.3163  0.3822 -0.6561
 3857SOL    HW116418   1.573   6.569   6.022 -1.0723 -0.9303 -0.4646
 3857SOL    HW216419   1.514   6.481   5.914 -1.8325  1.3231 -1.9316
 3858SOL     OW16420   1.425   7.038   4.207  0.2795 -0.4238 -0.1552
 3858SOL    HW116421   1.336   7.021   4.239  0.4716  0.0662  0.6731
 3858SOL    HW216422   1.414   7.101   4.136  0.1849  2.2177  2.1006
 3859SOL     OW16423   1.826   7.259   5.516  0.2272  0.1944 -0.4991
 3859SOL    HW116424   1.890   7.311   5.564 -1.3089 -0.2972  2.1848
 3859SOL    HW216425   1.779   7.322   5.461  2.4206  0.6696 -1.8865
 3860SOL     OW16426   1.100   7.891   4.317 -0.1797  0.5031 -0.4567
 3860SOL    HW116427   1.177   7.873   4.263  1.6581  0.1214  2.1572
 3860SOL    HW216428   1.025   7.879   4.259  1.7223  0.5246 -2.9734
 3861SOL     OW16429   1.241   8.292   4.991 -0.8358 -0.1549 -0.4855
 3861SOL    HW116430   1.173   8.234   4.956 -1.6790  0.3452  0.2725
 3861SOL    HW216431   1.202   8.379   4.987  0.4908  0.3987 -1.7811
 3862SOL     OW16432   8.758   7.627   6.729  0.1627  0.1018  0.4743
 3862SOL    HW116433   8.723   7.542   6.755  0.9698  0.1068  1.6094
 3862SOL    HW216434   8.842   7.607   6.686 -0.3814  0.2164 -0.6679
 3863SOL     OW16435   1.079   5.430   3.284 -0.1983 -0.5666 -0.3392
 3863SOL    HW116436   1.031   5.356   3.322 -1.5659  0.5920  0.2348
 3863SOL    HW216437   1.017   5.503   3.287  1.2281  0.6843 -0.6475
 3864SOL     OW16438   9.170   7.140   3.948  0.2132  0.0452  0.0888
 3864SOL    HW116439   9.246   7.172   3.900  0.1244 -0.4524 -0.3822
 3864SOL    HW216440   9.104   7.208   3.936  0.6083  0.5353  0.5948
 3865SOL     OW16441   0.864   6.718   5.805  0.0259 -0.2343 -0.0906
 3865SOL    HW116442   0.910   6.784   5.857  0.3807  0.2110 -0.9434
 3865SOL    HW216443   0.934   6.676   5.753 -0.5522  0.6398 -1.6044
 3866SOL     OW16444   0.250   8.047   4.204 -0.0049  0.0049 -0.0524
 3866SOL    HW116445   0.158   8.065   4.223 -0.4383 -2.1006 -0.0438
 3866SOL    HW216446   0.275   8.111   4.138 -1.6176  0.2953 -0.3808
 3867SOL     OW16447   1.569   4.040   4.007  0.2075  0.3695 -0.3412
 3867SOL    HW116448   1.499   3.985   3.974  1.0232 -1.8185  1.4015
 3867SOL    HW216449   1.646   4.014   3.958  0.6019 -0.0699  0.4968
 3868SOL     OW16450   1.125   7.195   5.713 -0.0425  0.5084 -0.4271
 3868SOL    HW116451   1.221   7.187   5.706 -0.2176 -0.6760 -1.7749
 3868SOL    HW216452   1.112   7.271   5.769  1.7059 -0.0881  0.8409
 3869SOL     OW16453   0.742   7.649   3.584 -0.1379 -0.3508  0.0095
 3869SOL    HW116454   0.746   7.741   3.559 -1.5610 -0.7249 -1.6614
 3869SOL    HW216455   0.758   7.601   3.503  0.3306 -1.5814  0.8099
 3870SOL     OW16456   0.495   7.334   5.552  0.3653  0.2032 -0.1151
 3870SOL    HW116457   0.572   7.370   5.507 -1.2938  1.1094 -2.3090
 3870SOL    HW216458   0.460   7.408   5.603  0.1607  0.1592 -0.1909
 3871SOL     OW16459   0.028   7.378   5.749  0.1941 -0.2970 -0.4570
 3871SOL    HW116460   0.098   7.421   5.699 -0.7440  1.7588 -0.0552
 3871SOL    HW216461   0.073   7.339   5.824  1.0410  0.2575 -0.6615
 3872SOL     OW16462   0.320   5.551   4.150 -0.8965 -0.2917  0.1148
 3872SOL    HW116463   0.295   5.490   4.080 -0.3434 -0.2446 -0.1267
 3872SOL    HW216464   0.330   5.635   4.107 -2.4107  0.1360  0.5837
 3873SOL     OW16465   9.865   7.053   4.682 -0.2106  0.4425 -0.3561
 3873SOL    HW116466   9.931   7.121   4.690 -0.4928  0.6290  0.4787
 3873SOL    HW216467   9.802   7.087   4.619 -1.2776  1.7318  1.3578
 3874SOL     OW16468   0.336   5.609   7.383  0.0004 -0.3450  0.2804
 3874SOL    HW116469   0.392   5.681   7.354  1.2533 -1.9838 -1.4984
 3874SOL    HW216470   0.343   5.543   7.313 -1.7857 -1.8410  1.4494
 3875SOL     OW16471   1.588   5.545   4.647 -0.6890 -0.1150  0.0060
 3875SOL    HW116472   1.570   5.468   4.592 -0.3277  0.7759 -1.3937
 3875SOL    HW216473   1.633   5.509   4.724 -0.4333 -1.3054 -0.6740
 3876SOL     OW16474   1.597   7.050   3.222  0.1947  0.2948 -0.7339
 3876SOL    HW116475   1.565   7.098   3.146 -0.2610 -0.5895 -1.1116
 3876SOL    HW216476   1.523   6.996   3.249  0.3286  0.6785  0.3950
 3877SOL     OW16477   9.050   6.977   5.653 -1.1048  0.0994 -0.3376
 3877SOL    HW116478   9.068   7.069   5.668 -1.2601  0.2787 -1.2047
 3877SOL    HW216479   9.062   6.935   5.738 -1.2007  0.9448  0.0878
 3878SOL     OW16480   9.963   6.950   5.156  0.4487  0.4137 -0.3686
 3878SOL    HW116481   9.892   6.970   5.095  0.6597 -1.7900 -1.3681
 3878SOL    HW216482   9.977   7.032   5.203 -1.8293  1.2756 -1.1030
 3879SOL     OW16483   0.515   8.293   5.065 -0.0659  0.3412 -0.2952
 3879SOL    HW116484   0.482   8.326   5.149 -0.0024  0.6639 -0.3967
 3879SOL    HW216485   0.556   8.369   5.024 -0.3203  0.2441 -0.7331
 3880SOL     OW16486   9.733   5.781   5.500 -0.0020 -0.4607  0.8223
 3880SOL    HW116487   9.683   5.749   5.575 -0.6381  1.6050  1.3048
 3880SOL    HW216488   9.822   5.793   5.534  1.0262 -4.5177 -0.1374
 3881SOL     OW16489   1.031   6.071   5.775  0.4494 -0.0051 -0.1295
 3881SOL    HW116490   0.955   6.021   5.745  0.3443 -0.0429  0.1926
 3881SOL    HW216491   0.994   6.145   5.824  0.3791  3.7421 -5.4501
 3882SOL     OW16492   0.891   6.985   4.609  0.6640 -0.6627  0.2532
 3882SOL    HW116493   0.841   7.036   4.545  2.4268  1.1246  0.2694
 3882SOL    HW216494   0.882   7.033   4.691 -1.4654 -2.8717  1.3910
 3883SOL     OW16495   2.224   6.107   5.706  0.1336 -0.1570  0.1929
 3883SOL    HW116496   2.247   6.199   5.719  0.9944 -0.1811 -1.0845
 3883SOL    HW216497   2.143   6.109   5.655 -0.7603 -0.1016  1.5983
 3884SOL     OW16498   2.500   6.895   3.645  0.4126  0.5295  0.0949
 3884SOL    HW116499   2.554   6.966   3.681  2.3355  0.0762 -1.7869
 3884SOL    HW216500   2.512   6.902   3.550 -0.1633 -1.7091 -0.1650
 3885SOL     OW16501   8.880   6.775   4.013 -0.1796 -0.3673  0.6104
 3885SOL    HW116502   8.917   6.692   4.041 -0.6808 -0.9949 -0.5551
 3885SOL    HW216503   8.956   6.827   3.987  0.0379 -0.9478  0.0728
 3886SOL     OW16504   0.786   6.804   4.924  0.4970  0.1651 -1.0396
 3886SOL    HW116505   0.881   6.796   4.919  0.5706 -0.1924  0.5666
 3886SOL    HW216506   0.771   6.886   4.971  0.0522 -0.6692  0.3068
 3887SOL     OW16507   0.745   5.044   5.428  0.0229 -0.4582 -0.3875
 3887SOL    HW116508   0.790   5.120   5.465  0.2412 -0.5157 -0.5316
 3887SOL    HW216509   0.807   4.972   5.439  0.4979 -0.2754 -1.7833
 3888SOL     OW16510   0.285   8.223   4.890  0.2601  0.3025  0.2008
 3888SOL    HW116511   0.307   8.294   4.830 -0.9768  1.2141  0.7886
 3888SOL    HW216512   0.342   8.236   4.965  1.4547 -0.5421 -0.5351
 3889SOL     OW16513   0.352   6.878   6.645  0.0767  0.2503  0.3153
 3889SOL    HW116514   0.446   6.870   6.663  0.0011  0.8567  1.0000
 3889SOL    HW216515   0.338   6.972   6.630 -0.4570  0.1890  0.4046
 3890SOL     OW16516   0.188   5.372   4.361  0.0837 -0.0516  0.3251
 3890SOL    HW116517   0.240   5.429   4.303  0.4246  0.6251  1.2890
 3890SOL    HW216518   0.158   5.302   4.304 -1.6834  1.9358 -1.2865
 3891SOL     OW16519   9.779   8.652   5.572  0.0246 -0.0697 -0.2284
 3891SOL    HW116520   9.830   8.722   5.612 -2.6280  1.7333  0.1089
 3891SOL    HW216521   9.703   8.696   5.534 -1.3565 -2.6798 -0.6034
 3892SOL     OW16522   0.162   6.356   2.839 -0.6820 -0.1204 -0.6652
 3892SOL    HW116523   0.209   6.311   2.769  0.5093 -0.3287  0.2664
 3892SOL    HW216524   0.183   6.448   2.826  3.5423 -0.5473  2.3034
 3893SOL     OW16525   0.859   6.445   5.940 -0.2608  0.4754 -0.1215
 3893SOL    HW116526   0.846   6.388   6.015  0.2890  0.5759  0.0504
 3893SOL    HW216527   0.806   6.523   5.959 -0.7434  0.1685 -0.2032
 3894SOL     OW16528   2.434   5.217   5.712 -0.7731  0.5350  0.0016
 3894SOL    HW116529   2.398   5.223   5.624 -0.2479  0.9141 -0.1884
 3894SOL    HW216530   2.401   5.294   5.757 -3.2054 -1.0003  0.9484
 3895SOL     OW16531   9.245   4.043   5.886  0.2331  0.3596  0.0946
 3895SOL    HW116532   9.326   4.008   5.922 -0.5354 -0.1880  1.3474
 3895SOL    HW216533   9.225   4.119   5.940  0.5378  1.2143 -0.9793
 3896SOL     OW16534   0.925   6.385   4.248  0.5030  0.3030  0.6675
 3896SOL    HW116535   1.016   6.390   4.275  1.3036  1.0166 -1.9804
 3896SOL    HW216536   0.894   6.301   4.281  1.6514  0.7264  2.8804
 3897SOL     OW16537   0.856   5.521   4.582  0.6201  0.3473 -0.2005
 3897SOL    HW116538   0.833   5.474   4.662  4.8543  0.0095  0.9277
 3897SOL    HW216539   0.881   5.609   4.612  2.3243  0.1969 -1.0817
 3898SOL     OW16540   1.090   6.713   3.337 -0.0015  0.0403  0.4062
 3898SOL    HW116541   1.114   6.693   3.427  3.7136  2.6055  0.0838
 3898SOL    HW216542   1.020   6.778   3.344  0.8563  0.8568  1.4521
 3899SOL     OW16543   1.710   6.814   5.124 -0.2183 -0.3791 -0.8907
 3899SOL    HW116544   1.691   6.906   5.145 -0.0645  0.1349 -2.8966
 3899SOL    HW216545   1.635   6.766   5.159 -2.1182  0.9322 -3.0112
 3900SOL     OW16546   0.070   5.350   6.206 -0.2598 -0.6993  0.0424
 3900SOL    HW116547   0.015   5.300   6.146 -0.8589  0.0654 -0.0578
 3900SOL    HW216548   0.124   5.284   6.250 -0.1514 -1.3061 -0.9891
 3901SOL     OW16549   0.359   7.881   5.168  0.7574  0.8062  0.3373
 3901SOL    HW116550   0.313   7.797   5.172  0.6253  0.9353  2.0919
 3901SOL    HW216551   0.290   7.946   5.160  0.9482  0.6659 -3.5143
 3902SOL     OW16552   1.190   6.981   4.999 -0.1180  0.3871 -0.0944
 3902SOL    HW116553   1.216   7.048   4.936  0.0701  0.6385  0.2476
 3902SOL    HW216554   1.231   6.901   4.968  0.2528  0.5799 -0.1041
 3903SOL     OW16555   1.697   5.424   4.888  0.0345  0.3272  0.6604
 3903SOL    HW116556   1.737   5.477   4.957 -0.7510  1.4683  0.2662
 3903SOL    HW216557   1.633   5.369   4.934  2.0834 -1.5901  1.3059
 3904SOL     OW16558   0.235   7.429   5.245 -0.1138 -0.0126 -0.6983
 3904SOL    HW116559   0.328   7.412   5.232 -0.2782 -0.5503 -1.1993
 3904SOL    HW216560   0.204   7.356   5.298 -0.0120  0.7707  0.4542
 3905SOL     OW16561   1.532   7.347   3.343 -0.2443 -0.9114  0.0826
 3905SOL    HW116562   1.446   7.385   3.332 -0.5360 -2.0235 -1.7458
 3905SOL    HW216563   1.516   7.259   3.377  0.2046 -0.9098  0.3137
 3906SOL     OW16564   0.649   7.127   4.551  0.1422 -0.1872  0.3468
 3906SOL    HW116565   0.571   7.150   4.602 -0.5782 -0.7632 -0.4878
 3906SOL    HW216566   0.680   7.211   4.517 -0.9694 -0.1205 -0.5347
 3907SOL     OW16567   9.208   8.471   5.036  0.3189  0.5502  0.1891
 3907SOL    HW116568   9.300   8.447   5.023 -0.7639 -2.9093 -1.5825
 3907SOL    HW216569   9.195   8.546   4.978  2.0642  1.2451  0.6487
 3908SOL     OW16570   0.356   6.242   4.383 -0.9660 -0.2824 -0.2621
 3908SOL    HW116571   0.358   6.200   4.468 -0.3514 -0.2974 -0.2819
 3908SOL    HW216572   0.287   6.308   4.390 -0.6019  0.0431  0.4056
 3909SOL     OW16573   9.869   5.077   2.737 -0.1327 -0.2455  0.2868
 3909SOL    HW116574   9.783   5.047   2.767  0.0517  0.9369  2.0869
 3909SOL    HW216575   9.850   5.141   2.669 -0.7264  0.6627  1.2869
 3910SOL     OW16576   0.809   6.616   6.340 -0.1566  0.0524 -0.1330
 3910SOL    HW116577   0.790   6.523   6.331  1.1123 -0.1396 -0.9719
 3910SOL    HW216578   0.780   6.655   6.258  2.4233 -0.1682 -1.2239
 3911SOL     OW16579   9.746   5.544   3.849  0.4807  0.0857  0.0705
 3911SOL    HW116580   9.765   5.545   3.943  0.1129  2.1868  0.1351
 3911SOL    HW216581   9.827   5.512   3.809  1.8467  2.4721  0.8500
 3912SOL     OW16582   2.282   5.565   3.327 -0.0497  0.3223 -0.6361
 3912SOL    HW116583   2.355   5.527   3.277 -0.4591 -2.4470  0.7712
 3912SOL    HW216584   2.305   5.657   3.337  3.0420 -0.4082 -0.6331
 3913SOL     OW16585   9.770   6.448   5.630 -0.0542 -0.6229  0.0660
 3913SOL    HW116586   9.684   6.483   5.656  0.0671  0.3914 -0.8722
 3913SOL    HW216587   9.802   6.403   5.708 -0.1764  1.4629  1.3522
 3914SOL     OW16588   0.572   6.673   5.029  0.1922 -0.3713 -0.4442
 3914SOL    HW116589   0.604   6.585   5.051 -0.0031 -0.3456 -0.0461
 3914SOL    HW216590   0.640   6.711   4.974  1.0018 -0.1832  0.6828
 3915SOL     OW16591   1.736   7.159   7.129 -0.4097  0.3685  0.2969
 3915SOL    HW116592   1.730   7.191   7.039  1.9536 -1.4420 -0.5893
 3915SOL    HW216593   1.810   7.208   7.166  0.2847 -0.7259  0.3867
 3916SOL     OW16594   1.511   5.586   6.075 -0.2639 -1.0494 -0.0094
 3916SOL    HW116595   1.441   5.643   6.045 -0.2805 -1.0737 -0.0181
 3916SOL    HW216596   1.552   5.553   5.995 -0.3812 -1.2044 -0.0068
 3917SOL     OW16597   0.495   7.257   4.322  0.3879  0.3111 -0.1075
 3917SOL    HW116598   0.508   7.257   4.227  0.1217  2.3759 -0.1630
 3917SOL    HW216599   0.582   7.239   4.358  0.9245  1.6195 -0.7195
 3918SOL     OW16600   0.555   6.462   5.842 -0.7050 -0.3500  0.5464
 3918SOL    HW116601   0.461   6.465   5.824 -0.4749 -0.8986 -0.7880
 3918SOL    HW216602   0.564   6.391   5.906 -1.4504  1.2133  2.4421
 3919SOL     OW16603   0.504   5.398   4.926 -0.0337 -0.2729 -0.8747
 3919SOL    HW116604   0.448   5.325   4.900 -0.8966 -0.1085  0.5053
 3919SOL    HW216605   0.445   5.472   4.935  0.1898 -0.3765  1.7517
 3920SOL     OW16606   0.362   5.806   4.295 -0.1391 -0.5011  0.0121
 3920SOL    HW116607   0.349   5.897   4.269  1.3912 -0.5185 -0.8675
 3920SOL    HW216608   0.277   5.764   4.283 -0.7132  0.6864 -0.0766
 3921SOL     OW16609   1.318   5.064   6.445  0.1138  0.0712  0.4551
 3921SOL    HW116610   1.242   5.008   6.429 -0.6031  1.5620 -1.6105
 3921SOL    HW216611   1.302   5.104   6.530 -0.4213 -1.1794  0.9457
 3922SOL     OW16612   0.781   6.428   4.790  0.0281  0.2546  0.4352
 3922SOL    HW116613   0.855   6.398   4.737 -0.4618 -0.8185  0.3428
 3922SOL    HW216614   0.753   6.509   4.748 -0.6311 -0.8023 -1.2394
 3923SOL     OW16615   8.387   6.577   5.562  0.8799  0.3222 -0.3971
 3923SOL    HW116616   8.426   6.623   5.488  4.0134 -1.9580 -0.2892
 3923SOL    HW216617   8.366   6.490   5.528 -0.5812  0.2715  0.5971
 3924SOL     OW16618   1.379   5.743   3.925  0.1499 -0.0484 -0.1262
 3924SOL    HW116619   1.408   5.666   3.877 -0.2629  0.2002 -0.7795
 3924SOL    HW216620   1.455   5.769   3.977  0.6236 -0.2711 -0.6991
 3925SOL     OW16621   0.655   7.588   4.591  0.1514 -0.1515 -0.2828
 3925SOL    HW116622   0.572   7.565   4.548 -0.4100 -1.4371  1.4352
 3925SOL    HW216623   0.706   7.631   4.523 -1.3564 -0.6923 -1.7894
 3926SOL     OW16624   2.662   6.635   4.772 -0.1304 -0.1610  0.1055
 3926SOL    HW116625   2.585   6.583   4.795 -0.3336 -0.1878 -0.6355
 3926SOL    HW216626   2.642   6.723   4.803 -0.3971 -0.1998  0.0403
 3927SOL     OW16627   0.670   6.687   4.692  0.5417  0.6549  0.0745
 3927SOL    HW116628   0.584   6.719   4.666 -0.5309 -1.3417  1.0423
 3927SOL    HW216629   0.692   6.736   4.771 -0.5633 -0.1734  0.9003
 3928SOL     OW16630   0.931   7.663   4.048  0.3958 -0.3440 -0.4545
 3928SOL    HW116631   0.893   7.750   4.054  1.0492 -0.0995  0.1137
 3928SOL    HW216632   0.946   7.649   3.954  0.8251  0.3743 -0.4901
 3929SOL     OW16633   1.793   8.185   3.935  0.1525 -0.0977 -0.0773
 3929SOL    HW116634   1.764   8.101   3.900 -1.1504 -0.0808  0.9051
 3929SOL    HW216635   1.714   8.224   3.972  1.2276  0.4207  1.7627
 3930SOL     OW16636   2.201   6.830   4.481  0.0036 -0.0275  1.0858
 3930SOL    HW116637   2.124   6.775   4.464 -0.1151 -0.2570  2.2805
 3930SOL    HW216638   2.169   6.898   4.541  0.6479  0.0906  1.3014
 3931SOL     OW16639   1.078   7.527   3.813  0.5320  0.4464 -0.2409
 3931SOL    HW116640   1.112   7.440   3.835 -1.2440 -0.0635  0.5672
 3931SOL    HW216641   1.014   7.511   3.743 -1.6471  0.7824  1.6479
 3932SOL     OW16642   1.006   5.991   2.230 -0.7734  0.2399 -0.1615
 3932SOL    HW116643   1.078   6.039   2.188  1.6172 -1.1794  2.1951
 3932SOL    HW216644   1.015   6.010   2.323 -2.6348 -1.0799  0.3177
 3933SOL     OW16645   2.319   7.477   7.252  0.5694  0.1841  0.3028
 3933SOL    HW116646   2.314   7.548   7.316 -1.4307  1.8018 -1.5663
 3933SOL    HW216647   2.336   7.521   7.169 -0.8443 -1.4824 -0.9124
 3934SOL     OW16648   1.629   7.621   3.113 -0.3982  0.2617  0.5116
 3934SOL    HW116649   1.691   7.553   3.138 -0.8525 -1.1653 -2.0444
 3934SOL    HW216650   1.550   7.602   3.164 -0.2504 -0.6726  0.4012
 3935SOL     OW16651   0.739   4.472   7.016  0.3076  0.3266  0.2298
 3935SOL    HW116652   0.672   4.523   6.971 -0.7328 -2.8222 -2.0298
 3935SOL    HW216653   0.808   4.535   7.035 -1.8435  2.9825 -0.4135
 3936SOL     OW16654   0.555   7.977   4.365  0.7838  0.4029  0.2614
 3936SOL    HW116655   0.645   7.969   4.396  0.9327  2.1574  0.3469
 3936SOL    HW216656   0.547   8.069   4.339 -0.7915  0.1071 -0.3569
 3937SOL     OW16657   1.830   7.206   3.320  0.4809  0.2587  0.0169
 3937SOL    HW116658   1.748   7.159   3.309 -0.1262  0.8230  1.8948
 3937SOL    HW216659   1.890   7.143   3.359  0.7377  0.0632 -0.6747
 3938SOL     OW16660   2.720   5.682   2.124  0.0292 -0.0357  0.8393
 3938SOL    HW116661   2.747   5.675   2.215  1.6272 -0.5199  0.3621
 3938SOL    HW216662   2.759   5.764   2.093  0.3953 -0.4021  0.3141
 3939SOL     OW16663   0.296   6.411   5.779 -0.0086  0.3307  0.1225
 3939SOL    HW116664   0.230   6.374   5.838 -2.1255  2.0206 -1.1076
 3939SOL    HW216665   0.311   6.343   5.714 -0.1513 -0.2628  0.7097
 3940SOL     OW16666   1.468   5.153   7.137  0.4376 -0.6197  0.5501
 3940SOL    HW116667   1.411   5.076   7.128 -0.6064  0.4969 -3.3444
 3940SOL    HW216668   1.557   5.117   7.135 -0.0518 -1.8214 -0.0732
 3941SOL     OW16669   0.356   6.557   2.608 -0.4380 -0.3667 -0.0932
 3941SOL    HW116670   0.407   6.503   2.668 -1.7945 -0.2259  1.1910
 3941SOL    HW216671   0.375   6.647   2.636 -0.4452 -0.2758 -0.3817
 3942SOL     OW16672   0.000   7.084   3.773  0.0740 -0.1640 -0.3695
 3942SOL    HW116673   0.053   7.163   3.759  1.1018 -0.5651  1.0794
 3942SOL    HW216674  -0.053   7.104   3.850 -0.7348 -0.3606 -0.8702
 3943SOL     OW16675   9.932   6.560   7.348 -0.0461  0.6260  0.5712
 3943SOL    HW116676   9.923   6.621   7.421 -0.4763  1.1757  0.0580
 3943SOL    HW216677   9.842   6.545   7.318 -0.1319 -1.6005  1.7943
 3944SOL     OW16678   0.383   5.732   7.078 -0.0404 -0.3444 -0.1198
 3944SOL    HW116679   0.432   5.663   7.034 -0.3153 -0.2421 -0.5888
 3944SOL    HW216680   0.328   5.770   7.009  0.1302  0.3557  0.1318
 3945SOL     OW16681   7.690   5.078   6.418 -0.3752 -0.7505 -0.1261
 3945SOL    HW116682   7.722   5.039   6.499  0.9655 -1.2958 -0.8949
 3945SOL    HW216683   7.719   5.018   6.349 -0.0049  0.5622 -1.1475
 3946SOL     OW16684   0.963   7.253   8.284 -0.0616 -0.1946 -0.0270
 3946SOL    HW116685   1.003   7.263   8.198  1.8571  0.6447  0.9327
 3946SOL    HW216686   0.931   7.163   8.285  3.3717 -1.4669 -0.2082
 3947SOL     OW16687   1.058   7.709   6.815 -0.1917  0.5382  0.3271
 3947SOL    HW116688   1.002   7.749   6.882 -0.1307  0.8452  0.1958
 3947SOL    HW216689   0.997   7.662   6.759 -0.3629  1.1575 -0.0167
 3948SOL     OW16690   0.097   6.239   4.842 -0.5257  0.0219 -0.2473
 3948SOL    HW116691   0.025   6.243   4.780 -0.0211  0.1048 -0.8404
 3948SOL    HW216692   0.157   6.173   4.805  0.0304  0.4571 -0.1367
 3949SOL     OW16693   3.351   6.574   4.417  0.1533 -0.0107  0.1820
 3949SOL    HW116694   3.411   6.500   4.410  0.7042  0.2854  1.5472
 3949SOL    HW216695   3.267   6.534   4.440 -0.0724 -0.3845 -1.2541
 3950SOL     OW16696   0.038   6.424   6.463 -0.4182  0.2131 -0.5333
 3950SOL    HW116697   0.099   6.498   6.468  0.1382 -0.0905 -2.5323
 3950SOL    HW216698   0.091   6.351   6.432 -1.1096 -0.8878  0.8287
 3951SOL     OW16699   1.041   6.030   7.608  0.2583  0.0810 -0.3085
 3951SOL    HW116700   1.029   6.122   7.588  0.2517 -0.1778 -1.4952
 3951SOL    HW216701   1.117   6.027   7.665 -0.6627  0.9665  0.9975
 3952SOL     OW16702   9.656   6.356   5.879 -0.7853  0.2898  0.0783
 3952SOL    HW116703   9.663   6.269   5.918 -1.3168  0.8414  1.4663
 3952SOL    HW216704   9.649   6.415   5.954  0.4103  1.6113 -0.8204
 3953SOL     OW16705   9.728   7.548   7.537  0.7029  0.0701 -0.0679
 3953SOL    HW116706   9.808   7.589   7.570 -0.0834 -0.1760  2.2585
 3953SOL    HW216707   9.673   7.621   7.508  0.9175  0.3784  0.3062
 3954SOL     OW16708   0.263   4.978   4.664 -0.6859 -0.1007  0.1955
 3954SOL    HW116709   0.337   4.979   4.725  0.0478 -0.5185 -0.6788
 3954SOL    HW216710   0.269   5.062   4.618 -0.2703 -0.4832 -0.4506
 3955SOL     OW16711   9.557   7.134   7.416 -0.1113  0.1677 -0.7595
 3955SOL    HW116712   9.468   7.108   7.439  0.1539  0.4559  0.6939
 3955SOL    HW216713   9.591   7.062   7.363  0.3456 -2.1964  2.5222
 3956SOL     OW16714   0.740   5.685   7.290  0.1261 -0.1156  0.0011
 3956SOL    HW116715   0.803   5.727   7.348  0.3488  0.0422 -0.3527
 3956SOL    HW216716   0.661   5.676   7.342  0.5753 -0.7027  0.5909
 3957SOL     OW16717   2.161   7.166   4.669 -0.2632  0.4462 -0.3809
 3957SOL    HW116718   2.096   7.200   4.609 -0.9456 -1.1504 -0.5788
 3957SOL    HW216719   2.242   7.162   4.618 -0.7334 -0.4771 -1.0696
 3958SOL     OW16720   9.937   5.890   6.733  0.3646 -0.1607  0.5311
 3958SOL    HW116721   9.927   5.825   6.802  2.8307 -0.1207  0.9816
 3958SOL    HW216722   9.934   5.839   6.652 -1.3421 -0.3501  0.6866
 3959SOL     OW16723   1.257   6.421   6.878  0.1082 -0.2190 -0.1557
 3959SOL    HW116724   1.163   6.435   6.864  0.2838  0.2903 -0.8848
 3959SOL    HW216725   1.299   6.479   6.814  0.9179 -0.4231  0.1895
 3960SOL     OW16726   0.918   7.481   7.899  0.3611  0.6303  0.0826
 3960SOL    HW116727   0.959   7.538   7.964  0.2729  0.5929  0.1708
 3960SOL    HW216728   0.864   7.422   7.950  0.0316  0.8167 -0.0480
 3961SOL     OW16729   8.605   7.317   7.363  0.3552 -0.6352 -0.0089
 3961SOL    HW116730   8.700   7.332   7.360  0.2176  0.6608  1.3735
 3961SOL    HW216731   8.588   7.255   7.292  1.7633  1.7217 -2.5293
 3962SOL     OW16732   9.091   4.797   5.678  0.0392 -0.3002  0.0740
 3962SOL    HW116733   9.026   4.726   5.671 -0.4362  0.2590 -1.2668
 3962SOL    HW216734   9.073   4.854   5.604  2.1338 -0.1777 -0.3768
 3963SOL     OW16735   1.238   6.639   7.765 -0.0581 -0.4776 -0.0437
 3963SOL    HW116736   1.243   6.562   7.823  0.7419  0.4972  1.2133
 3963SOL    HW216737   1.242   6.714   7.825  0.4071  0.5543 -1.3502
 3964SOL     OW16738   0.564   6.088   6.716 -0.3146 -0.2342  0.0723
 3964SOL    HW116739   0.653   6.051   6.712 -0.1534  0.0524  0.9155
 3964SOL    HW216740   0.517   6.043   6.646  1.0707  1.1545 -1.7926
 3965SOL     OW16741   2.263   4.951   6.547  0.6071  0.1762  0.0807
 3965SOL    HW116742   2.335   4.925   6.489 -1.0978 -0.9252 -1.6287
 3965SOL    HW216743   2.199   4.991   6.488 -1.2803 -1.1974  1.1626
 3966SOL     OW16744   9.661   8.463   7.182 -0.2195 -0.7011  0.1908
 3966SOL    HW116745   9.756   8.462   7.171 -0.4104  1.1585 -2.0277
 3966SOL    HW216746   9.631   8.384   7.136  0.1253 -0.3440 -0.6691
 3967SOL     OW16747   1.998   6.744   6.977  0.4938  0.1438  0.9583
 3967SOL    HW116748   2.014   6.660   7.020 -1.3268  0.6846  2.7762
 3967SOL    HW216749   1.999   6.809   7.047 -1.7065  1.1609  0.1329
 3968SOL     OW16750   1.046   5.585   6.544 -0.2585  0.0617  0.2127
 3968SOL    HW116751   0.997   5.614   6.621  0.9390  1.6308  0.4175
 3968SOL    HW216752   1.053   5.491   6.554 -0.0528  0.2525  2.0636
 3969SOL     OW16753   0.501   6.631   7.308  0.4281  0.6649  0.2615
 3969SOL    HW116754   0.511   6.632   7.212 -0.5551  0.2905  0.1517
 3969SOL    HW216755   0.504   6.538   7.331 -2.7613  0.5066  0.2173
 3970SOL     OW16756   2.425   7.656   5.640  0.1893 -0.4710  0.1734
 3970SOL    HW116757   2.426   7.723   5.571  0.6956 -1.8780 -1.2106
 3970SOL    HW216758   2.342   7.669   5.685  0.5292  1.4456  0.2748
 3971SOL     OW16759   0.898   5.671   6.317  0.2093 -0.5928 -0.5280
 3971SOL    HW116760   0.900   5.576   6.325 -0.4311 -0.3169  3.5010
 3971SOL    HW216761   0.966   5.703   6.376 -0.6253  1.5096 -0.6384
 3972SOL     OW16762   1.305   5.738   6.017  0.7086 -0.5667 -0.6192
 3972SOL    HW116763   1.310   5.815   5.961  1.0222 -2.0945 -2.7528
 3972SOL    HW216764   1.232   5.756   6.076 -0.4610  0.5307 -2.3709
 3973SOL     OW16765   9.306   5.526   5.070 -0.5664  0.1922 -0.1124
 3973SOL    HW116766   9.308   5.613   5.110  1.7903  0.4768 -0.7919
 3973SOL    HW216767   9.360   5.535   4.991  0.8985 -2.2496  0.5924
 3974SOL     OW16768   1.810   7.023   5.391  0.5882  0.0576  0.7227
 3974SOL    HW116769   1.790   7.047   5.301  0.9154 -0.5815  0.4784
 3974SOL    HW216770   1.815   7.107   5.438 -1.6241  0.2896  0.5797
 3975SOL     OW16771   0.395   6.634   6.755  0.1812 -0.1818  0.5093
 3975SOL    HW116772   0.359   6.723   6.747  1.0198  0.1716  0.6409
 3975SOL    HW216773   0.399   6.602   6.665 -0.2295 -0.1293  0.4711
 3976SOL     OW16774   0.855   5.742   6.940  0.3668  0.3112  0.3310
 3976SOL    HW116775   0.805   5.804   6.993 -0.5488  0.0782 -0.2736
 3976SOL    HW216776   0.812   5.742   6.855  0.9666 -0.4137  0.0263
 3977SOL     OW16777   2.486   6.328   5.829  0.0297 -0.2971 -0.0103
 3977SOL    HW116778   2.413   6.372   5.785  1.5937  3.1910  0.7205
 3977SOL    HW216779   2.449   6.301   5.913 -1.3039 -1.5826 -0.9781
 3978SOL     OW16780   9.714   7.123   6.037 -0.1662 -0.3366  0.9000
 3978SOL    HW116781   9.654   7.064   6.083 -2.6226 -0.7918 -2.6054
 3978SOL    HW216782   9.657   7.192   6.001  1.9848  1.4347  0.7473
 3979SOL     OW16783   0.780   5.504   6.088 -0.2671 -0.4668 -0.2585
 3979SOL    HW116784   0.836   5.502   6.010 -0.3279  0.3307 -0.3268
 3979SOL    HW216785   0.825   5.563   6.148  0.5164 -2.1924  0.8884
 3980SOL     OW16786   9.955   6.061   5.708 -0.7973  0.4847  0.4992
 3980SOL    HW116787   9.860   6.065   5.721 -0.5897 -1.5760  2.9984
 3980SOL    HW216788   9.977   5.968   5.719  1.4860  0.8949 -0.3098
 3981SOL     OW16789   1.332   6.005   5.204  0.2592 -0.2595  0.3457
 3981SOL    HW116790   1.359   5.931   5.259 -0.9767  0.0009  1.3240
 3981SOL    HW216791   1.249   5.977   5.165 -0.3194  0.6994  0.8793
 3982SOL     OW16792   0.706   5.428   6.795  0.2571  0.2841 -0.2442
 3982SOL    HW116793   0.798   5.449   6.811 -0.4273  4.2496 -1.1139
 3982SOL    HW216794   0.685   5.471   6.712 -2.0002 -1.8960 -0.8735
 3983SOL     OW16795   0.300   5.900   7.308  0.3761 -0.7079  0.1925
 3983SOL    HW116796   0.317   5.843   7.232  1.4061  2.6808 -2.2069
 3983SOL    HW216797   0.220   5.946   7.285  1.3434  1.2193  0.6035
 3984SOL     OW16798   9.511   4.629   5.948 -0.3206  0.5535  0.0459
 3984SOL    HW116799   9.591   4.580   5.931  0.8842  1.3837  2.9700
 3984SOL    HW216800   9.447   4.563   5.973  0.3112  0.1406  0.5895
 3985SOL     OW16801   1.367   5.579   6.304 -0.1714 -0.3194  0.2224
 3985SOL    HW116802   1.373   5.493   6.345 -0.3672 -0.3501  0.1913
 3985SOL    HW216803   1.406   5.567   6.217 -0.5408 -0.4766  0.0721
 3986SOL     OW16804   1.525   6.016   7.356  0.7485  0.5695  0.4544
 3986SOL    HW116805   1.502   5.940   7.409  0.4203  1.3397  1.4123
 3986SOL    HW216806   1.606   5.989   7.311  0.7649 -0.2551  0.9618
 3987SOL     OW16807   9.701   6.665   5.322  0.1631 -0.0412 -0.0915
 3987SOL    HW116808   9.715   6.739   5.380  2.1388  0.7821 -1.5469
 3987SOL    HW216809   9.608   6.646   5.329 -0.1610  1.8922  1.1303
 3988SOL     OW16810   8.339   7.527   6.462 -0.0497  0.1325  0.6236
 3988SOL    HW116811   8.391   7.516   6.541 -0.5672  0.9806  1.0865
 3988SOL    HW216812   8.378   7.466   6.398  0.8136 -0.0170  1.2990
 3989SOL     OW16813   2.039   5.525   6.825  0.4768  0.0002  0.3944
 3989SOL    HW116814   2.062   5.458   6.762  2.2596 -1.1887  2.2791
 3989SOL    HW216815   2.068   5.607   6.785  0.2184 -0.5600 -0.9648
 3990SOL     OW16816   1.660   4.986   5.791 -0.1227  0.4929  0.0869
 3990SOL    HW116817   1.573   4.980   5.752 -0.4394  1.4721  0.6274
 3990SOL    HW216818   1.712   5.034   5.726 -0.6399  2.0891  0.8253
 3991SOL     OW16819   0.144   7.649   5.124 -0.0317  0.2932 -0.6319
 3991SOL    HW116820   0.083   7.706   5.170  2.3710  1.1632  1.5931
 3991SOL    HW216821   0.166   7.581   5.187  1.6617  0.2622 -1.2078
 3992SOL     OW16822   0.890   5.388   6.362 -0.2620  0.5921 -0.0803
 3992SOL    HW116823   0.960   5.354   6.418 -0.0540  1.9925  0.5212
 3992SOL    HW216824   0.872   5.316   6.301  1.8309  0.2736 -0.3757
 3993SOL     OW16825   0.192   6.678   6.534 -0.3655  0.0193  0.0759
 3993SOL    HW116826   0.122   6.713   6.480  1.4705 -0.5444 -2.7395
 3993SOL    HW216827   0.245   6.754   6.559  0.4929 -0.0431 -1.4765
 3994SOL     OW16828   9.823   6.875   7.282 -0.7932 -0.1897 -0.0212
 3994SOL    HW116829   9.770   6.869   7.203 -0.0985 -1.1575 -0.4326
 3994SOL    HW216830   9.760   6.883   7.353 -1.3853  5.5227 -0.9831
 3995SOL     OW16831   1.059   6.307   7.509 -0.3698 -0.4606  0.1269
 3995SOL    HW116832   0.984   6.366   7.522  0.6543  0.5324  1.7134
 3995SOL    HW216833   1.121   6.332   7.577  1.3037 -1.4620 -1.0010
 3996SOL     OW16834   1.887   8.485   7.330 -0.1959 -0.6763 -0.3287
 3996SOL    HW116835   1.801   8.480   7.372 -0.2505  0.3336 -0.3198
 3996SOL    HW216836   1.938   8.543   7.386  0.9508 -2.3779  0.4488
 3997SOL     OW16837   0.523   7.001   4.787  0.3828  0.1948 -0.0630
 3997SOL    HW116838   0.494   7.087   4.758  1.3775 -0.2654 -2.5553
 3997SOL    HW216839   0.618   7.002   4.776  0.2419 -1.7655 -1.7811
 3998SOL     OW16840   1.703   7.433   6.068  0.1978 -0.4847  0.0821
 3998SOL    HW116841   1.659   7.348   6.071  0.1804 -0.4585  0.5460
 3998SOL    HW216842   1.795   7.411   6.053  0.2641 -0.6053  0.6658
 3999SOL     OW16843   1.946   8.097   6.195 -0.3425  0.3126 -0.1424
 3999SOL    HW116844   1.967   8.152   6.119 -0.0466 -0.6184 -0.7457
 3999SOL    HW216845   1.874   8.042   6.165  1.5036 -1.9281 -0.6697
 4000SOL     OW16846   0.694   5.482   7.580  0.0724 -0.1012  0.0652
 4000SOL    HW116847   0.688   5.387   7.570  0.8867  0.0078 -1.5408
 4000SOL    HW216848   0.779   5.496   7.623 -0.9796 -0.2055  2.2792
 4001SOL     OW16849   1.008   6.527   5.459 -0.2077  0.1062  0.1251
 4001SOL    HW116850   0.953   6.514   5.382  1.2812 -1.4403 -0.7112
 4001SOL    HW216851   0.953   6.500   5.533 -1.2455  0.4992 -0.4861
 4002SOL     OW16852   9.470   8.518   4.989 -0.4423  0.3589 -0.6392
 4002SOL    HW116853   9.473   8.483   4.900  0.1751  1.1573 -0.9349
 4002SOL    HW216854   9.468   8.613   4.977 -0.6764  0.4635  0.1950
 4003SOL     OW16855   0.485   5.432   5.454  0.1860  0.0135  0.2321
 4003SOL    HW116856   0.484   5.359   5.392 -1.2772  0.0816  0.1627
 4003SOL    HW216857   0.503   5.509   5.400 -1.1203  0.0775 -0.1184
 4004SOL     OW16858   8.388   8.030   7.178  0.4016  0.3024 -0.5936
 4004SOL    HW116859   8.293   8.040   7.171  0.2872  0.0647  0.5101
 4004SOL    HW216860   8.419   8.033   7.087 -0.8634 -1.5519 -1.1235
 4005SOL     OW16861   9.942   6.822   5.430 -0.2686  0.2389 -0.3916
 4005SOL    HW116862   9.954   6.729   5.408 -1.9742 -0.0441 -0.1754
 4005SOL    HW216863  10.016   6.866   5.388  0.8032 -1.2782 -0.1215
 4006SOL     OW16864   0.007   5.801   4.842 -0.0347  0.0039 -0.0092
 4006SOL    HW116865  -0.045   5.882   4.838  0.7324  0.4950 -0.0778
 4006SOL    HW216866   0.002   5.766   4.753  3.7986  2.6296 -1.3910
 4007SOL     OW16867   2.194   6.369   7.221  1.1883 -0.1814  0.3529
 4007SOL    HW116868   2.273   6.328   7.254  1.3458 -1.5456 -1.6628
 4007SOL    HW216869   2.123   6.310   7.249  1.0030  0.3847  1.0821
 4008SOL     OW16870   2.306   7.380   5.670  0.7784 -0.1666 -0.6309
 4008SOL    HW116871   2.305   7.343   5.582 -0.0125 -1.3033 -0.1457
 4008SOL    HW216872   2.325   7.473   5.656  2.7773 -0.7248 -1.8556
 4009SOL     OW16873   0.306   6.606   8.793  0.3195 -0.0186  0.0239
 4009SOL    HW116874   0.220   6.614   8.751 -0.6127 -0.1602  1.8399
 4009SOL    HW216875   0.324   6.694   8.827  1.4614  0.3114 -1.3722
 4010SOL     OW16876   0.274   5.759   5.396 -0.6802  0.4625 -0.8951
 4010SOL    HW116877   0.351   5.741   5.343 -1.5151  2.1639 -2.7606
 4010SOL    HW216878   0.206   5.702   5.361 -0.5903 -0.1959 -0.0157
 4011SOL     OW16879   1.436   6.578   4.917  0.4985 -0.3326  0.7047
 4011SOL    HW116880   1.511   6.524   4.944 -0.2416 -2.3617 -1.1929
 4011SOL    HW216881   1.371   6.564   4.985  1.6382  1.0937  2.1350
 4012SOL     OW16882   1.287   6.993   7.176  0.0240 -0.0335  0.3198
 4012SOL    HW116883   1.285   7.029   7.087  0.2985  1.5236  0.9276
 4012SOL    HW216884   1.201   7.015   7.212 -0.3312 -1.2439  0.2207
 4013SOL     OW16885   9.920   6.337   5.075  0.1342  0.6424  0.0557
 4013SOL    HW116886   9.976   6.316   5.000  1.6888  0.1899  1.3273
 4013SOL    HW216887   9.926   6.260   5.132 -1.7207  0.6265  0.2508
 4014SOL     OW16888   0.768   6.045   7.234  0.1301  0.0701 -0.1689
 4014SOL    HW116889   0.714   6.020   7.309  1.6533  0.7769  1.2088
 4014SOL    HW216890   0.742   5.985   7.164 -1.5228 -0.4131  0.8363
 4015SOL     OW16891   9.272   5.797   3.945 -0.6293  0.0907  0.0110
 4015SOL    HW116892   9.364   5.778   3.965 -0.5142  2.3968  1.9191
 4015SOL    HW216893   9.225   5.773   4.025 -1.3749  1.0571 -0.1380
 4016SOL     OW16894   1.167   6.529   5.692  0.3832  0.8240 -0.1020
 4016SOL    HW116895   1.143   6.491   5.607  0.8642 -1.3081  0.6982
 4016SOL    HW216896   1.233   6.595   5.670  0.9295 -0.1078 -1.3369
 4017SOL     OW16897   0.825   5.980   6.107 -0.2879 -0.4134  0.7397
 4017SOL    HW116898   0.843   6.071   6.130  2.3059 -0.1276 -2.0041
 4017SOL    HW216899   0.735   5.982   6.073  0.8406  1.8903 -2.4595
 4018SOL     OW16900   9.709   6.929   5.620 -0.1790  0.0009  0.6443
 4018SOL    HW116901   9.624   6.889   5.606  0.0412 -0.6720  1.1946
 4018SOL    HW216902   9.752   6.873   5.685 -0.2636  1.7053  2.2062
 4019SOL     OW16903   0.448   7.382   6.793 -0.1535 -0.3296  0.1941
 4019SOL    HW116904   0.387   7.418   6.858  1.7905 -1.7052  2.8705
 4019SOL    HW216905   0.411   7.408   6.708 -2.6721  1.6567  1.8336
 4020SOL     OW16906   9.786   7.558   8.156  0.4100  0.0107 -0.3590
 4020SOL    HW116907   9.741   7.473   8.162  0.2679  0.1465  0.5677
 4020SOL    HW216908   9.716   7.623   8.158  0.4762  0.1316 -1.7530
 4021SOL     OW16909   1.045   5.996   7.324  0.1149  0.0260  0.1381
 4021SOL    HW116910   1.037   6.015   7.417  0.3042  0.7166  0.0194
 4021SOL    HW216911   0.957   6.009   7.289  0.7838  3.5421 -0.4408
 4022SOL     OW16912   1.128   5.856   5.402  0.4421 -0.1460 -0.4465
 4022SOL    HW116913   1.212   5.811   5.388  0.5349 -0.0291 -0.2641
 4022SOL    HW216914   1.094   5.871   5.314 -0.0524 -1.4433 -0.4750
 4023SOL     OW16915   0.873   4.908   6.667  0.1367 -0.2724  0.1997
 4023SOL    HW116916   0.839   4.975   6.725  2.6635  1.3965 -0.2029
 4023SOL    HW216917   0.839   4.826   6.703  0.0613  0.8869  2.8528
 4024SOL     OW16918   0.765   6.152   5.820 -0.6816 -0.0214  0.5481
 4024SOL    HW116919   0.760   6.062   5.853 -1.7135 -0.2766 -0.3019
 4024SOL    HW216920   0.706   6.201   5.877 -0.8478 -0.0630  0.4122
 4025SOL     OW16921   2.506   4.904   6.460  0.2960  0.2518 -0.5898
 4025SOL    HW116922   2.517   4.820   6.505 -1.3615 -0.4261 -1.3846
 4025SOL    HW216923   2.574   4.905   6.393  0.0187 -0.6835 -0.8958
 4026SOL     OW16924   2.251   7.163   5.823  0.4719 -0.3417 -0.0854
 4026SOL    HW116925   2.237   7.105   5.748  0.4753 -0.2957 -0.1214
 4026SOL    HW216926   2.277   7.247   5.784 -0.3236 -0.0816 -0.0641
 4027SOL     OW16927   0.820   6.451   5.269  0.1539  0.1298 -0.1693
 4027SOL    HW116928   0.733   6.456   5.308  0.7143  0.4913  1.0327
 4027SOL    HW216929   0.806   6.403   5.187 -0.8928 -1.3370  0.8397
 4028SOL     OW16930   0.769   5.990   5.408 -0.6191  0.3751 -0.5157
 4028SOL    HW116931   0.686   5.969   5.451  0.7312 -0.5289  1.7429
 4028SOL    HW216932   0.804   5.905   5.382  1.1130  0.4365  1.5051
 4029SOL     OW16933   0.327   4.947   4.272 -0.1313  0.1941  0.0806
 4029SOL    HW116934   0.331   4.854   4.296  2.3182  0.3307  0.2677
 4029SOL    HW216935   0.280   4.948   4.188  2.0643 -1.4809 -1.2120
 4030SOL     OW16936   2.418   7.948   5.535  0.7281  0.1910  1.0165
 4030SOL    HW116937   2.393   8.034   5.569 -0.7157 -0.0691  0.6726
 4030SOL    HW216938   2.345   7.924   5.478  1.8180 -0.6132 -0.0479
 4031SOL     OW16939   0.025   6.235   5.500  0.0753 -0.5007 -0.5288
 4031SOL    HW116940   0.117   6.255   5.517 -0.9562  1.9655  2.5765
 4031SOL    HW216941  -0.007   6.196   5.581 -2.0961  0.4416 -0.9005
 4032SOL     OW16942   0.260   5.946   5.623  0.0478 -0.0940  0.3230
 4032SOL    HW116943   0.290   5.889   5.694 -0.6198 -2.3738 -1.1882
 4032SOL    HW216944   0.243   5.887   5.550  0.2156  2.1662 -1.5933
 4033SOL     OW16945   0.715   6.692   6.087  0.0234 -0.1474  0.3299
 4033SOL    HW116946   0.624   6.693   6.114  0.0238  0.4919  0.3163
 4033SOL    HW216947   0.728   6.775   6.042  0.3061 -0.7363 -0.7032
 4034SOL     OW16948   0.528   7.153   7.130 -0.6871  0.0345 -0.1264
 4034SOL    HW116949   0.437   7.162   7.102 -0.7523  0.4733  0.2281
 4034SOL    HW216950   0.547   7.060   7.121 -0.7477  0.1507 -1.5193
 4035SOL     OW16951   0.946   5.987   8.170 -0.0268  0.0604  0.4916
 4035SOL    HW116952   0.944   6.051   8.242 -1.6577 -1.2184  1.6317
 4035SOL    HW216953   0.962   6.039   8.092 -0.9529  1.8432  1.4469
 4036SOL     OW16954   0.633   7.651   6.552 -0.2636  0.1774 -0.4212
 4036SOL    HW116955   0.654   7.620   6.640 -0.7902  0.6347 -0.1290
 4036SOL    HW216956   0.703   7.712   6.530  0.3665 -0.6417 -0.6919
 4037SOL     OW16957   2.030   6.095   6.053 -0.3107 -0.0012  0.6200
 4037SOL    HW116958   1.978   6.170   6.023 -2.9793 -1.4866  1.2853
 4037SOL    HW216959   2.053   6.117   6.143  0.4984  0.8060  0.2238
 4038SOL     OW16960   1.080   4.910   6.460  0.3889  0.0558 -0.0199
 4038SOL    HW116961   1.068   4.815   6.471  0.9634 -0.0929 -0.6401
 4038SOL    HW216962   1.008   4.949   6.511 -0.1105 -0.7175 -0.1175
 4039SOL     OW16963   0.173   5.770   7.887  0.3174  0.0823 -0.1122
 4039SOL    HW116964   0.175   5.839   7.821  1.3418 -0.1957 -0.3779
 4039SOL    HW216965   0.260   5.731   7.884 -0.8327 -2.4595 -1.2601
 4040SOL     OW16966   0.402   7.975   7.044 -0.2277 -0.1521 -0.7231
 4040SOL    HW116967   0.320   7.926   7.039 -1.9398  2.5924 -0.9032
 4040SOL    HW216968   0.389   8.036   7.117  1.6133  0.4239 -0.8496
 4041SOL     OW16969   0.582   6.182   7.020  0.4645 -0.7471  0.3931
 4041SOL    HW116970   0.504   6.223   6.983  0.1569 -1.3635  0.3445
 4041SOL    HW216971   0.585   6.213   7.110  0.8781  0.2845  0.0240
 4042SOL     OW16972   9.260   7.568   8.043 -0.0592  0.4554 -0.0916
 4042SOL    HW116973   9.288   7.497   8.101  0.6799  0.1180 -0.8371
 4042SOL    HW216974   9.170   7.586   8.068 -0.3835 -1.0136 -0.1433
 4043SOL     OW16975   9.944   6.136   6.876  0.7103  0.4901 -0.3878
 4043SOL    HW116976  10.039   6.134   6.885  0.9250  1.2950 -2.1752
 4043SOL    HW216977   9.922   6.050   6.841  0.9300  0.7122 -1.0895
 4044SOL     OW16978   9.333   7.073   5.542 -0.5173 -0.2271  0.0863
 4044SOL    HW116979   9.242   7.052   5.525 -0.6071 -0.4999  0.8964
 4044SOL    HW216980   9.347   7.048   5.633 -0.5090  2.8185  0.9745
 4045SOL     OW16981   1.362   5.467   5.585  0.0297  0.4363  0.4844
 4045SOL    HW116982   1.321   5.529   5.645 -0.0954  0.2696  0.5738
 4045SOL    HW216983   1.353   5.507   5.499  0.9660  1.0710  0.6859
 4046SOL     OW16984   3.464   7.778   4.585  0.0140  0.0276  0.2691
 4046SOL    HW116985   3.535   7.805   4.643  0.5682  1.0403 -0.8682
 4046SOL    HW216986   3.386   7.780   4.640  0.7473 -0.4268  1.3493
 4047SOL     OW16987   0.428   5.593   7.637  0.7274  0.1148  0.0273
 4047SOL    HW116988   0.487   5.523   7.609 -1.5156 -1.9916  0.4059
 4047SOL    HW216989   0.371   5.608   7.561  0.1336  0.3682  0.5194
 4048SOL     OW16990   0.863   7.081   5.712 -0.0452  0.1635  0.8489
 4048SOL    HW116991   0.953   7.102   5.686 -0.8159  2.2627 -0.2520
 4048SOL    HW216992   0.872   7.036   5.796  2.0949 -0.7055  0.1833
 4049SOL     OW16993   0.434   6.314   7.252 -0.0282 -0.2256  0.2627
 4049SOL    HW116994   0.448   6.252   7.324 -2.1866  1.2531  2.0173
 4049SOL    HW216995   0.357   6.364   7.278  0.1868  1.5236 -2.2926
 4050SOL     OW16996   0.586   5.551   7.073  0.1285 -1.1762  1.1825
 4050SOL    HW116997   0.656   5.582   7.132 -1.0875  1.3802  1.3604
 4050SOL    HW216998   0.633   5.510   7.001  1.9003  1.2705  0.8683
 4051SOL     OW16999   0.369   6.412   6.508  0.2903  0.1056  0.1881
 4051SOL    HW117000   0.401   6.463   6.434  2.6945 -0.1467  0.9931
 4051SOL    HW217001   0.301   6.466   6.548 -0.8931  0.3210 -2.0670
 4052SOL     OW17002   1.219   6.250   7.217  0.7476 -0.2422 -0.0861
 4052SOL    HW117003   1.139   6.294   7.190  1.3300  0.9489  0.0899
 4052SOL    HW217004   1.195   6.202   7.297 -0.0985 -0.9521 -0.7639
 4053SOL     OW17005   9.985   5.841   5.538 -0.3385  0.0199  0.0357
 4053SOL    HW117006  10.020   5.752   5.526 -1.5634 -0.3433 -0.8838
 4053SOL    HW217007  10.061   5.898   5.527  0.2718 -0.8587 -0.3368
 4054SOL     OW17008   1.106   7.497   6.501  0.2824 -0.6202 -0.1662
 4054SOL    HW117009   1.198   7.520   6.512  0.2499 -1.2899  1.7201
 4054SOL    HW217010   1.059   7.580   6.512  0.4930 -0.7208  1.6265
 4055SOL     OW17011   1.561   6.650   5.303  0.0549  0.2455  0.0310
 4055SOL    HW117012   1.547   6.583   5.237 -0.6316  1.1058 -0.7012
 4055SOL    HW217013   1.474   6.663   5.342  0.3036  0.2953  0.5693
 4056SOL     OW17014   9.832   6.604   7.884  0.3567  0.0005  0.0987
 4056SOL    HW117015   9.848   6.627   7.792 -1.1659 -1.2383 -0.4949
 4056SOL    HW217016   9.899   6.539   7.904  1.1003  0.7489  0.0665
 4057SOL     OW17017   2.382   8.457   6.842  0.3128  0.3593 -0.4867
 4057SOL    HW117018   2.361   8.549   6.829  1.5548  0.4427 -2.0075
 4057SOL    HW217019   2.300   8.411   6.827 -1.0814  1.4144  3.3049
 4058SOL     OW17020   1.791   6.318   7.828 -0.0916 -0.0800 -0.0599
 4058SOL    HW117021   1.778   6.305   7.922 -0.5654 -0.1625 -0.1329
 4058SOL    HW217022   1.726   6.384   7.804 -0.4537 -0.5838 -0.4647
 4059SOL     OW17023   0.034   6.219   4.463  0.2975 -0.2877 -0.3411
 4059SOL    HW117024  -0.004   6.155   4.402 -2.3212  1.0061 -0.1261
 4059SOL    HW217025   0.079   6.167   4.529  0.2406 -1.8163 -1.4988
 4060SOL     OW17026   2.006   5.808   7.841  0.3453  0.1973  0.1901
 4060SOL    HW117027   2.021   5.774   7.752  1.3822 -0.9961  0.8009
 4060SOL    HW217028   1.919   5.847   7.837 -0.7305 -2.1428 -0.6809
 4061SOL     OW17029   1.380   5.362   6.490 -0.5442  0.0306 -0.1171
 4061SOL    HW117030   1.427   5.356   6.573 -0.4273 -2.3335 -0.2941
 4061SOL    HW217031   1.443   5.328   6.425 -0.9173  1.0929 -1.0483
 4062SOL     OW17032   9.055   6.882   5.415  0.0050  0.0009  0.1625
 4062SOL    HW117033   8.966   6.856   5.392 -1.1042  3.9059 -0.3961
 4062SOL    HW217034   9.050   6.904   5.508  0.1964  0.8407 -0.0220
 4063SOL     OW17035   0.212   6.491   8.073  0.4706  0.0565  0.1486
 4063SOL    HW117036   0.133   6.462   8.029  0.5574  1.0154 -0.6473
 4063SOL    HW217037   0.222   6.431   8.147  0.1137 -1.3163 -0.9124
 4064SOL     OW17038   0.496   6.047   7.437  0.7024 -0.7326 -0.3253
 4064SOL    HW117039   0.506   6.012   7.525 -0.9381  0.1067  0.2122
 4064SOL    HW217040   0.439   5.985   7.392 -0.6811  0.2341  0.0571
 4065SOL     OW17041   0.750   5.788   6.694  0.0814 -0.0163 -0.0751
 4065SOL    HW117042   0.659   5.765   6.712  0.5328 -1.3373  0.6927
 4065SOL    HW217043   0.749   5.832   6.610 -1.4760  1.4922  0.7281
 4066SOL     OW17044   1.738   5.093   4.483 -0.0289  0.3660 -0.3385
 4066SOL    HW117045   1.825   5.128   4.462  0.2166 -1.4609 -2.7164
 4066SOL    HW217046   1.753   5.000   4.498 -1.3208  0.3746  1.0666
 4067SOL     OW17047   1.537   6.010   6.020  0.1576  0.4529  0.3726
 4067SOL    HW117048   1.521   5.968   5.936 -1.2698  0.3793  0.6601
 4067SOL    HW217049   1.528   5.940   6.085 -0.6105  0.8579  0.7212
 4068SOL     OW17050   9.908   6.531   6.687  0.0755  0.2847 -0.1388
 4068SOL    HW117051   9.953   6.508   6.606  0.7674 -0.3437  0.4242
 4068SOL    HW217052   9.923   6.626   6.696  1.2986  0.0856  0.0429
 4069SOL     OW17053   9.553   5.144   5.401  0.7201  0.0868  0.6283
 4069SOL    HW117054   9.528   5.148   5.309  0.6034 -1.4177  0.5839
 4069SOL    HW217055   9.638   5.189   5.405  0.2421  1.0620 -0.0260
 4070SOL     OW17056   8.092   6.610   5.649  0.4783 -0.1974 -0.5192
 4070SOL    HW117057   8.066   6.658   5.728 -0.0391 -1.8946  0.3714
 4070SOL    HW217058   8.181   6.640   5.631  0.3139  0.7982  0.2494
 4071SOL     OW17059   0.083   7.589   4.447  0.2755  0.0705  0.2389
 4071SOL    HW117060   0.063   7.547   4.363  2.9153 -1.5185  0.3506
 4071SOL    HW217061   0.125   7.671   4.423 -2.4083  1.4712  0.0482
 4072SOL     OW17062   0.505   7.557   5.726 -0.4220  0.3218 -0.0025
 4072SOL    HW117063   0.543   7.589   5.808  1.4770 -0.8622 -0.3936
 4072SOL    HW217064   0.571   7.577   5.660 -2.1017  1.6001 -1.3280
 4073SOL     OW17065   0.736   6.551   6.801  0.0541  0.0773  0.0274
 4073SOL    HW117066   0.794   6.579   6.731  0.8660 -2.0799 -0.1979
 4073SOL    HW217067   0.665   6.504   6.756  0.6719 -1.4713  0.6194
 4074SOL     OW17068   9.065   5.339   4.652 -0.4775 -0.8229  0.0761
 4074SOL    HW117069   9.072   5.249   4.684  1.4291 -0.6815  0.1067
 4074SOL    HW217070   9.042   5.330   4.560  1.6243 -1.4001 -0.4192
 4075SOL     OW17071   9.291   5.228   7.698  0.1732 -0.0849  0.7285
 4075SOL    HW117072   9.375   5.195   7.731  0.3936  1.0642  1.3341
 4075SOL    HW217073   9.306   5.321   7.681 -0.1235 -0.5366 -2.0902
 4076SOL     OW17074   0.235   6.652   7.582 -0.6400  0.1185  0.9254
 4076SOL    HW117075   0.166   6.710   7.615 -0.0072  0.5536  1.4921
 4076SOL    HW217076   0.200   6.564   7.595 -1.4352  0.3534  0.4449
 4077SOL     OW17077   0.177   6.616   5.676  0.4088  0.1890  0.3837
 4077SOL    HW117078   0.231   6.544   5.710  0.0527  0.4974  1.6379
 4077SOL    HW217079   0.236   6.665   5.618  0.5270 -1.3496 -0.8211
 4078SOL     OW17080   2.756   4.863   7.534 -0.1621  0.0142  0.0146
 4078SOL    HW117081   2.819   4.932   7.555  0.0211 -0.7605  2.1799
 4078SOL    HW217082   2.737   4.822   7.619 -1.3886 -1.6374 -1.0346
 4079SOL     OW17083   0.174   7.270   8.048 -0.2481  0.6491  0.2247
 4079SOL    HW117084   0.256   7.298   8.089 -0.5694 -0.7448  1.8921
 4079SOL    HW217085   0.177   7.174   8.052 -1.0494  0.5346 -1.5455
 4080SOL     OW17086   1.968   4.847   7.211  0.1927  0.0060  0.3647
 4080SOL    HW117087   2.005   4.914   7.152  1.4653 -0.6369  0.4183
 4080SOL    HW217088   1.951   4.895   7.292  0.3282  0.4591  0.1318
 4081SOL     OW17089   8.687   8.723   7.898  0.0897  0.3927  0.4913
 4081SOL    HW117090   8.648   8.810   7.897  0.0439  0.3707  0.0431
 4081SOL    HW217091   8.737   8.718   7.816 -1.0187 -0.5058 -0.1478
 4082SOL     OW17092   1.846   5.311   6.862 -0.4661  0.1694  0.1436
 4082SOL    HW117093   1.832   5.398   6.824  1.3879  0.8768  1.0132
 4082SOL    HW217094   1.928   5.281   6.822 -0.5915 -0.7558  0.5869
 4083SOL     OW17095   0.924   5.747   7.860 -0.1369 -0.2914 -0.5372
 4083SOL    HW117096   1.016   5.759   7.838  0.2159 -0.4327  0.8070
 4083SOL    HW217097   0.919   5.657   7.894 -0.4886  0.2023  0.7437
 4084SOL     OW17098   1.732   6.221   6.024 -0.2859 -0.1669  0.4711
 4084SOL    HW117099   1.675   6.297   6.032 -0.0146  0.1447 -0.5236
 4084SOL    HW217100   1.709   6.182   5.940  0.4735 -0.4531  0.3914
 4085SOL     OW17101   9.698   6.900   7.010 -0.0491 -0.3428  0.2510
 4085SOL    HW117102   9.628   6.954   6.971  0.5066  0.8106  0.8219
 4085SOL    HW217103   9.655   6.818   7.032 -1.2243  0.3397  0.5647
 4086SOL     OW17104   1.859   7.426   4.408  0.1720 -0.4037  0.0737
 4086SOL    HW117105   1.784   7.409   4.465 -1.2928 -0.3120 -1.7511
 4086SOL    HW217106   1.860   7.522   4.398  0.2818 -0.4355 -0.2243
 4087SOL     OW17107   1.885   6.764   7.907  0.1169 -0.5591 -0.2207
 4087SOL    HW117108   1.889   6.757   7.812  0.8397  1.8485 -0.4019
 4087SOL    HW217109   1.970   6.801   7.932 -0.1476 -0.9769  1.3549
 4088SOL     OW17110   1.489   7.100   4.958  0.1383  0.0449 -0.4969
 4088SOL    HW117111   1.424   7.031   4.944  0.1745 -0.0723 -0.0997
 4088SOL    HW217112   1.512   7.092   5.050  3.2606 -2.1322 -1.3999
 4089SOL     OW17113   0.154   7.363   6.469  0.1255 -0.2469  0.1628
 4089SOL    HW117114   0.059   7.352   6.466  0.0471 -0.2777  1.8142
 4089SOL    HW217115   0.188   7.308   6.398 -1.1418  0.5608 -1.0694
 4090SOL     OW17116   1.403   6.059   7.106 -0.1809 -0.6393 -0.1157
 4090SOL    HW117117   1.474   6.067   7.170 -0.7407  0.6794  0.3623
 4090SOL    HW217118   1.349   6.137   7.120 -1.2631 -1.2045 -1.0394
 4091SOL     OW17119   0.950   8.154   6.660 -0.1981 -0.2674  0.5315
 4091SOL    HW117120   1.045   8.168   6.654 -0.7520  3.1050 -1.8768
 4091SOL    HW217121   0.924   8.198   6.740 -0.0246  0.6788  0.0680
 4092SOL     OW17122   8.834   8.604   0.042 -0.6132 -0.2741 -0.3037
 4092SOL    HW117123   8.789   8.559   0.113  1.6459 -0.2920  1.1731
 4092SOL    HW217124   8.908   8.547   0.021  0.5048  1.2363 -0.5561
 4093SOL     OW17125   0.437   5.381   6.771  0.3257  0.1212 -0.0530
 4093SOL    HW117126   0.433   5.317   6.700  0.3158  0.5454 -0.4355
 4093SOL    HW217127   0.530   5.385   6.794  0.4026  0.3830 -0.4076
 4094SOL     OW17128   9.693   7.287   7.751  0.8047  0.0696 -0.7840
 4094SOL    HW117129   9.787   7.279   7.766  0.9023 -0.3140 -1.6088
 4094SOL    HW217130   9.671   7.374   7.784  1.7733  0.8824 -2.2266
 4095SOL     OW17131   0.052   7.401   4.981  0.2045  0.5293  0.2212
 4095SOL    HW117132   0.090   7.474   5.030 -0.1353  1.1049 -0.3636
 4095SOL    HW217133   0.007   7.348   5.047  0.5245  0.7995  0.6613
 4096SOL     OW17134   1.027   6.364   6.709  0.6025 -0.0612  0.5533
 4096SOL    HW117135   0.991   6.451   6.693 -1.3589 -0.7130  1.2635
 4096SOL    HW217136   0.954   6.314   6.744  2.3410 -1.3166  2.4845
 4097SOL     OW17137   2.722   6.164   4.223  0.4966  0.1866 -0.0408
 4097SOL    HW117138   2.666   6.152   4.146 -2.2691 -1.8598  2.1735
 4097SOL    HW217139   2.684   6.239   4.270 -0.7466 -1.4769  1.6976
 4098SOL     OW17140   1.559   5.795   6.546 -0.8280 -0.0942 -0.3823
 4098SOL    HW117141   1.614   5.872   6.534  0.7817 -1.1661 -0.0490
 4098SOL    HW217142   1.552   5.785   6.641  0.7261 -1.5528 -0.3941
 4099SOL     OW17143   1.618   6.112   5.288  0.4008  0.2798 -0.4746
 4099SOL    HW117144   1.548   6.098   5.225 -0.5449  1.4002  0.2950
 4099SOL    HW217145   1.618   6.034   5.343  0.8793 -0.4615 -1.5167
 4100SOL     OW17146   0.118   6.628   8.421  0.6753 -0.3289  0.1260
 4100SOL    HW117147   0.149   6.537   8.412  1.2646 -0.1477  0.3249
 4100SOL    HW217148   0.030   6.619   8.457  0.1372 -0.8836 -1.2715
 4101SOL     OW17149   0.228   5.145   5.616  0.0075  0.2173 -0.5561
 4101SOL    HW117150   0.230   5.064   5.565 -0.3520  0.1079 -0.3968
 4101SOL    HW217151   0.182   5.207   5.559  0.7803  0.4716 -0.9125
 4102SOL     OW17152   2.315   6.928   5.632 -0.0856 -0.2237  0.3575
 4102SOL    HW117153   2.289   6.843   5.668  0.9347 -1.3168 -1.4274
 4102SOL    HW217154   2.398   6.911   5.586  0.8809  2.0274  1.1635
 4103SOL     OW17155   9.153   7.678   8.342  0.2851 -0.4017 -0.3546
 4103SOL    HW117156   9.245   7.654   8.334  1.2921  2.5453  1.2162
 4103SOL    HW217157   9.146   7.718   8.429 -1.9535  1.5309 -1.3452
 4104SOL     OW17158   9.710   6.557   4.930  0.0502 -0.5705 -0.4347
 4104SOL    HW117159   9.768   6.533   4.859  0.5126 -2.2146  0.4729
 4104SOL    HW217160   9.624   6.566   4.890  0.3998 -0.9934 -1.2762
 4105SOL     OW17161   0.611   5.106   5.810 -0.6304 -0.6323 -0.3690
 4105SOL    HW117162   0.572   5.087   5.895 -1.6381 -0.1117 -0.7090
 4105SOL    HW217163   0.620   5.020   5.768 -0.1803 -0.8812  0.2404
 4106SOL     OW17164   0.587   6.889   6.398  0.4870 -0.0145  0.1428
 4106SOL    HW117165   0.527   6.903   6.324 -0.3067 -0.1654  0.7456
 4106SOL    HW217166   0.572   6.797   6.422  0.7692  0.0278  0.4708
 4107SOL     OW17167   1.181   5.094   6.712  0.3456 -0.1277  0.2745
 4107SOL    HW117168   1.091   5.103   6.746  1.0641  0.9604  1.9601
 4107SOL    HW217169   1.186   5.003   6.682 -0.7599 -0.7398  1.8639
 4108SOL     OW17170   0.726   5.769   5.001 -0.2520  0.0163  0.3714
 4108SOL    HW117171   0.792   5.699   4.998 -0.4864 -0.2091  0.4706
 4108SOL    HW217172   0.775   5.848   4.978 -0.3553 -0.4435 -1.4610
 4109SOL     OW17173   9.986   7.629   7.605  0.4404  0.2334 -0.0058
 4109SOL    HW117174  10.064   7.684   7.616 -0.4146  1.4178  0.2757
 4109SOL    HW217175   9.970   7.592   7.692  1.9574 -1.7797 -0.5568
 4110SOL     OW17176   1.117   7.227   8.046  0.6796 -0.2514 -0.0374
 4110SOL    HW117177   1.148   7.308   8.006  0.2183 -0.0609 -0.0106
 4110SOL    HW217178   1.178   7.160   8.015  2.2520  0.4306  1.5260
 4111SOL     OW17179   0.353   5.083   5.144  0.1613  0.0644 -0.0555
 4111SOL    HW117180   0.303   5.124   5.073 -0.4277 -0.7971 -0.1527
 4111SOL    HW217181   0.350   4.989   5.124  0.7501 -0.1020  0.6266
 4112SOL     OW17182   1.166   5.771   6.381  0.3731 -0.1027 -0.4814
 4112SOL    HW117183   1.156   5.730   6.467 -4.3379  1.0586 -0.3652
 4112SOL    HW217184   1.148   5.700   6.319 -0.3591  0.0397 -0.4313
 4113SOL     OW17185   9.869   4.342   4.115  0.2219  0.0657 -0.1246
 4113SOL    HW117186   9.866   4.408   4.184  0.3073 -1.4500  1.3308
 4113SOL    HW217187   9.945   4.289   4.135  1.6216  0.9973 -2.6992
 4114SOL     OW17188   0.348   6.856   4.932  0.3773 -0.2514  0.0314
 4114SOL    HW117189   0.432   6.871   4.890 -0.3157  1.8421 -0.6891
 4114SOL    HW217190   0.307   6.943   4.936 -0.6027 -0.7874  2.8399
 4115SOL     OW17191   9.848   6.910   7.947  0.4135  0.0312 -0.0728
 4115SOL    HW117192   9.852   6.816   7.928 -1.7370 -0.4035  1.5219
 4115SOL    HW217193   9.766   6.939   7.908  0.3006  0.9252  0.8229
 4116SOL     OW17194   1.974   7.376   8.174 -0.2758 -0.5952 -0.9471
 4116SOL    HW117195   1.958   7.323   8.252  0.4276  0.2387 -0.2155
 4116SOL    HW217196   1.974   7.467   8.206 -2.6918 -0.0386 -2.3884
 4117SOL     OW17197   1.905   7.235   6.887  0.1615 -0.1449  0.3118
 4117SOL    HW117198   1.931   7.242   6.795  0.4558 -2.8892  0.1500
 4117SOL    HW217199   1.987   7.220   6.934 -0.1350 -0.0099  0.8774
 4118SOL     OW17200   0.330   4.939   6.225  0.1291  0.4086  0.2869
 4118SOL    HW117201   0.249   4.940   6.173  0.0416 -0.7929  0.3972
 4118SOL    HW217202   0.310   4.884   6.300  0.9798  0.3233  0.4543
 4119SOL     OW17203   0.143   7.516   7.953 -0.5678  0.4029 -0.4305
 4119SOL    HW117204   0.119   7.569   8.030  0.0739  1.8438 -1.2000
 4119SOL    HW217205   0.153   7.428   7.987 -1.0065  0.8902  1.0185
 4120SOL     OW17206   2.345   5.560   5.660 -0.2574  0.0853 -0.3308
 4120SOL    HW117207   2.372   5.652   5.653 -1.7923  0.4253 -2.2853
 4120SOL    HW217208   2.426   5.510   5.652  0.5809  1.2658  0.6888
 4121SOL     OW17209   1.009   7.094   5.414 -0.1873 -0.0462  0.4228
 4121SOL    HW117210   0.974   7.045   5.488 -0.0072 -3.2310 -1.5368
 4121SOL    HW217211   0.990   7.040   5.337  0.9432  2.4637 -1.7142
 4122SOL     OW17212   9.819   5.211   6.389 -0.2568 -0.1203  0.0480
 4122SOL    HW117213   9.781   5.277   6.447  0.1150  0.4627 -0.3624
 4122SOL    HW217214   9.784   5.232   6.302 -3.1059 -2.7096  0.4560
 4123SOL     OW17215   0.988   6.001   6.969 -0.1760  0.9218  0.2852
 4123SOL    HW117216   1.079   6.012   6.996 -0.4503  1.2102  1.0900
 4123SOL    HW217217   0.979   5.906   6.954  0.9556  1.1853 -2.3153
 4124SOL     OW17218   1.921   5.640   7.531  0.4609 -0.3143  0.1761
 4124SOL    HW117219   1.842   5.687   7.504  1.2026  2.2390  2.2554
 4124SOL    HW217220   1.991   5.678   7.479  0.7851 -0.4788  0.4911
 4125SOL     OW17221   0.077   7.238   4.671 -0.5489  0.2345 -0.1427
 4125SOL    HW117222   0.140   7.308   4.688 -1.1494  1.0687 -1.2927
 4125SOL    HW217223   0.105   7.200   4.588 -1.3852  0.4345 -0.5265
 4126SOL     OW17224   1.706   6.260   7.233 -0.0501  0.2919 -0.0133
 4126SOL    HW117225   1.693   6.165   7.231 -1.8052  0.4569  2.1139
 4126SOL    HW217226   1.638   6.292   7.292  1.7831  2.6692  0.8547
 4127SOL     OW17227   1.317   5.958   6.214  0.3149 -0.5737  0.0397
 4127SOL    HW117228   1.309   6.052   6.230 -0.8128 -0.9047  1.5186
 4127SOL    HW217229   1.234   5.933   6.173  0.1449 -1.1267  0.7126
 4128SOL     OW17230   2.584   6.769   5.747 -0.7688 -0.1638 -0.0625
 4128SOL    HW117231   2.595   6.681   5.711 -1.0489  0.1419 -0.9017
 4128SOL    HW217232   2.606   6.828   5.675  2.1378  0.4813  1.2624
 4129SOL     OW17233   2.656   6.832   6.584  0.5263 -0.3746  0.3793
 4129SOL    HW117234   2.638   6.738   6.591 -0.2808 -0.3669 -1.5051
 4129SOL    HW217235   2.577   6.874   6.620 -0.0238 -0.4049 -0.7822
 4130SOL     OW17236   0.579   6.975   7.756 -0.1586 -0.2298 -0.0283
 4130SOL    HW117237   0.626   6.972   7.839  1.2130 -0.7933 -0.8063
 4130SOL    HW217238   0.520   6.899   7.760  1.2224 -1.3516 -0.3065
 4131SOL     OW17239   0.534   6.627   7.023  0.2689 -0.1100  0.1046
 4131SOL    HW117240   0.586   6.584   6.956  0.0511 -1.1954  0.6245
 4131SOL    HW217241   0.454   6.655   6.978  0.8542  0.6750 -0.4643
 4132SOL     OW17242   0.058   6.764   6.938  0.1202 -0.0479 -0.1258
 4132SOL    HW117243   0.026   6.850   6.968  1.8335  1.0655 -1.3717
 4132SOL    HW217244   0.015   6.751   6.853 -1.5285 -1.2809  0.8734
 4133SOL     OW17245   0.408   5.388   7.210  0.0071 -0.4859 -0.1903
 4133SOL    HW117246   0.473   5.434   7.157  1.6533  0.8499  2.8391
 4133SOL    HW217247   0.452   5.308   7.239  0.6880  0.8462  2.5935
 4134SOL     OW17248   0.003   5.457   6.452 -0.1082 -0.2669 -0.1465
 4134SOL    HW117249   0.030   5.446   6.361  1.0111 -1.8401  0.3519
 4134SOL    HW217250  -0.071   5.397   6.463  0.6638 -1.1414  0.3486
 4135SOL     OW17251   2.540   5.936   8.401 -0.3788  0.2036  0.4942
 4135SOL    HW117252   2.487   5.942   8.322  1.0042 -0.1018 -0.4875
 4135SOL    HW217253   2.551   6.027   8.430  1.0579  0.5386 -1.0220
 4136SOL     OW17254   0.289   6.239   5.584 -0.2046 -0.1839 -0.6063
 4136SOL    HW117255   0.267   6.148   5.607  1.7438 -0.3601  0.7002
 4136SOL    HW217256   0.347   6.230   5.508  0.8586 -0.1104  0.1843
 4137SOL     OW17257   9.403   8.216   4.916  0.7735  0.5576 -0.1790
 4137SOL    HW117258   9.403   8.290   4.855 -1.8685  0.9382  0.2134
 4137SOL    HW217259   9.492   8.182   4.912  1.7031  2.9669 -1.3273
 4138SOL     OW17260   1.137   3.990   6.743 -0.3131 -0.1508  0.1323
 4138SOL    HW117261   1.083   3.911   6.753  0.4012 -0.9193 -1.8672
 4138SOL    HW217262   1.222   3.965   6.779 -1.1873  1.0128  3.1463
 4139SOL     OW17263   0.797   6.408   5.655  0.3891 -0.1793  0.7912
 4139SOL    HW117264   0.746   6.451   5.723 -0.6868 -1.9220  1.0981
 4139SOL    HW217265   0.837   6.333   5.698 -1.6248 -2.2608 -0.8016
 4140SOL     OW17266   1.105   4.913   6.181  0.5035 -0.1016  0.3553
 4140SOL    HW117267   1.010   4.911   6.192  0.4229 -2.2798 -0.4569
 4140SOL    HW217268   1.140   4.888   6.266  0.3157 -0.2682  0.3839
 4141SOL     OW17269   8.807   7.018   9.009 -0.1719 -0.3032  0.0425
 4141SOL    HW117270   8.799   7.112   8.999  0.3627 -0.1206  1.1948
 4141SOL    HW217271   8.792   7.002   9.102  2.2996 -1.0474  0.3550
 4142SOL     OW17272   0.911   5.937   4.937 -0.3659  0.3342  0.1412
 4142SOL    HW117273   0.995   5.909   4.974  0.2103  0.5355 -0.9963
 4142SOL    HW217274   0.919   6.032   4.929 -0.6657  0.3422 -0.0556
 4143SOL     OW17275   1.575   5.392   7.132 -0.2743  0.3362  0.0536
 4143SOL    HW117276   1.531   5.469   7.168  0.7449  0.8161  0.2804
 4143SOL    HW217277   1.507   5.325   7.130 -0.9951  1.0415  0.4935
 4144SOL     OW17278   2.310   4.623   6.350 -0.6437  0.1854  0.0298
 4144SOL    HW117279   2.367   4.586   6.418  0.3192  1.3381 -0.1363
 4144SOL    HW217280   2.230   4.647   6.396 -0.9894 -1.3621  0.2855
 4145SOL     OW17281   0.397   6.541   6.226  0.3339 -0.4654 -0.2027
 4145SOL    HW117282   0.419   6.628   6.195 -0.9947 -0.0608 -0.0642
 4145SOL    HW217283   0.348   6.501   6.154 -0.0444 -0.6729  0.1619
 4146SOL     OW17284   3.568   7.892   4.868 -0.2547  0.1743 -0.1051
 4146SOL    HW117285   3.531   7.897   4.956 -0.4684 -0.3760 -0.1673
 4146SOL    HW217286   3.627   7.968   4.864  1.2154 -0.8619  1.1899
 4147SOL     OW17287   8.844   5.591   8.117  0.0811  0.1767  0.5651
 4147SOL    HW117288   8.775   5.657   8.129  0.5574  0.4321  2.0996
 4147SOL    HW217289   8.806   5.510   8.151 -0.9340 -0.6395 -2.4235
 4148SOL     OW17290   1.363   4.312   9.789 -0.5344 -0.0117 -0.0666
 4148SOL    HW117291   1.418   4.322   9.711  1.9431 -1.6076  1.4349
 4148SOL    HW217292   1.387   4.385   9.846 -0.1727 -0.5398  0.4644
 4149SOL     OW17293   9.046   6.693   9.193  0.2636  0.1130  0.1773
 4149SOL    HW117294   9.033   6.763   9.257 -2.5048 -0.2281  0.0493
 4149SOL    HW217295   9.132   6.657   9.214  0.7794  2.1007  1.6425
 4150SOL     OW17296   8.596   7.438   7.999  0.7178  0.7972 -0.7387
 4150SOL    HW117297   8.590   7.419   7.906  2.9090 -0.6937 -0.6233
 4150SOL    HW217298   8.524   7.389   8.039  0.7296  0.1653 -1.4854
 4151SOL     OW17299   2.520   7.505   7.800 -0.3122 -0.1112 -0.0089
 4151SOL    HW117300   2.499   7.524   7.891 -1.0926 -2.9213  0.4392
 4151SOL    HW217301   2.435   7.493   7.757  0.1013 -1.3739 -0.5013
 4152SOL     OW17302   1.782   5.625   6.683  0.3764 -0.4086  0.2027
 4152SOL    HW117303   1.739   5.652   6.764  0.1785  0.6485 -0.2397
 4152SOL    HW217304   1.874   5.613   6.707  0.4523  0.5977  0.4332
 4153SOL     OW17305   0.464   6.792   9.168 -0.0253  0.3016 -0.2705
 4153SOL    HW117306   0.527   6.790   9.095  0.2164  0.3278 -0.0624
 4153SOL    HW217307   0.410   6.868   9.150  1.8387  1.9992  1.0863
 4154SOL     OW17308   2.656   6.992   9.635  0.4707 -0.1190  0.2366
 4154SOL    HW117309   2.611   7.056   9.580  0.3111  0.2506  0.7933
 4154SOL    HW217310   2.690   7.043   9.709 -1.4997 -1.0223  1.7963
 4155SOL     OW17311   0.667   6.926   8.004 -0.2947  0.0337 -0.0816
 4155SOL    HW117312   0.606   6.938   8.077 -2.0284 -0.0180 -1.4939
 4155SOL    HW217313   0.722   6.853   8.032 -0.1871  0.7364  1.6474
 4156SOL     OW17314   1.134   8.004  10.000 -0.1089 -0.0334  0.0973
 4156SOL    HW117315   1.140   7.935  10.065 -1.7381  0.8850  1.2469
 4156SOL    HW217316   1.213   8.058  10.014  1.1019 -1.5318 -0.7285
 4157SOL     OW17317   8.630   6.743   8.197 -0.3490  0.4757  0.0374
 4157SOL    HW117318   8.567   6.702   8.137  0.1259  0.1009 -0.2124
 4157SOL    HW217319   8.579   6.761   8.276 -0.9501  0.8443 -0.4200
 4158SOL     OW17320   1.438   6.950   9.211 -0.7396 -0.2120 -0.1125
 4158SOL    HW117321   1.390   7.025   9.178 -2.7082 -1.2122  0.3991
 4158SOL    HW217322   1.484   6.915   9.134 -1.4815  0.2797 -0.7816
 4159SOL     OW17323   3.052   9.070   9.243  0.0743  0.5644 -0.3646
 4159SOL    HW117324   2.965   9.050   9.209 -0.2275  0.1727  0.6111
 4159SOL    HW217325   3.036   9.102   9.332  1.1366 -2.4895  0.9835
 4160SOL     OW17326   9.511   7.892   6.469 -0.3296  0.4482  0.0928
 4160SOL    HW117327   9.536   7.973   6.513  1.0180  1.0391 -1.7059
 4160SOL    HW217328   9.476   7.921   6.384  0.0143 -0.8368 -0.4951
 4161SOL     OW17329   0.405   6.748   0.035  0.4858  0.1612 -0.4606
 4161SOL    HW117330   0.326   6.792   0.006 -0.8269  0.1139  2.8507
 4161SOL    HW217331   0.476   6.809   0.014 -0.7436  1.4655 -0.8733
 4162SOL     OW17332   0.141   9.352   9.735  0.1955  0.3811  0.1025
 4162SOL    HW117333   0.126   9.417   9.804 -0.6307  0.2971  0.0019
 4162SOL    HW217334   0.234   9.363   9.712  0.6144  0.0816  1.5624
 4163SOL     OW17335   9.793   7.819   7.743 -1.3842  0.5099 -0.2791
 4163SOL    HW117336   9.858   7.827   7.813 -1.1145  0.4368 -0.5241
 4163SOL    HW217337   9.752   7.734   7.759 -0.4097 -0.1008 -0.9965
 4164SOL     OW17338   9.890   7.799   8.368  0.4761 -0.4529  0.6917
 4164SOL    HW117339   9.931   7.879   8.334 -2.3361  0.1105 -1.6420
 4164SOL    HW217340   9.846   7.826   8.448 -2.2049  0.8940 -1.1771
 4165SOL     OW17341   1.081   6.731   7.569 -0.5871 -0.4042 -0.4143
 4165SOL    HW117342   1.120   6.675   7.636  1.6199  0.3908 -0.9842
 4165SOL    HW217343   1.096   6.820   7.600 -1.6260 -0.0752 -0.8390
 4166SOL     OW17344   0.209   6.741   7.975  0.6263  0.6248 -0.0297
 4166SOL    HW117345   0.219   6.771   8.066 -0.0587  0.0013  0.2613
 4166SOL    HW217346   0.187   6.648   7.984  0.8477  0.4930 -0.8523
 4167SOL     OW17347   9.930   5.710   8.082  0.6544 -0.2928 -0.2101
 4167SOL    HW117348   9.968   5.710   8.170 -0.9592 -1.4704  0.5010
 4167SOL    HW217349   9.993   5.760   8.029  1.4359  0.7883  1.6877
 4168SOL     OW17350   1.145   6.991   7.621 -0.1445 -0.7265  0.7544
 4168SOL    HW117351   1.197   7.062   7.658  1.1640 -1.5509  0.5185
 4168SOL    HW217352   1.146   7.007   7.527  0.6888 -1.4050  0.6418
 4169SOL     OW17353   8.857   7.435   7.378 -0.0490  0.1193 -0.6644
 4169SOL    HW117354   8.930   7.420   7.439 -0.5004 -0.7754 -0.3410
 4169SOL    HW217355   8.839   7.529   7.385 -1.1500 -0.2273  1.7878
 4170SOL     OW17356   2.100   6.311   9.339  0.3048  0.6105  0.0624
 4170SOL    HW117357   2.125   6.220   9.358 -1.4367 -0.0564 -0.6825
 4170SOL    HW217358   2.068   6.308   9.249 -0.4339  1.8280  0.2757
 4171SOL     OW17359   1.708   6.583   6.961  0.3538  0.3101 -0.9161
 4171SOL    HW117360   1.781   6.560   7.018 -0.1711 -0.8871 -0.7056
 4171SOL    HW217361   1.634   6.594   7.020 -0.0171 -0.1699 -1.2906
 4172SOL     OW17362   9.377   6.048   0.489 -0.4087  0.1981  0.7357
 4172SOL    HW117363   9.455   6.051   0.545 -0.1010 -1.3874  0.4188
 4172SOL    HW217364   9.337   6.134   0.500  1.4217  1.0729  0.8466
 4173SOL     OW17365   9.659   5.941   7.300  0.1690 -0.0063  0.6548
 4173SOL    HW117366   9.582   5.982   7.340 -0.6710 -1.5028  0.6495
 4173SOL    HW217367   9.637   5.847   7.298  0.3642 -0.0363 -2.8865
 4174SOL     OW17368   3.617   8.429   8.152  0.4957 -0.2384 -0.4445
 4174SOL    HW117369   3.698   8.467   8.119  1.1759 -0.4617  0.9338
 4174SOL    HW217370   3.640   8.393   8.238 -0.8299 -1.1593 -0.4522
 4175SOL     OW17371   1.062   6.587   7.212 -0.0651  0.8049  0.4634
 4175SOL    HW117372   1.133   6.642   7.179  0.5001  0.7498  1.5733
 4175SOL    HW217373   1.022   6.550   7.133  0.8484  1.1954 -0.1912
 4176SOL     OW17374   1.197   6.800   8.523 -0.3938  0.9637 -0.3867
 4176SOL    HW117375   1.137   6.726   8.529  1.2752 -0.3107  1.2322
 4176SOL    HW217376   1.146   6.875   8.553 -0.5512 -0.5123  3.2604
 4177SOL     OW17377   9.657   7.213   9.942 -0.0619 -0.4759  0.4539
 4177SOL    HW117378   9.686   7.148   9.878  0.9692  0.1153  0.3052
 4177SOL    HW217379   9.590   7.168   9.993 -0.7762 -0.9981 -0.9295
 4178SOL     OW17380   0.169   4.934   8.606  0.0016  0.5811  0.2220
 4178SOL    HW117381   0.087   4.971   8.576 -0.5028  0.2475  1.1609
 4178SOL    HW217382   0.223   4.927   8.527 -0.4935  1.7445 -0.2236
 4179SOL     OW17383   1.160   5.265   8.195  0.2617  0.5209 -0.3443
 4179SOL    HW117384   1.138   5.251   8.287  0.4521  1.1362 -0.1993
 4179SOL    HW217385   1.239   5.213   8.180  0.8937  1.3330  0.1469
 4180SOL     OW17386   1.060   6.483   8.302  0.2698  0.0699  0.1107
 4180SOL    HW117387   1.020   6.553   8.354  1.4597  1.0934 -0.3414
 4180SOL    HW217388   1.057   6.516   8.212  0.6189 -0.5639 -0.1317
 4181SOL     OW17389   9.901   6.816   6.735  0.0651 -0.5744  0.1779
 4181SOL    HW117390   9.958   6.892   6.721 -0.9669 -0.4576 -4.1329
 4181SOL    HW217391   9.817   6.853   6.761  0.2611 -0.3936  0.5545
 4182SOL     OW17392   0.080   5.815   8.388 -0.7550  0.8590 -0.1114
 4182SOL    HW117393   0.099   5.727   8.420 -1.7454  0.4417 -0.6603
 4182SOL    HW217394   0.155   5.837   8.334 -0.5879  0.2842 -0.1161
 4183SOL     OW17395   0.506   7.606   7.420  0.2209 -0.3696 -0.3756
 4183SOL    HW117396   0.474   7.551   7.348 -2.7316  0.1632  0.4709
 4183SOL    HW217397   0.495   7.551   7.498 -0.0124  0.3459  0.1035
 4184SOL     OW17398   0.901   5.049   7.136 -0.3010  0.4914  0.6609
 4184SOL    HW117399   0.809   5.040   7.109 -0.3568  0.8254  0.7451
 4184SOL    HW217400   0.907   4.998   7.217  0.1882 -1.6726 -0.6815
 4185SOL     OW17401   2.647   6.600   8.911 -0.1668  0.4390  0.1247
 4185SOL    HW117402   2.593   6.550   8.973 -0.8870  1.0411 -0.0160
 4185SOL    HW217403   2.652   6.687   8.949  1.4853  0.1420  0.6091
 4186SOL     OW17404   3.338   6.083   8.952  0.1992  0.4745  0.6733
 4186SOL    HW117405   3.284   6.045   9.021  0.6140  0.9581  1.2694
 4186SOL    HW217406   3.377   6.161   8.992  0.5051  0.7142 -0.0792
 4187SOL     OW17407   1.459   6.150   8.355 -0.3612 -0.7102 -0.0917
 4187SOL    HW117408   1.440   6.226   8.410  1.2617  0.1867 -0.7412
 4187SOL    HW217409   1.553   6.135   8.365  0.0695 -0.2634 -2.8620
 4188SOL     OW17410   0.199   6.380   8.903 -0.3262  0.0788 -0.0319
 4188SOL    HW117411   0.248   6.458   8.927 -1.3873  0.3295  1.3963
 4188SOL    HW217412   0.119   6.414   8.862 -0.6103 -0.2502  0.2420
 4189SOL     OW17413   1.794   7.009   8.910 -0.4860  0.4036  0.0779
 4189SOL    HW117414   1.757   6.921   8.920 -0.2535  0.2340 -0.5537
 4189SOL    HW217415   1.737   7.065   8.964  0.8319 -0.5120  2.5009
 4190SOL     OW17416   2.150   6.012   9.124  0.1747  0.4452  0.3140
 4190SOL    HW117417   2.179   5.925   9.153 -2.4124 -0.3135  0.8101
 4190SOL    HW217418   2.116   6.053   9.203 -0.9551  0.8987 -0.3923
 4191SOL     OW17419   2.294   6.435   6.979 -0.2504 -0.3785 -0.2591
 4191SOL    HW117420   2.208   6.420   6.939 -0.1903  1.2505 -1.0267
 4191SOL    HW217421   2.276   6.437   7.073 -1.0442 -0.2258 -0.4086
 4192SOL     OW17422   8.165   4.739   8.809 -0.2806 -0.7214  0.0143
 4192SOL    HW117423   8.086   4.692   8.834  0.2403 -1.8859 -0.4766
 4192SOL    HW217424   8.135   4.809   8.752 -1.1515  0.0645  1.4080
 4193SOL     OW17425   9.400   7.642   7.150  0.1642  0.6172  0.1320
 4193SOL    HW117426   9.445   7.725   7.135  0.1614  0.6049  0.0594
 4193SOL    HW217427   9.467   7.575   7.132  0.9721  0.6484  2.8577
 4194SOL     OW17428   1.971   5.714   7.165 -0.4771  0.0115  0.2916
 4194SOL    HW117429   2.023   5.772   7.109 -0.6152  1.3677  1.5279
 4194SOL    HW217430   1.881   5.740   7.149 -0.5906 -0.3712  0.3035
 4195SOL     OW17431   2.246   8.411   8.872  0.2369  0.2760  0.2513
 4195SOL    HW117432   2.172   8.447   8.919  2.0023  1.6906  1.9902
 4195SOL    HW217433   2.232   8.316   8.875 -1.1416  0.4953  1.1151
 4196SOL     OW17434   0.884   4.189   7.492 -0.0055 -0.5478 -0.3742
 4196SOL    HW117435   0.871   4.232   7.577  0.4134 -1.8755  0.3821
 4196SOL    HW217436   0.978   4.176   7.486  0.1341  0.9901 -1.7937
 4197SOL     OW17437   1.852   5.878   9.111 -0.1322  0.2554  0.4641
 4197SOL    HW117438   1.764   5.911   9.130 -0.1186  0.1044  0.7941
 4197SOL    HW217439   1.908   5.919   9.178 -0.1500 -0.6027  1.0156
 4198SOL     OW17440   0.725   6.358   6.389  0.4565 -0.4576 -0.4562
 4198SOL    HW117441   0.663   6.293   6.357  0.3831  0.5084 -2.3471
 4198SOL    HW217442   0.677   6.406   6.457 -0.1250 -1.1242 -0.3970
 4199SOL     OW17443   8.541   6.557   9.746 -0.4905  0.8190 -0.1731
 4199SOL    HW117444   8.455   6.556   9.787 -1.0432  1.6198 -1.2674
 4199SOL    HW217445   8.528   6.609   9.666  0.3218 -1.4918 -1.8621
 4200SOL     OW17446   1.839   7.721   6.039  0.9048 -0.2613 -0.4499
 4200SOL    HW117447   1.814   7.650   6.098 -0.3628  0.0820 -0.5660
 4200SOL    HW217448   1.782   7.795   6.064  1.3530  0.3273 -1.1459
 4201SOL     OW17449   0.616   6.891   7.044 -0.1265  0.1582  0.4811
 4201SOL    HW117450   0.709   6.888   7.065 -0.3346  0.1113  1.4045
 4201SOL    HW217451   0.593   6.800   7.024 -0.1658  0.0293  1.1027
 4202SOL     OW17452   3.543   6.388   8.443 -0.2710 -0.0259  0.4656
 4202SOL    HW117453   3.466   6.445   8.437  0.5111  1.0073 -0.0607
 4202SOL    HW217454   3.546   6.343   8.359  1.2835  2.0529 -0.6367
 4203SOL     OW17455   9.412   7.365   8.985 -1.0420 -0.0691  0.1768
 4203SOL    HW117456   9.448   7.436   8.932  0.5984 -1.0594 -0.0838
 4203SOL    HW217457   9.317   7.375   8.977 -0.8349  1.4879 -0.6510
 4204SOL     OW17458   8.958   7.583   6.959  0.3407 -0.0531  0.3571
 4204SOL    HW117459   8.959   7.496   6.920 -0.0873  0.4667 -0.8467
 4204SOL    HW217460   9.047   7.616   6.948  0.3587 -0.1133  0.3194
 4205SOL     OW17461   0.555   5.820   9.057 -0.5201  0.4081  0.0711
 4205SOL    HW117462   0.564   5.827   9.152 -1.8271 -1.8036  0.4020
 4205SOL    HW217463   0.472   5.773   9.044  0.3397 -0.5861 -2.1237
 4206SOL     OW17464   0.870   5.503   9.140  0.2485  0.5453  0.3826
 4206SOL    HW117465   0.898   5.546   9.059  0.6077 -1.0196 -0.3381
 4206SOL    HW217466   0.779   5.477   9.123  0.7205 -0.8955  0.0089
 4207SOL     OW17467   0.516   5.153   7.287  0.0493  0.2026  0.1265
 4207SOL    HW117468   0.545   5.093   7.355  0.6954  2.5862  2.0248
 4207SOL    HW217469   0.544   5.112   7.205 -0.2523 -2.4412  1.2967
 4208SOL     OW17470   1.262   6.599   9.755  0.1811  0.4030 -0.1683
 4208SOL    HW117471   1.311   6.682   9.758  0.9944 -0.1150  1.3052
 4208SOL    HW217472   1.321   6.538   9.711  0.2510  0.1857  0.2208
 4209SOL     OW17473   0.744   7.279   7.719 -0.3539  0.1765 -0.2271
 4209SOL    HW117474   0.662   7.319   7.748  0.3079  1.8807 -0.6224
 4209SOL    HW217475   0.812   7.325   7.769  0.3125 -1.7507  0.6651
 4210SOL     OW17476   1.679   7.552   9.545 -0.7622 -0.0550 -0.3060
 4210SOL    HW117477   1.597   7.504   9.559 -1.7624  1.8553  0.5792
 4210SOL    HW217478   1.700   7.590   9.630  0.3468  0.5311 -0.8286
 4211SOL     OW17479   1.025   6.067   9.700  0.8223  0.0409 -0.7506
 4211SOL    HW117480   0.961   5.997   9.687  1.0225 -0.2459 -0.1820
 4211SOL    HW217481   1.023   6.117   9.618 -0.5217  0.3471 -0.5481
 4212SOL     OW17482   0.646   6.787   8.917  0.2324 -0.1281 -0.0999
 4212SOL    HW117483   0.621   6.819   8.830  0.4682 -2.2022 -0.9620
 4212SOL    HW217484   0.665   6.694   8.904  3.4280  0.2098  1.5028
 4213SOL     OW17485   1.261   5.503   7.753 -0.4312 -0.0113  0.3589
 4213SOL    HW117486   1.336   5.528   7.700 -1.8799  1.0376 -1.2638
 4213SOL    HW217487   1.263   5.408   7.755  1.3712  0.0365  0.9775
 4214SOL     OW17488   0.640   5.782   8.784 -0.2206  0.1814  0.1493
 4214SOL    HW117489   0.575   5.715   8.761  0.2393 -0.0175 -0.5868
 4214SOL    HW217490   0.644   5.779   8.880 -0.7205 -0.3571  0.1569
 4215SOL     OW17491   1.624   7.232   8.595 -0.0981 -0.5045 -0.2469
 4215SOL    HW117492   1.546   7.196   8.637 -2.6947  1.1242 -3.4676
 4215SOL    HW217493   1.629   7.322   8.628 -0.6245 -0.0541 -1.3796
 4216SOL     OW17494   0.901   5.790   7.501 -0.1316  0.3932  0.3348
 4216SOL    HW117495   0.940   5.856   7.558  2.2266  0.5672 -1.4102
 4216SOL    HW217496   0.911   5.708   7.550  1.9084  0.5306  0.2168
 4217SOL     OW17497   0.283   5.735   8.210 -0.0900 -0.4497  1.1289
 4217SOL    HW117498   0.344   5.763   8.142 -0.5183  0.4062  1.0982
 4217SOL    HW217499   0.234   5.663   8.169 -1.2270  0.8931  0.0595
 4218SOL     OW17500   2.710   7.267   7.581 -0.0696  0.2773  0.1082
 4218SOL    HW117501   2.705   7.309   7.667 -1.4100 -0.2987  0.3233
 4218SOL    HW217502   2.637   7.205   7.581  0.1628  0.0033 -1.3001
 4219SOL     OW17503   0.600   6.420   8.287  0.3687 -0.1770  0.2513
 4219SOL    HW117504   0.675   6.361   8.285 -0.1549 -0.8386 -0.5700
 4219SOL    HW217505   0.568   6.420   8.196  0.4192  1.4463  0.2216
 4220SOL     OW17506   1.947   9.115   9.161  0.0677 -0.0595 -0.2523
 4220SOL    HW117507   1.928   9.036   9.110  0.4549  0.6386 -1.4890
 4220SOL    HW217508   1.954   9.083   9.251  0.2050 -1.4480 -0.7313
 4221SOL     OW17509   1.233   5.236   7.757 -0.4125  0.7858  0.2578
 4221SOL    HW117510   1.204   5.205   7.671  0.8648 -1.7175  0.6806
 4221SOL    HW217511   1.207   5.167   7.817  0.4837  1.6132  1.6177
 4222SOL     OW17512   0.787   5.313   8.903 -0.2530 -0.0582 -0.0773
 4222SOL    HW117513   0.811   5.405   8.917 -0.4430  0.1576 -1.1445
 4222SOL    HW217514   0.822   5.292   8.817 -1.5100 -0.5380 -0.4842
 4223SOL     OW17515   1.418   5.249   8.873 -0.4180 -0.7138  0.4561
 4223SOL    HW117516   1.495   5.304   8.889 -0.0190 -1.2398  0.3438
 4223SOL    HW217517   1.365   5.260   8.952  0.9804 -2.3720  1.6625
 4224SOL     OW17518   0.878   5.029   7.902  0.4997  0.1086  0.1333
 4224SOL    HW117519   0.789   4.995   7.891  0.4796 -0.6268  2.2992
 4224SOL    HW217520   0.865   5.112   7.949  0.9715 -0.3490  1.0980
 4225SOL     OW17521   1.647   5.774   7.744 -0.0347  0.2043  0.5280
 4225SOL    HW117522   1.570   5.782   7.689 -0.0954 -0.2719  0.5442
 4225SOL    HW217523   1.680   5.864   7.753 -0.6791  0.4278  0.6586
 4226SOL     OW17524   2.325   6.913   6.716 -0.2439  0.3922  0.4653
 4226SOL    HW117525   2.334   6.862   6.797 -0.3635 -0.4233 -0.0331
 4226SOL    HW217526   2.313   6.848   6.648  0.9247  1.0202 -0.3685
 4227SOL     OW17527   3.198   4.525   8.126  0.5439  0.5198 -0.1270
 4227SOL    HW117528   3.146   4.471   8.066 -0.0952 -1.1434  1.8286
 4227SOL    HW217529   3.288   4.497   8.111  0.2849 -0.6632  0.3757
 4228SOL     OW17530   1.925   5.020   6.913  0.1052  0.4600 -0.3178
 4228SOL    HW117531   1.996   5.048   6.970 -0.0988  1.5245 -0.5856
 4228SOL    HW217532   1.963   5.020   6.825 -0.6794  2.6423 -0.6752
 4229SOL     OW17533   0.803   7.704   7.697 -0.5817  0.5319 -0.1113
 4229SOL    HW117534   0.810   7.618   7.737  1.8731  0.6827 -0.1184
 4229SOL    HW217535   0.793   7.764   7.771 -1.3613  0.3284 -0.0500
 4230SOL     OW17536   2.096   6.745   8.501  0.5935  0.1919 -0.2235
 4230SOL    HW117537   2.065   6.762   8.412 -0.3073 -0.9709 -0.1500
 4230SOL    HW217538   2.018   6.716   8.548  1.5867 -1.8750  0.2253
 4231SOL     OW17539   9.431   5.920   7.565  0.0205  0.1640  0.4245
 4231SOL    HW117540   9.447   5.860   7.491 -0.0680 -0.6964  1.0927
 4231SOL    HW217541   9.413   5.862   7.639 -2.1964  1.0494  0.6139
 4232SOL     OW17542   0.994   6.023   6.376 -0.0088  0.9462 -0.4596
 4232SOL    HW117543   1.021   5.932   6.369  0.8974  1.1479  0.3541
 4232SOL    HW217544   1.022   6.050   6.463 -3.5078  0.9504  0.7440
 4233SOL     OW17545   3.087   8.515   9.511 -0.1583  0.5367  0.4299
 4233SOL    HW117546   3.167   8.507   9.563 -0.4938 -1.3345  0.6646
 4233SOL    HW217547   3.115   8.561   9.432  1.1414 -0.0611  0.5327
 4234SOL     OW17548   9.641   6.368   9.835 -0.2113 -0.2519  0.0193
 4234SOL    HW117549   9.563   6.422   9.841  0.7965  1.0629  1.9048
 4234SOL    HW217550   9.626   6.297   9.896 -0.7096 -1.0595 -1.0200
 4235SOL     OW17551   0.777   6.931   9.101 -0.0820  0.5548 -0.5907
 4235SOL    HW117552   0.696   6.966   9.140  0.2649 -1.1274  1.7758
 4235SOL    HW217553   0.748   6.877   9.028 -0.9365  1.7015 -1.1128
 4236SOL     OW17554   1.147   7.929   9.736  0.5917  0.4202  0.5676
 4236SOL    HW117555   1.154   7.940   9.831 -1.3381 -0.3163  0.8081
 4236SOL    HW217556   1.230   7.962   9.702  1.3093  0.6619  2.5129
 4237SOL     OW17557   2.029   6.271   5.596 -0.0237  0.4209 -0.3326
 4237SOL    HW117558   2.079   6.336   5.548 -0.0437  1.6274  1.2154
 4237SOL    HW217559   1.939   6.281   5.564  0.2110  0.2439 -1.0427
 4238SOL     OW17560   1.820   4.843   0.587  1.0769  0.1939 -0.0533
 4238SOL    HW117561   1.806   4.757   0.627  1.1534  0.4396  0.4991
 4238SOL    HW217562   1.870   4.893   0.652  0.9394  0.6948 -0.3264
 4239SOL     OW17563   1.445   6.197   9.602 -0.6143  0.7681  0.0366
 4239SOL    HW117564   1.359   6.157   9.609 -0.8938  1.1161 -1.4314
 4239SOL    HW217565   1.437   6.263   9.533  1.5098 -1.0756 -2.0757
 4240SOL     OW17566   1.447   6.811   6.916 -0.1734  0.0385  0.2893
 4240SOL    HW117567   1.537   6.810   6.948  0.0828  0.3096 -0.4204
 4240SOL    HW217568   1.417   6.901   6.932 -0.2362  0.0133  0.3085
 4241SOL     OW17569   0.915   5.813   8.471 -0.0523  1.1289 -0.0773
 4241SOL    HW117570   0.920   5.871   8.547  2.4759 -0.6615  1.1958
 4241SOL    HW217571   0.999   5.822   8.428 -0.4715  0.1005 -1.1510
 4242SOL     OW17572   1.548   7.655   8.912 -0.2668 -0.9178 -0.1319
 4242SOL    HW117573   1.482   7.605   8.863 -0.2231 -1.3236  0.2242
 4242SOL    HW217574   1.511   7.743   8.918 -0.4427 -0.9569 -0.5731
 4243SOL     OW17575   9.901   5.777   7.617  0.3765 -0.5320 -0.6744
 4243SOL    HW117576   9.870   5.859   7.578  0.1594 -1.2388 -2.0121
 4243SOL    HW217577   9.960   5.740   7.551  0.0238 -1.7336 -0.3264
 4244SOL     OW17578   0.965   5.227   9.174  0.0981 -0.3103  0.4960
 4244SOL    HW117579   0.897   5.185   9.226 -0.3842  0.3980  0.4413
 4244SOL    HW217580   0.938   5.319   9.168  0.8057 -0.1238  0.0688
 4245SOL     OW17581   1.207   5.815   8.401 -0.0477  0.5288  0.1973
 4245SOL    HW117582   1.289   5.835   8.355 -0.1115 -0.0696 -0.1849
 4245SOL    HW217583   1.188   5.724   8.377 -1.3830  0.9940 -0.5529
 4246SOL     OW17584   2.029   4.318   0.844 -0.3491 -0.6944  0.2665
 4246SOL    HW117585   2.002   4.233   0.811  0.5537 -0.1528 -1.9469
 4246SOL    HW217586   1.950   4.371   0.842 -0.6370 -1.1147  0.4513
 4247SOL     OW17587   1.413   8.197   9.266 -0.3642 -0.5071 -0.1071
 4247SOL    HW117588   1.470   8.273   9.272 -1.9946  0.7407 -0.1938
 4247SOL    HW217589   1.447   8.148   9.191  0.9392 -0.0896  0.1960
 4248SOL     OW17590   0.359   7.088   0.307 -0.3535  0.7543  0.1069
 4248SOL    HW117591   0.299   7.138   0.362 -1.6064  1.2315 -1.6349
 4248SOL    HW217592   0.377   7.145   0.233  1.1042  0.0326 -0.1145
 4249SOL     OW17593   2.337   8.358   9.401 -0.2495  0.5419  0.0271
 4249SOL    HW117594   2.313   8.266   9.403 -0.8783  0.6861 -0.3424
 4249SOL    HW217595   2.395   8.371   9.475  0.4722 -0.3235 -0.3875
 4250SOL     OW17596   8.974   5.675   8.711 -0.3563  0.6750 -0.5561
 4250SOL    HW117597   8.991   5.655   8.803  1.6700  1.1739 -0.7976
 4250SOL    HW217598   9.023   5.608   8.663 -2.7173 -0.5930 -1.2856
 4251SOL     OW17599   9.364   6.183   8.974  0.0139  0.2671 -0.3286
 4251SOL    HW117600   9.405   6.254   8.924  1.5659  0.5393  1.3016
 4251SOL    HW217601   9.323   6.226   9.048 -1.1117 -0.2948 -0.6098
 4252SOL     OW17602   1.030   7.014   8.969  0.2362 -0.0585 -0.2191
 4252SOL    HW117603   1.041   7.063   9.050  1.3086 -2.5543  1.1939
 4252SOL    HW217604   0.948   6.966   8.980  1.5242 -2.1826  0.3906
 4253SOL     OW17605   0.639   3.760   6.290  0.0878  0.2894 -0.1088
 4253SOL    HW117606   0.610   3.793   6.375  1.1358 -0.8711  0.7273
 4253SOL    HW217607   0.588   3.680   6.277  1.1316 -0.4440  0.2330
 4254SOL     OW17608   1.048   6.598   8.046 -0.2839  0.9303 -0.3620
 4254SOL    HW117609   1.037   6.533   7.977  0.2836 -0.5371  0.9033
 4254SOL    HW217610   1.101   6.668   8.006 -0.3524  0.3233 -1.5298
 4255SOL     OW17611   9.811   5.040   8.369 -0.2063 -0.2585  0.1897
 4255SOL    HW117612   9.717   5.038   8.387  0.0065  2.2878  1.9195
 4255SOL    HW217613   9.818   5.040   8.274 -2.0455  1.0379  0.0240
 4256SOL     OW17614   1.518   4.966   8.147 -0.2117 -0.2729  0.3561
 4256SOL    HW117615   1.432   4.939   8.180 -1.9893  0.6974 -3.3034
 4256SOL    HW217616   1.526   5.057   8.176 -0.8603 -0.0676 -0.0808
 4257SOL     OW17617   2.348   7.946   0.715  0.5137  0.7104  0.0078
 4257SOL    HW117618   2.287   8.020   0.711 -1.4388 -0.9230 -0.8710
 4257SOL    HW217619   2.327   7.902   0.797  0.3816  0.0396 -0.3837
 4258SOL     OW17620   9.394   4.519   7.440 -0.0609  0.3970 -0.4507
 4258SOL    HW117621   9.488   4.502   7.429  0.0604  1.1366 -0.5920
 4258SOL    HW217622   9.367   4.554   7.355 -1.2158 -3.0876 -1.5811
 4259SOL     OW17623   1.649   4.276   7.434  0.1833  0.0526 -0.4790
 4259SOL    HW117624   1.617   4.191   7.463  0.9852  0.2206  0.9294
 4259SOL    HW217625   1.631   4.277   7.340  1.2716 -2.1844 -0.7491
 4260SOL     OW17626   2.654   5.687   8.536  0.3779 -0.2923  0.0046
 4260SOL    HW117627   2.608   5.730   8.609  2.8038  2.9030 -0.2527
 4260SOL    HW217628   2.599   5.704   8.460 -1.6925 -2.8339  0.8646
 4261SOL     OW17629   1.047   8.244   9.850 -0.2694  0.4940 -0.2817
 4261SOL    HW117630   1.073   8.319   9.905 -2.1865 -1.3484  3.3593
 4261SOL    HW217631   1.105   8.173   9.878 -0.1905 -0.0528 -1.8255
 4262SOL     OW17632   8.742   7.006   8.430  0.0309  0.3790 -0.5263
 4262SOL    HW117633   8.680   6.933   8.431 -1.6295  1.7307 -2.0628
 4262SOL    HW217634   8.745   7.036   8.521 -2.4814  1.0264 -0.6308
 4263SOL     OW17635   0.047   6.282   8.661  0.2357  1.1952 -0.3671
 4263SOL    HW117636   0.029   6.371   8.690 -0.0161  1.1351 -0.3371
 4263SOL    HW217637  -0.019   6.265   8.594  0.4625  1.1316 -0.5740
 4264SOL     OW17638   1.186   5.861   8.724 -0.1682 -0.4833  0.6147
 4264SOL    HW117639   1.182   5.890   8.632 -0.8716  0.3959  0.9159
 4264SOL    HW217640   1.097   5.870   8.756 -0.0173 -1.2466  1.2555
 4265SOL     OW17641   8.812   7.361   8.913  0.7564  0.6447  0.4412
 4265SOL    HW117642   8.732   7.328   8.954  0.3892  0.1774 -0.6259
 4265SOL    HW217643   8.835   7.439   8.963  1.0767 -0.6588  2.3731
 4266SOL     OW17644   1.262   5.928   9.376 -0.1834  0.0337 -0.5740
 4266SOL    HW117645   1.239   5.904   9.466  1.3069 -2.0712 -0.7415
 4266SOL    HW217646   1.232   5.855   9.323  1.3111  0.0695 -1.4989
 4267SOL     OW17647   1.055   5.601   9.830 -0.2114  0.1844  0.2572
 4267SOL    HW117648   1.057   5.561   9.917 -3.1049 -0.0672  0.2723
 4267SOL    HW217649   1.091   5.689   9.843  1.5317 -0.6467  1.2228
 4268SOL     OW17650   0.894   3.981   8.629  0.0283 -0.3192  0.6531
 4268SOL    HW117651   0.844   4.020   8.701  1.9269 -0.7803  2.2857
 4268SOL    HW217652   0.926   4.056   8.579  0.0252  0.0782  1.2372
 4269SOL     OW17653   9.503   6.351   8.777 -0.5714  0.0088  0.5418
 4269SOL    HW117654   9.456   6.402   8.843 -0.1016  0.5194  0.4854
 4269SOL    HW217655   9.560   6.415   8.733 -0.4908 -0.4286  0.0030
 4270SOL     OW17656   9.928   8.108   7.884  0.0608 -0.0469  0.6877
 4270SOL    HW117657  10.010   8.096   7.836  0.5860 -0.7202  1.7600
 4270SOL    HW217658   9.913   8.025   7.928  0.1543  0.9260  2.6054
 4271SOL     OW17659   7.367   7.664   9.149 -0.3791 -0.6502  0.2227
 4271SOL    HW117660   7.435   7.670   9.082  1.7226  0.3636  2.3609
 4271SOL    HW217661   7.325   7.750   9.148  1.1219  0.1428  1.6279
 4272SOL     OW17662   1.110   6.864   9.458  0.1689 -0.4521  0.0352
 4272SOL    HW117663   1.194   6.899   9.488 -1.1139  1.4977  1.4484
 4272SOL    HW217664   1.076   6.816   9.533 -1.8183  2.1775  0.8775
 4273SOL     OW17665   0.071   5.692   9.002 -0.1749  0.5541 -0.3075
 4273SOL    HW117666   0.028   5.670   8.919 -1.7829 -0.5748  0.7811
 4273SOL    HW217667  -0.001   5.700   9.064  1.0559  0.8190  1.0960
 4274SOL     OW17668   1.195   5.862   9.648  0.3141  0.4108 -0.6764
 4274SOL    HW117669   1.110   5.897   9.674 -0.0624 -1.4433  0.6745
 4274SOL    HW217670   1.258   5.906   9.706 -0.0762 -0.5563  0.5004
 4275SOL     OW17671   0.064   7.022   8.430 -0.4884 -0.0023 -0.1490
 4275SOL    HW117672   0.006   6.956   8.394 -1.5305 -0.1326  1.6922
 4275SOL    HW217673   0.048   7.100   8.377 -1.1308 -0.5125 -0.7050
 4276SOL     OW17674   9.488   7.731   6.709 -0.0455  0.2463  0.0997
 4276SOL    HW117675   9.518   7.784   6.634  0.2181  0.0787  0.0854
 4276SOL    HW217676   9.564   7.729   6.767  0.0771 -0.4550 -0.0835
 4277SOL     OW17677   3.177   5.514   0.185 -0.1751 -0.0020 -0.0813
 4277SOL    HW117678   3.252   5.566   0.214 -0.8835  1.6103 -1.0404
 4277SOL    HW217679   3.122   5.505   0.262  1.1427 -1.4714  0.7096
 4278SOL     OW17680   0.577   4.627   7.460  0.8363 -0.0931  0.2695
 4278SOL    HW117681   0.536   4.605   7.376  1.0647  0.8037 -0.0888
 4278SOL    HW217682   0.654   4.570   7.465  0.9374 -0.0085 -0.2340
 4279SOL     OW17683   0.539   6.465   8.904  0.2746 -0.2134  0.2850
 4279SOL    HW117684   0.504   6.437   8.989 -0.2845 -1.3446 -0.3063
 4279SOL    HW217685   0.470   6.521   8.868  1.2141  1.6376  1.2817
 4280SOL     OW17686   1.113   6.739   6.420  0.1197 -0.3998 -0.9684
 4280SOL    HW117687   1.054   6.678   6.375 -1.1059 -0.5577  0.8102
 4280SOL    HW217688   1.190   6.687   6.441  0.2729 -0.5879 -1.9418
 4281SOL     OW17689   0.218   6.855   8.866 -0.4047 -0.6596  0.2194
 4281SOL    HW117690   0.264   6.908   8.930 -1.0668  0.7556 -0.4509
 4281SOL    HW217691   0.125   6.871   8.884 -0.5956 -0.4647 -0.8912
 4282SOL     OW17692   1.920   6.128   0.592 -0.1087  0.5160 -0.6336
 4282SOL    HW117693   1.892   6.119   0.501  0.4222  0.1966 -0.7714
 4282SOL    HW217694   1.930   6.037   0.623 -1.0048  0.6208 -0.0318
 4283SOL     OW17695   1.684   8.476   9.727 -0.7007 -0.2345  0.2165
 4283SOL    HW117696   1.743   8.486   9.652 -0.1638 -1.8787  0.4070
 4283SOL    HW217697   1.697   8.557   9.778 -0.7500  0.6986 -1.2241
 4284SOL     OW17698   1.147   7.441   6.878  0.0984 -0.2449  0.5069
 4284SOL    HW117699   1.136   7.523   6.831 -1.6735  0.4927  2.1321
 4284SOL    HW217700   1.241   7.424   6.875  0.2084  0.5878 -1.8922
 4285SOL     OW17701   1.332   5.596   8.021 -0.1150  0.4843 -0.2664
 4285SOL    HW117702   1.281   5.598   7.940  0.0544  1.1958 -0.3614
 4285SOL    HW217703   1.399   5.664   8.009 -0.5849  1.1630  0.7835
 4286SOL     OW17704   0.403   7.706   8.776  0.2124 -0.0689 -0.2705
 4286SOL    HW117705   0.400   7.765   8.850  0.7399  2.2977 -2.0876
 4286SOL    HW217706   0.376   7.759   8.701 -0.7250 -2.4871 -1.7337
 4287SOL     OW17707   2.578   5.674   6.540 -0.0353 -0.2390  0.2369
 4287SOL    HW117708   2.634   5.740   6.581 -0.7336  0.3469  0.2549
 4287SOL    HW217709   2.542   5.718   6.463  0.3804 -0.9666 -0.3807
 4288SOL     OW17710   0.858   7.667   8.898 -0.3772 -0.2392 -0.3209
 4288SOL    HW117711   0.947   7.661   8.864 -0.6074 -1.7648 -0.7109
 4288SOL    HW217712   0.852   7.595   8.961 -0.8178  0.8816  0.9304
 4289SOL     OW17713   9.972   7.404   8.745  0.4916 -0.5165 -0.4643
 4289SOL    HW117714   9.925   7.346   8.685 -0.8774  0.9479 -0.8665
 4289SOL    HW217715   9.943   7.492   8.720 -1.1336  0.0862  3.1692
 4290SOL     OW17716   1.509   8.300   8.266  0.1949  0.3351 -0.4990
 4290SOL    HW117717   1.527   8.211   8.295 -1.8490 -0.0437 -0.2730
 4290SOL    HW217718   1.577   8.353   8.307  1.7628 -1.1893 -1.0933
 4291SOL     OW17719   0.011   6.992   7.618  0.2190 -0.2298  0.1873
 4291SOL    HW117720   0.018   6.941   7.699 -0.8735 -1.6778 -0.6002
 4291SOL    HW217721   0.094   7.040   7.612  0.3570 -0.2176  2.0895
 4292SOL     OW17722   1.185   7.421   9.503  0.4359  0.1327 -0.4405
 4292SOL    HW117723   1.159   7.414   9.411  0.2266 -3.9348 -0.1523
 4292SOL    HW217724   1.102   7.426   9.551  0.4679 -1.1605 -0.2534
 4293SOL     OW17725   2.346   5.979   8.617  0.0128 -0.5520  0.1114
 4293SOL    HW117726   2.405   5.959   8.545 -2.6507  0.2505 -2.4318
 4293SOL    HW217727   2.281   5.908   8.616 -2.2917  1.4654 -0.9061
 4294SOL     OW17728   9.960   6.116   7.818 -0.2891  0.2978 -0.0863
 4294SOL    HW117729   9.931   6.140   7.730 -1.2376 -2.6974 -0.6582
 4294SOL    HW217730   9.880   6.102   7.868  0.2166  3.8522  1.8863
 4295SOL     OW17731   0.980   5.471   8.020 -0.1988 -0.6256  0.5750
 4295SOL    HW117732   0.921   5.444   8.090  0.8511 -2.5831  0.7566
 4295SOL    HW217733   1.052   5.407   8.024  1.4089  1.0783 -0.2918
 4296SOL     OW17734   1.278   5.311   8.639 -0.1152  0.0307  0.2209
 4296SOL    HW117735   1.222   5.246   8.597  0.0021  0.8550 -1.2432
 4296SOL    HW217736   1.327   5.262   8.705  0.0458 -1.3864 -0.9449
 4297SOL     OW17737   1.308   6.352   7.648 -0.3346  0.1236 -0.1816
 4297SOL    HW117738   1.289   6.350   7.742 -2.0024  0.8458 -0.4970
 4297SOL    HW217739   1.400   6.326   7.642 -0.4011 -0.5722  1.5969
 4298SOL     OW17740   1.840   6.212   6.926  0.1563 -0.1305  0.1018
 4298SOL    HW117741   1.833   6.193   7.019  0.4107 -1.0420 -0.0687
 4298SOL    HW217742   1.833   6.127   6.883 -1.1305  0.4039 -0.7695
 4299SOL     OW17743   1.160   9.253   6.760 -0.6781 -0.0028 -0.8354
 4299SOL    HW117744   1.238   9.199   6.772 -1.4324 -0.6307  1.5550
 4299SOL    HW217745   1.191   9.333   6.718  1.7828  1.0889  2.8414
 4300SOL     OW17746   0.961   5.505   6.826  0.5603 -0.2162  0.5511
 4300SOL    HW117747   0.925   5.580   6.873  0.4819  0.2216 -0.2067
 4300SOL    HW217748   1.053   5.501   6.854  0.4030 -0.2229  1.0709
 4301SOL     OW17749   9.100   6.309   8.551  0.0332 -0.8012  0.1751
 4301SOL    HW117750   9.068   6.226   8.515 -1.7508  0.9683 -2.5616
 4301SOL    HW217751   9.195   6.296   8.559  0.3301 -1.9271 -3.7898
 4302SOL     OW17752   0.311   6.032   9.339 -0.8744 -0.1099 -0.8134
 4302SOL    HW117753   0.260   5.956   9.366 -2.1078  1.0076  0.1277
 4302SOL    HW217754   0.286   6.048   9.248  0.2787 -1.5186 -1.3872
 4303SOL     OW17755   0.517   7.225   7.547 -0.1466  0.0754  0.2642
 4303SOL    HW117756   0.474   7.216   7.633 -0.4841  0.7939  0.1685
 4303SOL    HW217757   0.445   7.240   7.486  0.1198 -0.1810 -0.1151
 4304SOL     OW17758   9.454   7.079   0.111  0.2849 -0.1056  0.1493
 4304SOL    HW117759   9.392   7.007   0.103 -0.4076  0.6159 -1.2296
 4304SOL    HW217760   9.465   7.091   0.205 -1.5198 -0.3695  0.4107
 4305SOL     OW17761   1.839   4.414   6.617  0.0895  0.6507 -0.7888
 4305SOL    HW117762   1.848   4.325   6.654 -1.9436  1.0275  0.6984
 4305SOL    HW217763   1.903   4.417   6.546  0.0312 -2.0892 -1.0104
 4306SOL     OW17764   9.957   5.724   7.210 -0.1420 -0.0462  0.2835
 4306SOL    HW117765   9.881   5.694   7.160 -1.4136 -0.4474  2.3698
 4306SOL    HW217766   9.968   5.815   7.186 -2.2208  0.4310  1.0189
 4307SOL     OW17767   0.166   6.525   9.201  0.4610 -0.3331 -0.1174
 4307SOL    HW117768   0.203   6.580   9.270 -0.3948 -0.2614  0.2953
 4307SOL    HW217769   0.117   6.587   9.146  0.5022 -0.5044 -0.3469
 4308SOL     OW17770   0.763   6.150   0.008 -0.3053  0.1252 -0.2031
 4308SOL    HW117771   0.700   6.150  -0.064 -0.1555 -1.4905 -0.3394
 4308SOL    HW217772   0.740   6.074   0.060  0.3643  0.5955  0.7930
 4309SOL     OW17773   1.311   7.082   7.939  0.1212 -0.0682  0.5915
 4309SOL    HW117774   1.283   7.106   7.851 -0.3968 -2.5445  0.0262
 4309SOL    HW217775   1.396   7.125   7.950  0.1308  0.3723 -1.0855
 4310SOL     OW17776   1.083   8.787   9.860 -0.1002 -0.2829 -0.1821
 4310SOL    HW117777   1.098   8.882   9.857 -0.7617 -0.1692  0.1326
 4310SOL    HW217778   1.085   8.760   9.768  0.5253 -0.0356 -0.2466
 4311SOL     OW17779   1.356   7.696   7.899 -0.3809  0.0424 -0.2525
 4311SOL    HW117780   1.431   7.688   7.958  0.4945  2.4984 -0.9509
 4311SOL    HW217781   1.301   7.763   7.939 -1.4900 -0.7183 -0.4911
 4312SOL     OW17782   0.749   6.779   9.792 -0.4049 -0.2518  0.0862
 4312SOL    HW117783   0.748   6.686   9.815  0.0858  0.2341  2.1131
 4312SOL    HW217784   0.696   6.821   9.859 -0.0871  1.0318 -0.4567
 4313SOL     OW17785   1.321   7.015   9.537 -0.1281 -0.7894 -0.2134
 4313SOL    HW117786   1.272   7.093   9.564  1.5351 -0.3730  1.6895
 4313SOL    HW217787   1.399   7.050   9.495 -0.2493 -1.4502 -0.9960
 4314SOL     OW17788   1.737   6.451   9.122  0.6311  0.4269 -0.5668
 4314SOL    HW117789   1.791   6.381   9.158  0.3015  0.7850  0.6848
 4314SOL    HW217790   1.692   6.412   9.047 -0.0975 -0.9288  0.5482
 4315SOL     OW17791   0.741   5.192   8.138 -0.3330  0.0556 -0.0311
 4315SOL    HW117792   0.652   5.207   8.105 -0.7362 -0.4241  0.8202
 4315SOL    HW217793   0.774   5.280   8.159 -0.7185  0.2100 -0.0617
 4316SOL     OW17794   1.657   6.055   9.402  0.2073 -0.2037 -0.1194
 4316SOL    HW117795   1.577   6.016   9.436  0.4348 -1.3063 -0.8115
 4316SOL    HW217796   1.728   6.009   9.447  0.4747 -0.2151 -0.5449
 4317SOL     OW17797   1.806   7.025   0.745  0.0628 -0.4846  0.3377
 4317SOL    HW117798   1.791   7.098   0.805 -0.3313  1.3782 -1.9179
 4317SOL    HW217799   1.718   6.995   0.722  0.0545  1.2902 -2.1459
 4318SOL     OW17800   0.316   5.344   5.931  0.1128 -0.4679 -0.0657
 4318SOL    HW117801   0.299   5.253   5.956  0.2360 -1.2870 -2.8464
 4318SOL    HW217802   0.299   5.347   5.837 -0.3034  2.5054  0.0604
 4319SOL     OW17803   1.147   7.887   8.137  0.4789  0.6752 -0.9096
 4319SOL    HW117804   1.235   7.912   8.163 -0.3040  0.5924  1.9888
 4319SOL    HW217805   1.089   7.946   8.185 -1.1821 -2.4693  1.1658
 4320SOL     OW17806   1.254   6.518   7.431 -0.0608 -0.7792  0.4281
 4320SOL    HW117807   1.270   6.465   7.509  0.1851 -1.2349  0.0701
 4320SOL    HW217808   1.163   6.499   7.408 -0.2683 -0.3110  0.8548
 4321SOL     OW17809   0.718   6.251   7.718  0.1866 -0.1501 -0.0144
 4321SOL    HW117810   0.704   6.157   7.723 -0.1589 -0.0596  0.8047
 4321SOL    HW217811   0.730   6.279   7.808  0.7244  0.5277 -0.2907
 4322SOL     OW17812   3.766   6.742   8.282  0.7858 -0.5756  0.0751
 4322SOL    HW117813   3.701   6.797   8.239  0.8148 -1.0011 -0.5090
 4322SOL    HW217814   3.833   6.726   8.216  1.6830  0.1624  0.7828
 4323SOL     OW17815   0.516   5.564   8.635 -0.2640 -0.4285 -0.5181
 4323SOL    HW117816   0.508   5.598   8.546 -1.6140 -0.4123 -0.3958
 4323SOL    HW217817   0.470   5.480   8.633 -0.2534 -0.4539  0.1526
 4324SOL     OW17818   1.329   8.167   9.957 -0.5003  0.2827 -0.6954
 4324SOL    HW117819   1.341   8.116   9.876  0.9594 -3.1056  1.5396
 4324SOL    HW217820   1.376   8.249   9.941  0.5217 -0.6972 -2.9605
 4325SOL     OW17821   9.650   6.067   7.648 -0.1995  0.6553 -0.1374
 4325SOL    HW117822   9.568   6.023   7.627  0.6289 -0.7278 -0.5442
 4325SOL    HW217823   9.650   6.075   7.743  0.1551 -1.2912  0.0464
 4326SOL     OW17824   9.515   6.308   8.026  0.6278 -0.3889  0.2017
 4326SOL    HW117825   9.492   6.335   8.116  0.4806  0.5896 -0.1216
 4326SOL    HW217826   9.444   6.248   8.001  0.1694  0.0632  0.3998
 4327SOL     OW17827   1.385   6.040   8.622 -0.5253  0.7860 -0.1182
 4327SOL    HW117828   1.299   6.077   8.640 -0.1286  2.1872 -1.0276
 4327SOL    HW217829   1.374   5.993   8.539 -0.9389 -0.8731  0.8560
 4328SOL     OW17830   0.563   7.108   9.189 -0.3542 -0.1258  0.1286
 4328SOL    HW117831   0.542   7.197   9.215 -1.1530 -1.1216  3.0279
 4328SOL    HW217832   0.495   7.084   9.126 -1.3804  0.5630  0.9731
 4329SOL     OW17833   0.557   5.879   7.673  0.0440 -0.3557  0.0283
 4329SOL    HW117834   0.638   5.926   7.695  0.6263 -0.1080 -2.5140
 4329SOL    HW217835   0.586   5.788   7.658 -0.5070 -0.7422  1.2138
 4330SOL     OW17836   1.503   6.324   7.416  0.2265  0.4703 -0.6939
 4330SOL    HW117837   1.453   6.248   7.384 -1.0515  0.2941  1.6129
 4330SOL    HW217838   1.543   6.293   7.497  1.9714  1.4340 -1.1829
 4331SOL     OW17839   1.308   5.342   7.285  0.7166 -0.2740  0.3221
 4331SOL    HW117840   1.293   5.417   7.227 -0.9745 -0.5279  0.4051
 4331SOL    HW217841   1.333   5.271   7.225 -3.0825 -1.1130 -0.3991
 4332SOL     OW17842   0.755   7.940   7.480  0.0928 -0.1122 -0.4409
 4332SOL    HW117843   0.685   8.004   7.493  0.1574 -0.3219  0.9676
 4332SOL    HW217844   0.755   7.887   7.560  0.5763 -1.3615 -1.2434
 4333SOL     OW17845   1.763   7.251   0.883 -0.2723 -0.1708  0.4060
 4333SOL    HW117846   1.681   7.257   0.933 -0.3041 -2.2729  0.6582
 4333SOL    HW217847   1.815   7.325   0.915 -2.0718  1.2469  0.1861
 4334SOL     OW17848   1.275   4.490   7.249  0.1983  0.2962 -0.2512
 4334SOL    HW117849   1.321   4.553   7.194  0.9536 -1.5712 -1.8285
 4334SOL    HW217850   1.308   4.505   7.337  1.9907  0.6413 -0.9660
 4335SOL     OW17851   9.319   8.269   7.318  0.2121  0.0753 -0.7253
 4335SOL    HW117852   9.412   8.246   7.305 -0.0325 -1.4746  0.1626
 4335SOL    HW217853   9.282   8.192   7.361 -1.1348  1.3580  0.4051
 4336SOL     OW17854   0.511   7.110   8.417  0.1389  0.3660 -0.5293
 4336SOL    HW117855   0.541   7.194   8.450  1.0566 -0.4159  0.6895
 4336SOL    HW217856   0.467   7.069   8.492 -0.2781 -0.2426 -1.1012
 4337SOL     OW17857   0.919   6.551   0.278 -0.0415  0.3096 -0.0214
 4337SOL    HW117858   0.882   6.467   0.253  0.0684  0.3447 -0.3080
 4337SOL    HW217859   0.874   6.575   0.358  0.1969 -0.2061  0.2676
 4338SOL     OW17860   2.117   7.233   1.221  0.1976 -0.3543  0.2600
 4338SOL    HW117861   2.031   7.220   1.179  0.7943 -0.0605 -1.0800
 4338SOL    HW217862   2.105   7.202   1.310 -1.5991  0.6133  0.3782
 4339SOL     OW17863   0.627   7.501   1.952 -0.4385 -0.4886 -0.5254
 4339SOL    HW117864   0.617   7.539   1.864 -0.3498 -0.9274 -0.7237
 4339SOL    HW217865   0.563   7.430   1.955  0.7719 -1.6103 -0.8684
 4340SOL     OW17866   1.606   7.875   0.180  0.2456  0.4035  0.5808
 4340SOL    HW117867   1.657   7.806   0.222 -0.2895 -1.6384 -1.9856
 4340SOL    HW217868   1.530   7.830   0.144  0.0387  2.2651 -1.4156
 4341SOL     OW17869   0.278   7.542   7.699  0.6083 -0.4583  0.5357
 4341SOL    HW117870   0.235   7.531   7.784  0.2457 -0.2660  0.3760
 4341SOL    HW217871   0.293   7.636   7.692 -0.4324 -0.3358 -0.1344
 4342SOL     OW17872   2.609   5.988   0.664  0.2314  0.8532 -0.7465
 4342SOL    HW117873   2.523   5.947   0.659 -0.4521  2.0591  0.8912
 4342SOL    HW217874   2.661   5.929   0.719 -0.1029  1.0728 -0.1954
 4343SOL     OW17875   1.558   5.844   9.674  0.1024 -0.4148  0.1676
 4343SOL    HW117876   1.505   5.915   9.711  2.5019  1.0257  1.0029
 4343SOL    HW217877   1.495   5.778   9.647 -2.0733  1.0155  1.5820
 4344SOL     OW17878   0.838   7.243   0.640  0.5354 -0.3452 -0.3867
 4344SOL    HW117879   0.757   7.238   0.589  1.0602 -2.3015 -1.0964
 4344SOL    HW217880   0.863   7.336   0.637 -0.9823  0.0520 -1.2485
 4345SOL     OW17881   2.122   4.474   0.524  0.0121 -0.5555  0.2075
 4345SOL    HW117882   2.057   4.409   0.550  0.7812 -1.0537  0.9282
 4345SOL    HW217883   2.188   4.423   0.476 -1.4054  0.3575 -2.8026
 4346SOL     OW17884   1.488   7.210   9.726 -0.7861 -0.6585  0.7011
 4346SOL    HW117885   1.503   7.282   9.665  0.3134 -0.6509  0.9607
 4346SOL    HW217886   1.394   7.210   9.740 -0.7902  0.8383  0.8236
 4347SOL     OW17887   0.090   8.074   9.670 -0.1695  0.1423  0.0511
 4347SOL    HW117888   0.171   8.030   9.645 -0.2621 -0.4870  0.8451
 4347SOL    HW217889   0.089   8.070   9.766 -1.3164 -0.1696  0.0312
 4348SOL     OW17890   1.588   3.895   7.698 -0.4860 -0.6113 -0.3613
 4348SOL    HW117891   1.639   3.970   7.666 -1.2309 -0.5560 -1.4521
 4348SOL    HW217892   1.553   3.854   7.618 -1.2488 -1.2891  0.3097
 4349SOL     OW17893   1.681   8.126   0.133  0.7295 -0.6626  0.2463
 4349SOL    HW117894   1.638   8.174   0.062 -0.0059  1.4470  2.0628
 4349SOL    HW217895   1.632   8.044   0.140 -1.8496  0.8742  0.9783
 4350SOL     OW17896   0.481   7.013   9.458 -0.4702 -0.8911  0.4184
 4350SOL    HW117897   0.499   7.102   9.490 -1.7690 -1.4454  2.8370
 4350SOL    HW217898   0.483   7.020   9.363 -0.2901  1.6781  0.5901
 4351SOL     OW17899   1.641   6.781   1.641  0.0833  0.4128  0.3345
 4351SOL    HW117900   1.564   6.837   1.634 -1.5514 -1.9753 -1.3691
 4351SOL    HW217901   1.678   6.779   1.553 -0.4434 -1.9327  0.1462
 4352SOL     OW17902   1.684   6.146   0.729  0.1810 -0.0969 -0.8495
 4352SOL    HW117903   1.705   6.237   0.748  1.5507 -0.7501  1.0094
 4352SOL    HW217904   1.729   6.127   0.646  2.8155 -0.0080  0.4932
 4353SOL     OW17905   1.021   6.735   9.687 -0.0685  0.1150 -0.3153
 4353SOL    HW117906   1.077   6.674   9.735 -0.1824 -2.0061 -2.8024
 4353SOL    HW217907   0.932   6.703   9.702 -0.1324 -0.3353 -1.5829
 4354SOL     OW17908   0.765   7.173   0.214 -0.2857 -0.2370 -0.2703
 4354SOL    HW117909   0.784   7.105   0.150 -0.8615 -2.1755  1.5713
 4354SOL    HW217910   0.695   7.137   0.269 -0.7600  1.9198  0.6172
 4355SOL     OW17911   0.617   7.311   8.996 -0.1673 -0.1516 -0.2178
 4355SOL    HW117912   0.694   7.366   8.988 -1.3962  1.5325 -0.6594
 4355SOL    HW217913   0.650   7.227   9.029  1.6914  0.8884  0.6029
 4356SOL     OW17914   1.979   6.765   9.794 -0.4176 -0.3914  0.3862
 4356SOL    HW117915   1.941   6.677   9.797 -0.2063 -0.4755  0.5646
 4356SOL    HW217916   1.907   6.822   9.818 -0.8986 -0.4101 -0.9336
 4357SOL     OW17917   1.471   5.636   9.051 -0.1386 -0.0824 -0.1689
 4357SOL    HW117918   1.457   5.643   8.957  2.5628  0.0370 -0.6208
 4357SOL    HW217919   1.393   5.593   9.084 -2.1904  2.0128 -2.1108
 4358SOL     OW17920   0.618   5.207   8.441  0.5302 -0.0517 -0.4532
 4358SOL    HW117921   0.637   5.230   8.350 -0.0523 -2.1722 -1.1380
 4358SOL    HW217922   0.526   5.231   8.453 -0.2044 -2.2692 -1.3013
 4359SOL     OW17923   1.414   8.559   9.480  0.1432  0.2866 -0.0833
 4359SOL    HW117924   1.365   8.623   9.429 -2.5456 -2.5769 -1.2495
 4359SOL    HW217925   1.416   8.595   9.569  0.4241  2.8731 -1.1061
 4360SOL     OW17926   0.883   7.656   7.242  0.3285  0.5547  0.3103
 4360SOL    HW117927   0.873   7.615   7.156  1.0085 -1.3113  1.0946
 4360SOL    HW217928   0.937   7.733   7.226  0.4013  0.2574 -0.9351
 4361SOL     OW17929   0.881   5.829   9.757 -0.4981  0.2168 -0.6749
 4361SOL    HW117930   0.879   5.791   9.844  2.4193  0.0846 -0.6409
 4361SOL    HW217931   0.871   5.754   9.698 -0.1393  0.0408 -0.5086
 4362SOL     OW17932   1.542   5.764   8.010 -0.6367  0.0344  0.0462
 4362SOL    HW117933   1.526   5.858   8.018 -0.0709  0.1808 -0.5231
 4362SOL    HW217934   1.591   5.754   7.929  1.2486 -0.5011  1.2081
 4363SOL     OW17935   0.405   5.426   0.125 -0.0274  0.2091 -0.2570
 4363SOL    HW117936   0.356   5.384   0.196 -0.7666  1.7783  0.1785
 4363SOL    HW217937   0.460   5.356   0.090 -1.9823 -1.3963 -0.2277
 4364SOL     OW17938   1.691   5.642   1.422  0.5935 -0.6460 -0.0409
 4364SOL    HW117939   1.617   5.625   1.364 -0.1003  1.5830  0.1477
 4364SOL    HW217940   1.766   5.601   1.377 -0.7658 -3.2014 -0.0629
 4365SOL     OW17941   8.355   5.974   9.666  0.0417 -0.5811 -0.0010
 4365SOL    HW117942   8.327   6.032   9.595 -1.8029 -1.0110  0.3469
 4365SOL    HW217943   8.380   5.893   9.622 -1.2866 -0.9162 -0.1664
 4366SOL     OW17944   9.801   4.735   9.387 -0.4078  0.0585 -0.1009
 4366SOL    HW117945   9.877   4.776   9.345 -0.6689  0.3840 -0.2534
 4366SOL    HW217946   9.837   4.658   9.431  0.2281  0.9151  0.8983
 4367SOL     OW17947   1.462   6.948   9.987 -0.4586 -0.1414 -0.1242
 4367SOL    HW117948   1.533   7.011  10.001 -1.2925  0.5865  0.9891
 4367SOL    HW217949   1.426   6.934  10.075 -0.0724 -2.4549 -0.3041
 4368SOL     OW17950   0.085   7.294   9.432 -0.2069 -0.3114 -0.3013
 4368SOL    HW117951   0.143   7.326   9.502  0.2006 -0.5489 -0.5297
 4368SOL    HW217952   0.115   7.205   9.415  0.3255  0.0909 -1.4567
 4369SOL     OW17953   1.383   5.518   9.360 -0.5991  0.1038 -0.1234
 4369SOL    HW117954   1.333   5.512   9.279 -1.4903 -2.1860  0.5749
 4369SOL    HW217955   1.475   5.512   9.332 -0.9567 -2.1730 -0.8340
 4370SOL     OW17956   0.704   6.503   9.807  0.3812 -0.1151  0.3235
 4370SOL    HW117957   0.717   6.485   9.714 -1.4005 -0.1565  0.0605
 4370SOL    HW217958   0.781   6.466   9.850  1.4630  0.3461 -1.1830
 4371SOL     OW17959   2.209   6.898   1.263  0.5536 -0.8455 -0.0213
 4371SOL    HW117960   2.117   6.918   1.280  0.9954  1.6536 -0.3738
 4371SOL    HW217961   2.250   6.898   1.349 -0.0369 -3.5670  0.3009
 4372SOL     OW17962   9.134   7.450   8.972  0.2829 -0.0119 -0.1065
 4372SOL    HW117963   9.085   7.458   8.890 -1.1990 -0.1533  0.7321
 4372SOL    HW217964   9.066   7.439   9.039  1.4324  0.7158  1.2094
 4373SOL     OW17965   1.825   6.304   9.524 -0.0554  0.0569  0.0209
 4373SOL    HW117966   1.765   6.234   9.499  0.6702 -1.1724  1.6366
 4373SOL    HW217967   1.891   6.305   9.454 -1.1130  0.4277 -0.9942
 4374SOL     OW17968   9.535   5.355   1.216  0.3273 -0.1546 -0.0424
 4374SOL    HW117969   9.604   5.300   1.253  0.5536 -1.3633 -2.1495
 4374SOL    HW217970   9.470   5.293   1.183 -0.6823  0.9237 -0.0976
 4375SOL     OW17971   0.842   7.541   8.561 -0.0222 -0.5135  0.6318
 4375SOL    HW117972   0.870   7.536   8.652  1.3814  2.5602  0.4582
 4375SOL    HW217973   0.752   7.573   8.565  0.3090  0.3987  0.9440
 4376SOL     OW17974   0.644   6.914   0.008 -0.2554 -0.1737 -0.8684
 4376SOL    HW117975   0.649   7.007  -0.016 -2.5738  0.3189  0.3539
 4376SOL    HW217976   0.733   6.891   0.034  0.7532  1.1896 -2.9799
 4377SOL     OW17977   0.441   7.107   9.823  0.3744 -0.4097 -0.0366
 4377SOL    HW117978   0.354   7.120   9.861 -0.1325  1.8826 -1.8276
 4377SOL    HW217979   0.438   7.020   9.784 -1.5081  0.0439 -0.9840
 4378SOL     OW17980   0.771   7.133   9.905  0.3950 -0.0377 -0.3503
 4378SOL    HW117981   0.845   7.172   9.857  0.7448 -0.0929  0.1465
 4378SOL    HW217982   0.714   7.206   9.924 -0.3382 -0.1769 -1.8981
 4379SOL     OW17983   0.703   6.694   0.720 -0.5189  0.3861 -0.1518
 4379SOL    HW117984   0.644   6.755   0.677 -2.0884 -1.8454 -1.2669
 4379SOL    HW217985   0.656   6.667   0.799 -1.7391 -2.5506 -1.8053
 4380SOL     OW17986   0.902   5.878   8.778 -0.0194 -0.0634  0.2535
 4380SOL    HW117987   0.881   5.953   8.834 -0.8813  0.1602 -0.3604
 4380SOL    HW217988   0.818   5.832   8.767  0.4024 -0.8350  0.2081
 4381SOL     OW17989   1.890   7.298   9.694  0.6402 -0.2890 -0.3235
 4381SOL    HW117990   1.862   7.307   9.603  1.2260 -0.3512 -0.5096
 4381SOL    HW217991   1.860   7.378   9.736  0.9414  0.0303 -0.7188
 4382SOL     OW17992   1.353   6.687   8.722 -0.6448  0.2774  0.4289
 4382SOL    HW117993   1.310   6.739   8.655 -1.6829 -1.5637 -0.3883
 4382SOL    HW217994   1.441   6.670   8.687 -1.9997 -2.7987 -1.7206
 4383SOL     OW17995   0.629   7.624   0.358 -0.0248 -0.6245  0.0727
 4383SOL    HW117996   0.549   7.572   0.371  1.0274 -2.3638 -0.3191
 4383SOL    HW217997   0.667   7.631   0.445 -0.0614 -0.6813  0.0934
 4384SOL     OW17998   9.725   6.720   9.174 -0.1178 -0.2568  0.0428
 4384SOL    HW117999   9.797   6.678   9.222  0.8586  0.4391 -0.7843
 4384SOL    HW218000   9.706   6.660   9.102 -1.3233 -1.1161  1.0597
 4385SOL     OW18001   1.296   5.763   0.335 -0.3657  0.3829  0.0721
 4385SOL    HW118002   1.295   5.816   0.415  0.4952 -0.4245  0.6360
 4385SOL    HW218003   1.327   5.677   0.364 -0.6993 -0.1198 -1.0183
 4386SOL     OW18004   2.095   5.859   1.157 -0.1498 -0.5999  0.4108
 4386SOL    HW118005   2.145   5.801   1.214 -3.5598 -1.8126  2.2925
 4386SOL    HW218006   2.040   5.801   1.105  0.0442  0.7283 -1.3333
 4387SOL     OW18007   1.068   7.056   0.653  0.1383  0.2754  0.4670
 4387SOL    HW118008   0.999   7.120   0.639 -0.2842 -0.0243  1.1202
 4387SOL    HW218009   1.068   7.041   0.748 -0.2607 -1.2162  0.2520
 4388SOL     OW18010   1.975   4.958   0.352 -0.5033  0.4002 -0.0490
 4388SOL    HW118011   1.952   4.906   0.275  1.4370 -2.1219  0.9738
 4388SOL    HW218012   1.912   4.930   0.419 -1.8988  2.2482 -0.5773
 4389SOL     OW18013   2.981   7.788   0.463 -0.4955 -0.4864  0.6700
 4389SOL    HW118014   2.959   7.876   0.432 -0.8077 -1.2073 -1.2476
 4389SOL    HW218015   2.899   7.739   0.457 -0.0610 -1.2174  0.5450
 4390SOL     OW18016   1.455   5.763   8.793  0.2829  0.5400 -0.6340
 4390SOL    HW118017   1.456   5.695   8.726 -0.9114 -0.1596  0.0274
 4390SOL    HW218018   1.372   5.809   8.779 -1.2835 -1.3295  1.9944
 4391SOL     OW18019   2.476   6.361   7.982  0.1718  0.0267 -0.2232
 4391SOL    HW118020   2.494   6.330   7.893  0.5663 -1.2632  0.3016
 4391SOL    HW218021   2.384   6.389   7.980  0.2664  0.2709 -1.1121
 4392SOL     OW18022   0.195   7.179   0.018  0.3842 -0.2739  0.5147
 4392SOL    HW118023   0.143   7.188  -0.062  1.2657  0.4513  0.0187
 4392SOL    HW218024   0.141   7.124   0.075  0.4214 -2.0906 -1.1529
 4393SOL     OW18025   9.665   6.999   8.363 -0.1083  0.7798 -0.2859
 4393SOL    HW118026   9.737   6.942   8.337 -1.0640  0.5019 -2.4374
 4393SOL    HW218027   9.628   6.957   8.441  0.2771 -0.6341 -0.8479
 4394SOL     OW18028   0.173   6.072   8.010 -0.0397 -0.1946 -0.7830
 4394SOL    HW118029   0.133   5.985   8.014  0.7990 -0.5731 -0.6001
 4394SOL    HW218030   0.129   6.115   7.936 -1.0718 -0.4561 -0.3296
 4395SOL     OW18031   0.670   6.299   9.601 -0.0848  0.5438 -0.2816
 4395SOL    HW118032   0.683   6.212   9.638 -0.2987  1.4862  2.1294
 4395SOL    HW218033   0.592   6.333   9.645 -0.4281  1.6847 -1.7175
 4396SOL     OW18034   2.308   8.047   9.345 -0.0225  0.2883  0.1750
 4396SOL    HW118035   2.221   8.008   9.346 -0.1083  0.4896  0.7709
 4396SOL    HW218036   2.335   8.049   9.437  0.5530  0.3503  0.0078
 4397SOL     OW18037   8.478   8.087   9.056 -0.1160 -0.1887  0.0970
 4397SOL    HW118038   8.545   8.019   9.050  1.7278  1.3224  2.7699
 4397SOL    HW218039   8.406   8.046   9.104  0.0048 -0.9646 -0.3740
 4398SOL     OW18040   8.981   7.815   1.256 -0.1973 -0.4812  0.1307
 4398SOL    HW118041   9.023   7.776   1.180 -1.2526 -1.6422  0.1269
 4398SOL    HW218042   9.039   7.793   1.329  0.1145 -0.5357 -0.1300
 4399SOL     OW18043   9.710   5.447   9.093  0.0414 -0.3821 -0.0325
 4399SOL    HW118044   9.764   5.414   9.165  2.7758 -0.5244 -2.1225
 4399SOL    HW218045   9.695   5.539   9.116 -0.2070 -0.7401  1.3405
 4400SOL     OW18046   2.668   6.499   0.083  0.1509  0.3800  0.3411
 4400SOL    HW118047   2.737   6.562   0.103 -2.1219  2.9741  0.3772
 4400SOL    HW218048   2.701   6.449   0.009  2.1568  1.3973  0.5303
 4401SOL     OW18049   2.817   6.564   8.114  0.2981 -0.0218  0.1386
 4401SOL    HW118050   2.730   6.529   8.135  0.6218 -1.5452 -0.9842
 4401SOL    HW218051   2.815   6.654   8.147 -0.9138 -0.7434  2.1613
 4402SOL     OW18052   0.480   5.865   8.074  0.2633  0.1661  0.1618
 4402SOL    HW118053   0.458   5.817   7.994 -0.8590  0.4553  0.2985
 4402SOL    HW218054   0.569   5.835   8.096  0.4273 -0.2005 -0.9731
 4403SOL     OW18055   9.785   7.336   0.671  0.3388  0.3002 -0.1577
 4403SOL    HW118056   9.734   7.256   0.677 -0.1724  0.6362  0.0605
 4403SOL    HW218057   9.773   7.379   0.756  2.0435 -0.2396  0.3543
 4404SOL     OW18058   0.395   8.138   3.034 -0.2603  0.0053  0.0889
 4404SOL    HW118059   0.453   8.072   3.072  0.3305 -0.3938 -1.4903
 4404SOL    HW218060   0.436   8.222   3.055 -0.2166 -0.1907  0.7803
 4405SOL     OW18061   1.252   7.702   0.816  0.6788 -0.2543 -0.0297
 4405SOL    HW118062   1.171   7.652   0.822 -0.3104  1.1883 -1.1744
 4405SOL    HW218063   1.295   7.667   0.737  1.3751 -1.3002  0.8048
 4406SOL     OW18064   9.592   9.001   1.018  0.1194  0.3992  0.2271
 4406SOL    HW118065   9.686   8.987   1.009 -0.1648  0.1531 -3.1864
 4406SOL    HW218066   9.580   9.095   1.005 -0.0942  0.4608  0.8480
 4407SOL     OW18067   1.157   9.202   0.340  0.3858  0.3012  0.6791
 4407SOL    HW118068   1.228   9.140   0.359 -0.5235 -0.9459  0.0803
 4407SOL    HW218069   1.085   9.147   0.309 -0.6267  1.6200  0.6566
 4408SOL     OW18070   1.504   7.811   0.616  0.1340  0.3871 -0.1255
 4408SOL    HW118071   1.504   7.859   0.533  1.8172  0.0024 -0.3701
 4408SOL    HW218072   1.450   7.864   0.674 -2.0073  0.0812 -1.7707
 4409SOL     OW18073   3.125   7.363   0.494  0.1440  0.1021 -0.5329
 4409SOL    HW118074   3.111   7.423   0.421  0.7403  0.6013 -0.2411
 4409SOL    HW218075   3.047   7.307   0.495 -0.3823  0.8289 -0.8434
 4410SOL     OW18076   9.766   8.751   0.833 -0.1800 -0.2434 -0.1478
 4410SOL    HW118077   9.842   8.774   0.885 -1.1105  0.3793  0.9598
 4410SOL    HW218078   9.802   8.720   0.750  1.2394  1.5486 -0.2363
 4411SOL     OW18079   0.505   6.814   1.217 -0.5594 -0.2895  0.0831
 4411SOL    HW118080   0.508   6.856   1.131 -1.0425  1.2357  0.8030
 4411SOL    HW218081   0.417   6.832   1.249  0.5369  1.6416  2.1356
 4412SOL     OW18082   9.755   9.617   2.115  0.2598  0.2237 -0.4873
 4412SOL    HW118083   9.778   9.627   2.207  0.5360  0.7741 -0.6130
 4412SOL    HW218084   9.840   9.610   2.070  0.1282  0.0380 -0.7084
 4413SOL     OW18085   1.769   8.145   2.150 -0.1764  0.4901 -0.0311
 4413SOL    HW118086   1.703   8.154   2.081 -2.4600 -0.2401  1.9801
 4413SOL    HW218087   1.777   8.050   2.162  1.0879  0.5859 -0.1123
 4414SOL     OW18088   0.892   6.471   1.772  0.4394 -0.1784  0.3086
 4414SOL    HW118089   0.835   6.538   1.809  0.3225  0.4401 -0.9939
 4414SOL    HW218090   0.843   6.390   1.781  0.5076 -0.0913  1.7274
 4415SOL     OW18091   0.340   6.668   0.973  0.0170 -0.6005 -0.2749
 4415SOL    HW118092   0.275   6.659   0.903  1.4039 -2.1283 -1.3909
 4415SOL    HW218093   0.400   6.735   0.941 -0.7003  0.4496  0.5378
 4416SOL     OW18094   0.403   7.571   1.160 -0.1122 -0.2546  0.9848
 4416SOL    HW118095   0.499   7.573   1.163 -0.0251 -0.5541 -1.2486
 4416SOL    HW218096   0.376   7.659   1.186  0.8464  0.5123 -0.5481
 4417SOL     OW18097   2.408   8.731   0.438  0.3120  0.1839 -0.0909
 4417SOL    HW118098   2.347   8.707   0.508 -0.1293  0.4422 -0.3812
 4417SOL    HW218099   2.358   8.719   0.357  0.8437 -0.1905 -0.3710
 4418SOL     OW18100   8.956   8.962   0.483 -0.5327 -0.0267  0.4813
 4418SOL    HW118101   8.974   9.025   0.553 -0.4153  1.6984 -1.0573
 4418SOL    HW218102   9.041   8.925   0.460 -0.3362  0.6137  0.1575
 4419SOL     OW18103   1.069   8.600   1.762 -0.0337  0.0021 -0.2411
 4419SOL    HW118104   1.072   8.504   1.759 -1.5716 -0.1959  2.8458
 4419SOL    HW218105   0.983   8.621   1.724 -0.4406  0.0373  0.6867
 4420SOL     OW18106   1.938   8.309   9.957  0.7067 -0.4248 -0.3989
 4420SOL    HW118107   1.878   8.339  10.025 -0.0614 -0.9903 -0.8169
 4420SOL    HW218108   1.972   8.390   9.918  0.4724 -0.1010  0.0654
 4421SOL     OW18109   3.208   6.757   3.804  0.1403 -0.0869  0.5594
 4421SOL    HW118110   3.198   6.850   3.824  0.2307 -0.5410  2.7713
 4421SOL    HW218111   3.129   6.734   3.755 -1.7058  0.3032  3.2683
 4422SOL     OW18112   9.652   7.868   2.307 -1.0744 -0.1005  0.5012
 4422SOL    HW118113   9.676   7.960   2.313 -0.7706 -0.2465  1.8323
 4422SOL    HW218114   9.735   7.821   2.300 -1.2204 -0.2889 -0.0060
 4423SOL     OW18115   2.335   0.347   0.855  0.1412  0.1565  0.5264
 4423SOL    HW118116   2.369   0.262   0.831  1.6717  1.2482 -1.2721
 4423SOL    HW218117   2.294   0.381   0.775 -2.7973  0.0448  1.8968
 4424SOL     OW18118   1.515   1.031   0.779  0.7517  0.7538  0.2311
 4424SOL    HW118119   1.449   0.997   0.839 -0.6594  1.9445 -0.6257
 4424SOL    HW218120   1.583   0.964   0.777  0.9787  0.8013  3.3803
 4425SOL     OW18121   2.158   8.519   9.834  0.1121  0.6030 -0.5003
 4425SOL    HW118122   2.170   8.552   9.922 -0.5229 -0.6801  0.0844
 4425SOL    HW218123   2.129   8.595   9.783 -0.7617  1.0639  0.6713
 4426SOL     OW18124   1.507   0.408   1.058  0.2919 -0.3089 -0.0516
 4426SOL    HW118125   1.539   0.497   1.045  1.0277 -0.3899  1.1457
 4426SOL    HW218126   1.422   0.406   1.013  0.1511  1.0736  0.1441
 4427SOL     OW18127   0.693   6.819   1.628 -0.0178 -0.8056  0.7925
 4427SOL    HW118128   0.701   6.786   1.717 -0.8010  0.1484  1.2225
 4427SOL    HW218129   0.612   6.780   1.595 -1.8591  1.9486  1.8857
 4428SOL     OW18130   8.864   7.279   1.566 -0.1088 -0.5143 -0.1462
 4428SOL    HW118131   8.948   7.310   1.601 -0.3165 -1.2924  1.0395
 4428SOL    HW218132   8.839   7.207   1.623 -1.6424 -0.2216 -0.4263
 4429SOL     OW18133   1.805   0.126   1.236 -0.3408 -0.5456 -0.3609
 4429SOL    HW118134   1.802   0.198   1.299  1.8144  0.2002 -1.0505
 4429SOL    HW218135   1.785   0.167   1.152 -0.7945 -1.0710 -0.5108
 4430SOL     OW18136   0.946   7.875   1.642  0.5865  0.1046  0.0766
 4430SOL    HW118137   0.931   7.785   1.614 -0.0934 -0.0015  0.7669
 4430SOL    HW218138   0.866   7.922   1.615 -0.4036 -0.1557  2.4777
 4431SOL     OW18139   2.400   7.742   2.650  0.4947 -0.4534  0.0195
 4431SOL    HW118140   2.383   7.682   2.722 -0.2050 -2.0616 -1.4739
 4431SOL    HW218141   2.492   7.726   2.626  0.4372 -0.6011 -0.0974
 4432SOL     OW18142   1.172   1.536   0.013 -0.4878  0.6219  0.0538
 4432SOL    HW118143   1.113   1.466  -0.014  0.0657  0.9589 -2.0936
 4432SOL    HW218144   1.118   1.591   0.070 -0.8559 -1.6413  1.9638
 4433SOL     OW18145   0.935   0.288   0.684  0.0665 -0.1337  0.5958
 4433SOL    HW118146   0.911   0.359   0.744  0.0044 -0.6284  1.1524
 4433SOL    HW218147   1.031   0.285   0.687  0.1371  0.7142 -0.3401
 4434SOL     OW18148   1.577   1.022   0.475  0.5469 -0.1473  0.5951
 4434SOL    HW118149   1.505   0.981   0.524 -0.2251  0.8919  0.3423
 4434SOL    HW218150   1.534   1.075   0.408  1.5817 -0.6678 -0.5030
 4435SOL     OW18151   1.945   8.454   0.832 -0.4707 -0.0512 -0.5782
 4435SOL    HW118152   1.950   8.389   0.762  0.9358 -2.0426  1.2850
 4435SOL    HW218153   1.959   8.538   0.789 -0.2256 -1.1745 -2.7357
 4436SOL     OW18154   1.069   8.107   1.912 -0.1466  0.7017 -0.6684
 4436SOL    HW118155   1.112   8.122   1.996  1.3283 -1.1959 -1.0560
 4436SOL    HW218156   0.992   8.054   1.932  0.4730 -0.1640 -0.5618
 4437SOL     OW18157   2.516   7.770   1.867 -0.6453 -0.5361  0.0523
 4437SOL    HW118158   2.513   7.716   1.946  0.3791 -0.2311  0.3106
 4437SOL    HW218159   2.445   7.833   1.878  0.7307  0.7652  1.6663
 4438SOL     OW18160   0.361   9.137   1.649 -0.6403  0.3974  0.0393
 4438SOL    HW118161   0.427   9.170   1.587 -1.3885 -0.6476 -1.3515
 4438SOL    HW218162   0.402   9.061   1.689 -0.0245  1.2758  1.0932
 4439SOL     OW18163   0.533   8.279   0.726  0.1425 -0.4093 -0.6807
 4439SOL    HW118164   0.557   8.232   0.646 -0.1998 -1.6832 -0.0432
 4439SOL    HW218165   0.582   8.236   0.796 -0.4758 -0.0689 -0.0260
 4440SOL     OW18166   0.880   8.188   0.956  0.1139  0.0459  0.6760
 4440SOL    HW118167   0.797   8.140   0.946  0.5377 -0.6542  0.5118
 4440SOL    HW218168   0.856   8.279   0.939 -0.2010 -0.4383 -1.6258
 4441SOL     OW18169   1.186   6.900   1.866  0.1422  0.2220 -0.0662
 4441SOL    HW118170   1.156   6.900   1.775  0.7108 -2.1845 -0.2919
 4441SOL    HW218171   1.114   6.941   1.914  0.2754  2.4816 -1.6921
 4442SOL     OW18172   0.737   7.306   7.999 -0.2177 -0.5088 -0.1906
 4442SOL    HW118173   0.646   7.334   8.011 -0.3482 -0.3195 -1.4868
 4442SOL    HW218174   0.734   7.211   8.008 -0.5376 -0.4980 -0.1653
 4443SOL     OW18175   8.065   9.834   0.305  0.3590 -0.4110 -0.3311
 4443SOL    HW118176   8.058   9.916   0.354 -1.7500  0.9700 -2.7803
 4443SOL    HW218177   8.042   9.766   0.369  1.1219  0.9921  1.4731
 4444SOL     OW18178   0.375   9.313   2.648  0.9661  0.1291 -0.4333
 4444SOL    HW118179   0.323   9.385   2.685  0.8140 -0.0136 -0.3680
 4444SOL    HW218180   0.458   9.354   2.624  1.3591  0.0754  0.7834
 4445SOL     OW18181   0.818   7.836   0.785  0.2008 -0.5541 -0.0794
 4445SOL    HW118182   0.830   7.778   0.861  1.0924 -0.8300 -0.4187
 4445SOL    HW218183   0.801   7.776   0.712 -1.5408 -0.2473  0.0481
 4446SOL     OW18184   2.868   7.907   1.425 -0.2002  0.0820  0.0038
 4446SOL    HW118185   2.813   7.964   1.371 -0.4951 -0.3320 -0.1355
 4446SOL    HW218186   2.954   7.949   1.425 -0.2798  0.2516 -0.5286
 4447SOL     OW18187   0.367   8.947   0.891 -0.2849 -0.2012  0.4295
 4447SOL    HW118188   0.367   8.866   0.841 -0.6507  0.3135 -0.4017
 4447SOL    HW218189   0.333   9.013   0.831  0.2030  0.6105  1.0320
 4448SOL     OW18190   2.078   8.543   9.036  0.2575  0.3201 -0.2356
 4448SOL    HW118191   1.990   8.562   9.004  0.1563  0.6335  0.2247
 4448SOL    HW218192   2.127   8.624   9.022  0.1891  0.4898  0.4755
 4449SOL     OW18193   1.197   0.269   0.725 -0.2152 -0.6659  0.3606
 4449SOL    HW118194   1.270   0.331   0.730 -0.6483  0.0138 -1.4039
 4449SOL    HW218195   1.234   0.192   0.681 -0.0857 -1.0751  1.1666
 4450SOL     OW18196   0.966   0.248   1.710  0.0113 -0.7316  0.6482
 4450SOL    HW118197   0.995   0.329   1.751  0.7641 -0.8222  0.3043
 4450SOL    HW218198   0.881   0.269   1.671 -0.0504 -0.2651  1.0353
 4451SOL     OW18199   1.931   9.989   0.944 -0.0174 -0.4167  0.0909
 4451SOL    HW118200   1.864  10.015   0.880  1.0174 -0.8830 -1.1976
 4451SOL    HW218201   1.961  10.072   0.982 -1.2122 -0.1961  0.5736
 4452SOL     OW18202   1.545   0.534   1.669 -0.3557 -0.2892 -0.1095
 4452SOL    HW118203   1.528   0.582   1.588  1.3975 -0.3135 -0.4985
 4452SOL    HW218204   1.625   0.573   1.704 -0.8306 -0.6064  1.3757
 4453SOL     OW18205   7.526   7.948   9.528  0.2266  0.0524 -0.3403
 4453SOL    HW118206   7.611   7.908   9.546  0.4301 -0.1844 -1.7455
 4453SOL    HW218207   7.463   7.888   9.567  0.6643 -0.3319 -0.2175
 4454SOL     OW18208   2.270   7.887   1.884  0.2048  0.1215 -0.3770
 4454SOL    HW118209   2.230   7.971   1.909  2.4915  1.0507  0.2902
 4454SOL    HW218210   2.203   7.844   1.831 -1.3177  2.0271 -0.0870
 4455SOL     OW18211   2.179   9.218   0.462  0.1883  0.4885 -0.3113
 4455SOL    HW118212   2.246   9.171   0.411 -0.5492 -0.7819 -0.1416
 4455SOL    HW218213   2.221   9.234   0.547 -0.5705 -2.6150  0.7113
 4456SOL     OW18214   9.938   8.092   2.290  0.7239 -0.4206 -0.0174
 4456SOL    HW118215  10.006   8.123   2.350  1.4871  1.1936 -1.6617
 4456SOL    HW218216   9.939   7.997   2.300  3.5443 -0.4618 -0.3076
 4457SOL     OW18217   1.361   7.174   0.555  0.2717  0.2419  0.1801
 4457SOL    HW118218   1.271   7.143   0.563 -0.1423  1.0030 -1.2976
 4457SOL    HW218219   1.363   7.255   0.605  0.2023  0.0798  0.4443
 4458SOL     OW18220   8.970   0.596   1.251 -0.6068 -0.5058  0.1266
 4458SOL    HW118221   9.062   0.594   1.277 -0.1904  0.8990 -1.1624
 4458SOL    HW218222   8.972   0.577   1.157 -1.5524  0.4206 -0.0794
 4459SOL     OW18223   2.129   8.721   1.349  0.2393  0.3102  0.1251
 4459SOL    HW118224   2.181   8.708   1.270  0.0675  1.7847 -0.2377
 4459SOL    HW218225   2.141   8.640   1.399  2.8204  0.5762  0.0191
 4460SOL     OW18226   1.975   8.741   2.481  0.6101 -0.0520  0.5971
 4460SOL    HW118227   1.958   8.724   2.389 -1.6508 -3.2145  1.5011
 4460SOL    HW218228   1.900   8.794   2.509 -0.7920 -2.4004  1.4477
 4461SOL     OW18229   1.713   6.505   1.521  0.0688  0.4254 -0.2675
 4461SOL    HW118230   1.647   6.442   1.550 -2.5475  0.7854 -4.9811
 4461SOL    HW218231   1.694   6.584   1.571 -1.7253 -0.1425 -0.0149
 4462SOL     OW18232   1.183   8.269   0.778  0.5610  0.5295 -0.7315
 4462SOL    HW118233   1.186   8.355   0.819 -1.3366  0.7731 -1.0755
 4462SOL    HW218234   1.134   8.282   0.697 -0.5799 -1.0236 -0.3314
 4463SOL     OW18235   2.166   6.741   9.312 -0.2281 -0.0758 -0.4058
 4463SOL    HW118236   2.223   6.665   9.298  0.4794  0.4852 -0.6339
 4463SOL    HW218237   2.161   6.751   9.407 -0.8306 -0.7889 -0.3663
 4464SOL     OW18238   1.433   7.141   2.462  0.0620 -0.3582  0.1526
 4464SOL    HW118239   1.396   7.131   2.374 -0.5659  0.9225  0.2628
 4464SOL    HW218240   1.368   7.191   2.510  0.8168 -0.2620  1.0914
 4465SOL     OW18241   2.377   8.299   0.733 -0.5127  0.5509  0.1889
 4465SOL    HW118242   2.388   8.260   0.820 -2.3489  1.1294  0.6918
 4465SOL    HW218243   2.304   8.251   0.695 -0.5087  1.1421 -0.5595
 4466SOL     OW18244   1.501   9.398   1.140 -0.2783 -0.4551  0.2798
 4466SOL    HW118245   1.421   9.349   1.158 -0.6464  0.2880  0.6447
 4466SOL    HW218246   1.499   9.413   1.045 -0.1214 -1.2208  0.1524
 4467SOL     OW18247   8.587   9.410   9.050 -0.1902  0.0503 -0.4239
 4467SOL    HW118248   8.580   9.475   9.120  0.9364  1.4216 -1.5341
 4467SOL    HW218249   8.593   9.462   8.970  1.4175 -1.3957 -1.2786
 4468SOL     OW18250   0.436   7.378   1.491 -0.7192  0.2272  0.6110
 4468SOL    HW118251   0.382   7.328   1.430  0.1589 -2.1022  1.7200
 4468SOL    HW218252   0.386   7.380   1.572  0.5888 -1.5392  1.5032
 4469SOL     OW18253   0.897   8.125   1.418  1.0122  0.0667  0.1769
 4469SOL    HW118254   0.889   8.221   1.414  1.6403  0.0856 -1.2905
 4469SOL    HW218255   0.991   8.109   1.404  0.9488 -0.7530  0.6710
 4470SOL     OW18256   1.816   8.721   9.877  0.5455  0.1174  0.1320
 4470SOL    HW118257   1.866   8.743   9.798  1.2939 -0.0547  0.5582
 4470SOL    HW218258   1.864   8.764   9.948  0.4492 -0.5886  0.6240
 4471SOL     OW18259   0.558   5.992   1.590  0.0253  0.5318  0.3726
 4471SOL    HW118260   0.464   6.012   1.590  0.0641  0.7416 -1.7029
 4471SOL    HW218261   0.588   6.013   1.502  1.5733 -1.7712  0.3048
 4472SOL     OW18262   2.497   8.346   0.132  0.4662 -0.2067  0.4094
 4472SOL    HW118263   2.412   8.366   0.171  0.8645  0.2917  1.0260
 4472SOL    HW218264   2.555   8.415   0.164  0.6160  0.7291 -1.7348
 4473SOL     OW18265   0.637   9.429   0.622 -0.2206  0.5119  0.0156
 4473SOL    HW118266   0.627   9.524   0.614  0.5800  0.7019  1.1602
 4473SOL    HW218267   0.710   9.407   0.564 -1.5297  0.3337 -1.6059
 4474SOL     OW18268   0.373   8.661   0.919 -0.1824  0.1815 -0.3292
 4474SOL    HW118269   0.330   8.604   0.855  0.1197  0.4542 -0.7749
 4474SOL    HW218270   0.396   8.602   0.991 -1.7049  0.1152  0.1191
 4475SOL     OW18271   9.944   7.835   9.599 -0.2973 -0.1323 -0.1260
 4475SOL    HW118272   9.903   7.820   9.684 -2.5563 -1.1678 -1.3642
 4475SOL    HW218273   9.951   7.931   9.593 -2.9749  0.0942 -0.0725
 4476SOL     OW18274   2.366   7.179   2.311 -0.6726 -0.0635 -0.0158
 4476SOL    HW118275   2.403   7.096   2.340  0.9666  0.6540 -0.0060
 4476SOL    HW218276   2.430   7.245   2.338 -1.6434  1.1369 -0.5913
 4477SOL     OW18277   1.101   9.060   0.982 -0.3533 -0.0333 -0.3227
 4477SOL    HW118278   1.045   9.111   1.040  0.7752 -0.4508  1.1811
 4477SOL    HW218279   1.169   9.121   0.954 -0.4923 -0.0205 -0.6328
 4478SOL     OW18280   9.759   9.643   1.634  0.6610  0.0778  0.0517
 4478SOL    HW118281   9.708   9.587   1.575  0.9219 -0.0460 -0.0574
 4478SOL    HW218282   9.774   9.723   1.583  4.1143 -1.4685 -1.4863
 4479SOL     OW18283   1.282   7.685   2.278  0.2212  0.3351 -0.0873
 4479SOL    HW118284   1.226   7.698   2.355 -1.6738 -0.8006 -1.2509
 4479SOL    HW218285   1.277   7.591   2.260  0.3791  0.6412 -1.7814
 4480SOL     OW18286   1.069   7.757   9.467  0.2770  0.2900  0.2155
 4480SOL    HW118287   1.009   7.698   9.421  1.6947  0.2119 -1.5492
 4480SOL    HW218288   1.092   7.823   9.402  2.6375 -0.0657  0.6563
 4481SOL     OW18289   0.668   0.098   9.741 -0.0122  0.3027 -0.7005
 4481SOL    HW118290   0.665   0.086   9.646  0.6951 -0.0635 -0.6794
 4481SOL    HW218291   0.690   0.190   9.753  1.1070  0.0641 -0.9017
 4482SOL     OW18292   1.598   8.621   9.976  0.5269 -0.2991  0.9180
 4482SOL    HW118293   1.668   8.672   9.936 -0.1960  0.0335  0.0435
 4482SOL    HW218294   1.518   8.667   9.950 -0.2439 -2.6610 -1.0884
 4483SOL     OW18295   0.115   7.708   1.264 -0.2637  0.4074 -0.0727
 4483SOL    HW118296   0.204   7.738   1.283  0.1309 -0.0313 -1.1561
 4483SOL    HW218297   0.116   7.615   1.287 -0.9385  0.7699  1.5020
 4484SOL     OW18298   1.918   8.939   0.460  0.8084  0.5347  0.1143
 4484SOL    HW118299   1.939   8.933   0.554  1.9661  0.7749 -0.1141
 4484SOL    HW218300   1.873   8.857   0.441 -1.4587  1.4559  1.3652
 4485SOL     OW18301   1.899   9.479   1.418 -0.0229  0.1202  0.1766
 4485SOL    HW118302   1.966   9.481   1.486 -0.6353 -0.1120  0.8006
 4485SOL    HW218303   1.912   9.559   1.368  0.6513  0.1224  0.3621
 4486SOL     OW18304   1.709   7.347   2.597  0.8993 -0.1914  0.2544
 4486SOL    HW118305   1.711   7.371   2.689 -0.4388 -1.3271  0.5967
 4486SOL    HW218306   1.762   7.414   2.553  0.7801  0.8752  1.7198
 4487SOL     OW18307   2.878   8.836   2.027  0.0987 -0.6736 -0.3333
 4487SOL    HW118308   2.891   8.894   2.102 -1.5662 -0.8884  0.1364
 4487SOL    HW218309   2.856   8.894   1.955 -1.4993 -0.7027  0.1204
 4488SOL     OW18310   1.215   8.227   1.112 -0.1543 -0.0055  0.3980
 4488SOL    HW118311   1.310   8.234   1.107  0.1034 -1.1164  2.7965
 4488SOL    HW218312   1.190   8.293   1.177 -0.9592 -0.0930  0.1802
 4489SOL     OW18313   1.685   8.080   0.983 -0.1197  0.6153  0.4671
 4489SOL    HW118314   1.616   8.115   1.040 -0.1796  1.3330 -0.0377
 4489SOL    HW218315   1.697   8.148   0.917  0.3632  0.0381 -0.0328
 4490SOL     OW18316   8.896   9.211   2.082  0.2045 -0.6971 -0.4547
 4490SOL    HW118317   8.975   9.204   2.029 -0.0817 -1.6342 -0.7671
 4490SOL    HW218318   8.824   9.202   2.020 -0.1465 -0.6088 -0.0663
 4491SOL     OW18319   0.363   8.411   9.856 -0.0430  0.1851  0.2303
 4491SOL    HW118320   0.421   8.484   9.877  0.1162 -0.1272  0.9067
 4491SOL    HW218321   0.278   8.452   9.838 -0.5584  0.3865  2.8854
 4492SOL     OW18322   0.439   9.387   1.341  0.0711  0.0619  0.0731
 4492SOL    HW118323   0.429   9.441   1.420 -1.8691  0.0573 -0.1496
 4492SOL    HW218324   0.485   9.309   1.371  0.1213  0.4542  1.0274
 4493SOL     OW18325   9.010   8.777   1.082 -0.3264 -0.2436  0.4840
 4493SOL    HW118326   8.938   8.813   1.031 -0.2773 -0.2968  0.3762
 4493SOL    HW218327   9.044   8.851   1.131  1.9601  0.6523 -2.2823
 4494SOL     OW18328   0.621   7.698   1.525 -0.0032  0.5733  0.2585
 4494SOL    HW118329   0.626   7.650   1.442  1.3282 -1.1357  1.2952
 4494SOL    HW218330   0.653   7.786   1.503 -1.7312  0.7979 -1.4926
 4495SOL     OW18331   2.384   7.161   1.796 -0.5276  0.1078 -0.4017
 4495SOL    HW118332   2.350   7.078   1.827 -1.0129 -0.3058 -2.0116
 4495SOL    HW218333   2.474   7.142   1.770 -0.6406  0.0779 -0.7758
 4496SOL     OW18334   9.883   9.553   0.497 -0.1468 -0.3730  0.0812
 4496SOL    HW118335   9.886   9.496   0.574  0.3723  0.9391  1.0565
 4496SOL    HW218336   9.934   9.630   0.522 -1.4496  0.8592 -0.9313
 4497SOL     OW18337   0.152   6.810   9.947  0.8957  0.1882 -0.9703
 4497SOL    HW118338   0.096   6.747   9.993  1.6198 -0.9434 -1.6020
 4497SOL    HW218339   0.092   6.878   9.916  0.0413 -0.3991 -0.6189
 4498SOL     OW18340   1.398   6.984   0.977  0.3775  0.2858 -0.1057
 4498SOL    HW118341   1.325   7.044   0.960 -1.3082 -0.4780  3.9845
 4498SOL    HW218342   1.393   6.920   0.905 -3.1952  0.0799  0.2309
 4499SOL     OW18343   1.149   8.487   1.219  0.2086 -0.3443  0.1454
 4499SOL    HW118344   1.150   8.484   1.314 -1.6676 -1.6517  0.1436
 4499SOL    HW218345   1.105   8.570   1.198 -1.9217 -1.3628  0.4555
 4500SOL     OW18346   1.467   7.240   2.780 -0.3711  0.2925 -0.0922
 4500SOL    HW118347   1.376   7.227   2.751 -0.4665  0.1629  0.2568
 4500SOL    HW218348   1.474   7.335   2.793 -0.0086  0.4844 -1.5562
 4501SOL     OW18349   9.283   9.057   1.081  0.2722  0.0375 -0.3086
 4501SOL    HW118350   9.328   8.981   1.044  1.2359 -0.4877  1.8614
 4501SOL    HW218351   9.289   9.124   1.014  1.5942 -1.0129 -1.2615
 4502SOL     OW18352   1.522   7.426   2.060 -0.0151  0.2588  0.0369
 4502SOL    HW118353   1.517   7.407   2.153  1.4332 -0.3956 -0.0058
 4502SOL    HW218354   1.536   7.340   2.019 -1.2829  0.4654 -0.8339
 4503SOL     OW18355   2.298   7.314   0.933  0.7736 -0.8702  0.1537
 4503SOL    HW118356   2.230   7.351   0.990 -1.5563 -2.1896 -1.6608
 4503SOL    HW218357   2.331   7.238   0.980 -1.3938 -2.1684 -0.3635
 4504SOL     OW18358   9.475   7.349   0.590 -0.3428 -0.4177 -0.8166
 4504SOL    HW118359   9.416   7.273   0.586  1.0857 -1.5717 -0.3002
 4504SOL    HW218360   9.550   7.324   0.536  1.1356 -0.2470  1.1109
 4505SOL     OW18361   0.573   8.220   1.347  0.3215 -0.3306 -0.3057
 4505SOL    HW118362   0.523   8.173   1.413 -1.0905 -0.2266 -1.2884
 4505SOL    HW218363   0.591   8.305   1.386  0.5771 -0.7121  0.4243
 4506SOL     OW18364   0.160   9.735   2.565  0.0031  0.3003 -0.2679
 4506SOL    HW118365   0.093   9.800   2.544 -0.2741 -0.4045 -1.6034
 4506SOL    HW218366   0.192   9.706   2.479 -0.0585 -1.5137  0.3157
 4507SOL     OW18367   3.410   9.875   2.688 -0.5417  0.4352  0.0002
 4507SOL    HW118368   3.437   9.911   2.772  1.1056 -1.8288  0.4856
 4507SOL    HW218369   3.319   9.905   2.677 -0.0875  2.4846  1.5743
 4508SOL     OW18370   9.162   7.176   9.383  0.1149 -0.5704 -0.1847
 4508SOL    HW118371   9.256   7.190   9.378  0.2396 -0.5829  1.6096
 4508SOL    HW218372   9.148   7.137   9.470 -1.6491  0.5061  0.0490
 4509SOL     OW18373   0.935   7.539   2.094  0.2754  0.4202  0.2903
 4509SOL    HW118374   0.862   7.601   2.096  1.2118  1.5654 -0.7136
 4509SOL    HW218375   1.009   7.589   2.129  0.7067 -0.5721  0.8065
 4510SOL     OW18376   9.564   7.660   1.913 -0.8577 -0.3290  0.6650
 4510SOL    HW118377   9.472   7.636   1.902 -0.9086  0.7066 -1.2520
 4510SOL    HW218378   9.592   7.691   1.827  1.4989 -1.2818  1.0403
 4511SOL     OW18379   9.527   9.548   2.694 -0.0101  0.3455  0.3078
 4511SOL    HW118380   9.441   9.570   2.729 -0.4907 -1.6431  0.4502
 4511SOL    HW218381   9.508   9.503   2.611  1.0172  2.6223 -1.2326
 4512SOL     OW18382   1.135   9.040   3.439 -0.3145 -0.1487 -0.2113
 4512SOL    HW118383   1.080   9.095   3.494  0.4187  0.2913  0.0951
 4512SOL    HW218384   1.199   9.001   3.499 -0.7939 -1.2929 -0.4334
 4513SOL     OW18385   0.016   7.619   0.054 -0.2846  0.6025 -0.0171
 4513SOL    HW118386   0.064   7.610   0.136  0.8621  1.0291 -0.6208
 4513SOL    HW218387  -0.048   7.548   0.055 -0.2442  0.5759  1.2181
 4514SOL     OW18388   0.481   8.934   0.582  0.6438 -0.4856 -0.2299
 4514SOL    HW118389   0.428   9.006   0.617 -0.4292 -0.8659 -1.0486
 4514SOL    HW218390   0.557   8.930   0.640  0.0564  0.4380  0.6207
 4515SOL     OW18391   9.940   6.787   0.897  0.7980  0.3236  0.1988
 4515SOL    HW118392   9.994   6.787   0.818 -0.2642  1.1823 -0.5391
 4515SOL    HW218393   9.853   6.760   0.867  0.2595  1.1796  0.9856
 4516SOL     OW18394   9.878   8.513   1.118  0.5263 -0.6383 -0.7681
 4516SOL    HW118395   9.956   8.548   1.076  1.5533 -1.6252  0.2968
 4516SOL    HW218396   9.834   8.463   1.049  0.5851  0.2734 -1.4853
 4517SOL     OW18397   8.801   7.470   1.105  0.0726  0.1075  0.2790
 4517SOL    HW118398   8.783   7.412   1.179 -1.0590 -1.0481 -0.8830
 4517SOL    HW218399   8.881   7.433   1.065 -1.6542 -1.7866 -1.5393
 4518SOL     OW18400   0.046   6.185   3.590 -0.3708 -0.1565  0.3006
 4518SOL    HW118401  -0.046   6.186   3.616 -0.4403 -2.1600  0.2226
 4518SOL    HW218402   0.088   6.124   3.650  1.0077  1.0298  0.5824
 4519SOL     OW18403   1.111   6.956   0.069  0.5054  0.1885 -0.2974
 4519SOL    HW118404   1.144   7.017   0.136 -0.9295 -1.4979  2.0237
 4519SOL    HW218405   1.175   6.885   0.067 -1.4282 -1.7454  2.2674
 4520SOL     OW18406   9.782   8.792   1.205 -0.0187  0.2693  0.7052
 4520SOL    HW118407   9.834   8.830   1.134  1.0891  0.1818  1.4599
 4520SOL    HW218408   9.761   8.703   1.175 -0.4405  0.5854  0.0464
 4521SOL     OW18409   0.467   8.495   1.117  0.1456 -0.6174 -0.1862
 4521SOL    HW118410   0.491   8.433   1.048  0.8169 -0.8938  0.2931
 4521SOL    HW218411   0.548   8.510   1.165 -0.2123 -0.0465  0.2459
 4522SOL     OW18412   0.761   8.645   0.552 -0.6621  0.1410 -0.0568
 4522SOL    HW118413   0.674   8.606   0.552 -0.2783 -0.7331 -0.6709
 4522SOL    HW218414   0.782   8.657   0.459 -0.0641  0.2007  0.0827
 4523SOL     OW18415   8.380   7.211   0.892 -0.3647 -0.1263 -0.8913
 4523SOL    HW118416   8.381   7.126   0.936  0.5509  0.1648 -0.3377
 4523SOL    HW218417   8.330   7.196   0.811 -3.7425 -0.2122  1.1370
 4524SOL     OW18418   2.146   6.731   9.587 -0.1580  0.4014  0.0143
 4524SOL    HW118419   2.084   6.732   9.660  1.8792  0.3216  1.8214
 4524SOL    HW218420   2.196   6.650   9.600  1.6885  1.4824 -0.1705
 4525SOL     OW18421   2.153   8.849   0.290 -0.0093  0.3757  0.4881
 4525SOL    HW118422   2.092   8.848   0.364  0.2527 -0.2869  0.7035
 4525SOL    HW218423   2.200   8.932   0.298  0.7277 -0.1304  1.6681
 4526SOL     OW18424   3.343   8.187   0.840  0.1413 -0.6125  1.0307
 4526SOL    HW118425   3.370   8.109   0.888  0.9530  0.2834  2.0530
 4526SOL    HW218426   3.327   8.253   0.908 -0.5966  0.1005  0.1875
 4527SOL     OW18427   0.225   9.439   1.876  0.2676 -0.1078 -0.5485
 4527SOL    HW118428   0.232   9.344   1.867 -0.1483 -0.2310  0.3368
 4527SOL    HW218429   0.308   9.465   1.916 -0.2956 -0.3224  0.7896
 4528SOL     OW18430   0.965   8.957   1.717  0.4101 -0.1519 -0.0066
 4528SOL    HW118431   0.884   8.906   1.711 -0.0081  0.5179 -0.0198
 4528SOL    HW218432   0.936   9.047   1.732  1.1664  0.0010  0.5430
 4529SOL     OW18433   1.811   6.607   0.291 -0.5148  0.0787 -0.4586
 4529SOL    HW118434   1.865   6.539   0.253 -1.0798  0.0739 -1.2518
 4529SOL    HW218435   1.849   6.689   0.259 -1.3995  0.0546 -1.5905
 4530SOL     OW18436   9.251   8.938   1.965  0.1274 -0.6931  0.2428
 4530SOL    HW118437   9.341   8.972   1.960 -0.0261 -0.1855  0.8320
 4530SOL    HW218438   9.237   8.923   2.058  0.1533 -2.3164  0.0099
 4531SOL     OW18439   1.836   7.841   2.655 -0.4103 -0.3831 -0.1635
 4531SOL    HW118440   1.900   7.811   2.720  0.1827 -0.4598 -0.7748
 4531SOL    HW218441   1.874   7.922   2.620 -0.6400 -0.4410 -0.5460
 4532SOL     OW18442   1.467   9.404   1.432  0.4784 -0.0658 -0.3576
 4532SOL    HW118443   1.468   9.435   1.342  0.2279 -0.8789 -0.6516
 4532SOL    HW218444   1.470   9.483   1.486  2.4051  0.3730 -1.0774
 4533SOL     OW18445   1.597   8.305   1.286 -0.1750 -0.4002  0.5872
 4533SOL    HW118446   1.539   8.372   1.322 -1.3820 -0.7173 -0.7486
 4533SOL    HW218447   1.679   8.317   1.333 -1.3152  0.0547  2.5227
 4534SOL     OW18448   1.286   0.101   1.110 -0.0126  0.1174 -0.3968
 4534SOL    HW118449   1.200   0.104   1.069 -1.1471  2.0974  1.9912
 4534SOL    HW218450   1.269   0.066   1.198  2.0598 -2.2416 -0.8923
 4535SOL     OW18451   1.042   8.482   0.023  0.5051  0.1823 -0.0321
 4535SOL    HW118452   1.119   8.502  -0.029  1.1929 -1.2775  0.3997
 4535SOL    HW218453   1.025   8.563   0.072  1.9007  0.4438  0.0447
 4536SOL     OW18454   1.778   9.119   0.270 -0.4438 -0.6390 -0.1876
 4536SOL    HW118455   1.699   9.070   0.247  0.5564 -2.1299 -0.5704
 4536SOL    HW218456   1.812   9.073   0.347 -0.7246  0.8859  0.8689
 4537SOL     OW18457   0.990   1.117   0.214  0.3105 -0.0235  0.3874
 4537SOL    HW118458   1.076   1.075   0.216  0.6661  0.6750 -0.1556
 4537SOL    HW218459   1.007   1.206   0.183 -0.8641 -0.5659 -1.9547
 4538SOL     OW18460   0.359   8.335   3.378 -0.2960  0.6513  0.5413
 4538SOL    HW118461   0.318   8.266   3.327 -1.5618  0.6459  1.5457
 4538SOL    HW218462   0.309   8.414   3.359  0.1300  0.9539  0.6476
 4539SOL     OW18463   2.191   8.695   0.656  0.1395 -0.3778  0.7468
 4539SOL    HW118464   2.107   8.739   0.670  0.0922 -0.9231  2.3222
 4539SOL    HW218465   2.232   8.695   0.743  1.7197 -0.2264  0.0137
 4540SOL     OW18466   1.399   7.859   1.212 -0.3415  0.1311  0.1875
 4540SOL    HW118467   1.453   7.794   1.166 -0.3775 -1.0074  1.7028
 4540SOL    HW218468   1.329   7.880   1.151 -1.2789 -2.5378  0.3159
 4541SOL     OW18469   1.029   8.232   0.581  0.0878 -0.4711  0.1302
 4541SOL    HW118470   0.935   8.240   0.565  0.2293  2.0300  0.3909
 4541SOL    HW218471   1.067   8.218   0.494 -0.1657  2.5445 -0.5188
 4542SOL     OW18472   1.396   0.438   2.807 -0.3538  0.6697 -0.2498
 4542SOL    HW118473   1.419   0.520   2.762 -0.0503  0.9197  0.3594
 4542SOL    HW218474   1.301   0.429   2.793 -0.4582  1.3300  0.0122
 4543SOL     OW18475   9.288   8.969   2.280 -0.4166  0.3967 -0.2596
 4543SOL    HW118476   9.193   8.956   2.280 -0.3630 -0.1362  2.0815
 4543SOL    HW218477   9.300   9.061   2.303 -0.3485  0.3929 -0.2804
 4544SOL     OW18478   2.735   8.663   0.708 -0.1978  0.6407  0.2673
 4544SOL    HW118479   2.658   8.606   0.704  1.1392 -1.1683 -0.8610
 4544SOL    HW218480   2.717   8.723   0.779 -0.6833 -2.6908  3.0840
 4545SOL     OW18481   3.962   8.154   1.219 -0.3668 -0.3720 -0.3994
 4545SOL    HW118482   3.998   8.094   1.153 -2.2881  0.0575 -1.8790
 4545SOL    HW218483   4.038   8.204   1.249  0.8567 -1.8657 -0.9012
 4546SOL     OW18484   0.270   8.067   1.038  0.4665  0.5874 -0.7073
 4546SOL    HW118485   0.229   8.109   1.113  0.1230  0.1056 -0.6286
 4546SOL    HW218486   0.276   8.137   0.972 -0.4424  0.6675 -0.7123
 4547SOL     OW18487   1.014   8.005   0.766 -0.4512  0.0440 -0.8671
 4547SOL    HW118488   0.991   8.076   0.707 -0.1037 -0.2246 -1.3252
 4547SOL    HW218489   0.932   7.957   0.779 -1.0268  1.4132  0.6493
 4548SOL     OW18490   9.686   9.256   1.056  0.2072  0.3516  0.0077
 4548SOL    HW118491   9.781   9.263   1.056  0.3324 -1.1079 -0.2266
 4548SOL    HW218492   9.663   9.252   0.963 -0.3444  3.6157 -0.0374
 4549SOL     OW18493   1.841   8.123   2.609 -0.0468  0.0130 -1.1220
 4549SOL    HW118494   1.755   8.162   2.594 -0.1977 -0.7460 -2.2498
 4549SOL    HW218495   1.884   8.184   2.668 -0.8514  1.1028 -1.6390
 4550SOL     OW18496   8.734   9.165   1.434  0.0184  0.1945 -0.1252
 4550SOL    HW118497   8.658   9.222   1.417  1.1585  1.2075 -1.9934
 4550SOL    HW218498   8.702   9.077   1.414 -1.1186  0.4170  0.6476
 4551SOL     OW18499   1.319   7.182   1.509  0.3211 -0.4009  0.1145
 4551SOL    HW118500   1.298   7.130   1.432  0.8968 -0.6432  0.1211
 4551SOL    HW218501   1.270   7.264   1.497  0.1962 -0.5462 -0.3729
 4552SOL     OW18502   1.420   8.483   0.209 -0.1549  0.1234 -0.0214
 4552SOL    HW118503   1.370   8.408   0.241 -0.5669  0.9188  1.2403
 4552SOL    HW218504   1.385   8.500   0.122 -1.5782  0.2196  0.5623
 4553SOL     OW18505   0.226   7.523   1.604  0.1176 -0.3878  0.5609
 4553SOL    HW118506   0.140   7.528   1.563  0.8066 -0.4810 -0.9380
 4553SOL    HW218507   0.288   7.520   1.530  1.3531 -1.1851  1.5950
 4554SOL     OW18508   9.802   9.890   1.505 -0.3858  0.1313 -0.0677
 4554SOL    HW118509   9.835   9.847   1.426  1.1799 -1.1136  1.2325
 4554SOL    HW218510   9.878   9.936   1.541 -0.6569 -0.7197  1.6186
 4555SOL     OW18511   9.933   7.500   1.645  0.0451 -0.4246  0.2132
 4555SOL    HW118512   9.945   7.406   1.632 -1.7105 -0.6042 -0.2201
 4555SOL    HW218513   9.870   7.506   1.717 -0.2195  0.4115 -0.0874
 4556SOL     OW18514   0.250   7.570   0.253 -0.0444 -0.5629 -0.5823
 4556SOL    HW118515   0.218   7.567   0.343  0.4023 -1.0505 -0.4409
 4556SOL    HW218516   0.304   7.491   0.243 -1.2206 -1.2375 -1.7057
 4557SOL     OW18517   2.036   8.063   1.964  0.2756 -0.2724  0.3250
 4557SOL    HW118518   1.980   8.089   1.891 -0.1848 -0.8759  0.4626
 4557SOL    HW218519   2.018   7.970   1.976 -0.7524  0.1510  2.1721
 4558SOL     OW18520   9.767   8.524   9.799 -0.1387 -0.1865 -0.2939
 4558SOL    HW118521   9.735   8.610   9.774 -0.5707 -0.6708 -1.4384
 4558SOL    HW218522   9.834   8.503   9.733  0.8337 -0.2095  0.6770
 4559SOL     OW18523   1.715   9.546   0.511 -0.0151  0.1281  0.2505
 4559SOL    HW118524   1.734   9.596   0.432 -0.4875  1.0910  0.7378
 4559SOL    HW218525   1.763   9.593   0.580  1.6907 -1.6102  0.2772
 4560SOL     OW18526   0.643   7.726   9.619  0.6348 -0.5222 -0.7625
 4560SOL    HW118527   0.598   7.766   9.694  0.8572 -1.4408 -0.1265
 4560SOL    HW218528   0.589   7.749   9.544  0.4909  0.5499 -0.3402
 4561SOL     OW18529   1.407   9.595   1.607  0.3369  0.3962  0.0441
 4561SOL    HW118530   1.415   9.646   1.688  0.5021 -1.9552  1.5589
 4561SOL    HW218531   1.323   9.549   1.617  0.3293  0.1338 -1.1760
 4562SOL     OW18532   0.823   8.305   1.844 -0.4182  0.8375 -0.2380
 4562SOL    HW118533   0.889   8.293   1.776 -1.8616  0.0758 -1.5254
 4562SOL    HW218534   0.778   8.220   1.850 -1.1739  1.2898  0.7346
 4563SOL     OW18535   1.779   8.051   1.276  0.2069  0.5862  0.2969
 4563SOL    HW118536   1.780   7.962   1.242 -1.2801  0.9942 -0.9114
 4563SOL    HW218537   1.748   8.104   1.203  1.3679  2.1450  0.9082
 4564SOL     OW18538   9.921   8.858   1.424 -0.1288 -0.3525  0.4076
 4564SOL    HW118539   9.916   8.954   1.423  2.2737 -0.2177 -0.3438
 4564SOL    HW218540   9.861   8.831   1.354  0.2274  0.6443 -0.2909
 4565SOL     OW18541   2.153   8.070   1.639  0.0547 -0.3777 -0.6283
 4565SOL    HW118542   2.106   8.102   1.562  0.6547  1.7532 -0.1235
 4565SOL    HW218543   2.107   7.989   1.663 -0.4771 -0.7853 -2.8811
 4566SOL     OW18544   0.195   6.936   0.900  0.1786 -0.2158  0.3481
 4566SOL    HW118545   0.276   6.928   0.850 -0.2431  0.4211 -0.4485
 4566SOL    HW218546   0.130   6.888   0.849 -0.6196  1.7881 -0.5448
 4567SOL     OW18547   9.722   8.244   2.363  0.0336  0.3870  0.3936
 4567SOL    HW118548   9.739   8.292   2.444  0.9008  0.5014  0.1480
 4567SOL    HW218549   9.807   8.206   2.340 -1.0793 -3.0421  1.7249
 4568SOL     OW18550   1.364   6.946   2.676 -0.5650  0.1358  0.2879
 4568SOL    HW118551   1.319   6.882   2.621 -0.6556  0.8457 -0.4815
 4568SOL    HW218552   1.369   7.025   2.621 -0.4986  0.7938  1.2350
 4569SOL     OW18553   1.235   9.830   0.489 -0.0608 -0.1679  0.5144
 4569SOL    HW118554   1.193   9.892   0.430 -1.4829 -1.7862 -0.2214
 4569SOL    HW218555   1.176   9.825   0.565 -0.0812 -0.7984  0.4585
 4570SOL     OW18556   9.851   8.411   9.218 -0.2059  0.0330  0.1840
 4570SOL    HW118557   9.941   8.385   9.235 -0.0628  0.3407 -0.0850
 4570SOL    HW218558   9.849   8.505   9.237 -0.7086 -0.1689  1.1274
 4571SOL     OW18559   1.469   9.640   9.653  0.1660  0.2601 -0.7681
 4571SOL    HW118560   1.522   9.719   9.660  1.0147 -0.3220 -0.4917
 4571SOL    HW218561   1.517   9.584   9.591 -0.7908  0.2492 -1.5038
 4572SOL     OW18562   2.059   8.872   1.855 -0.2051 -0.6390  0.7420
 4572SOL    HW118563   2.144   8.864   1.812  0.5919  1.1964  1.9312
 4572SOL    HW218564   2.063   8.956   1.900 -2.9602 -0.1332  0.1184
 4573SOL     OW18565   0.428   9.667   9.901  0.3431 -0.4333 -0.1566
 4573SOL    HW118566   0.502   9.723   9.879  0.5536 -0.5784  0.1682
 4573SOL    HW218567   0.438   9.590   9.845  2.0251 -1.7322  1.8287
 4574SOL     OW18568   2.710   9.891   0.839  0.2263 -0.1369 -0.0506
 4574SOL    HW118569   2.655   9.871   0.763 -0.7966 -1.3307  0.9861
 4574SOL    HW218570   2.782   9.829   0.834 -0.5856 -1.1547  0.7128
 4575SOL     OW18571   0.993   8.094   3.248  0.1077 -0.2001  0.1333
 4575SOL    HW118572   1.000   8.188   3.232 -0.3348 -0.3189 -0.7740
 4575SOL    HW218573   0.945   8.088   3.331  1.9191  0.3974  1.2708
 4576SOL     OW18574   7.989   8.059   9.476 -0.3336  0.0316 -0.2428
 4576SOL    HW118575   8.078   8.023   9.468 -0.8232 -1.2757  0.0810
 4576SOL    HW218576   7.984   8.088   9.567  0.0575  0.9238 -0.4995
 4577SOL     OW18577   0.587   8.145   0.225  0.2609  0.2834 -0.2697
 4577SOL    HW118578   0.525   8.216   0.243 -1.3834 -0.5656 -2.4436
 4577SOL    HW218579   0.666   8.190   0.193 -1.0851  1.1275 -2.5151
 4578SOL     OW18580   1.555   8.973   9.984  0.2751  0.0240 -0.4267
 4578SOL    HW118581   1.530   9.052   9.937 -2.7310 -1.3835 -1.2807
 4578SOL    HW218582   1.537   8.902   9.923 -1.2619 -1.6594  1.9142
 4579SOL     OW18583   9.286   8.141   2.077 -0.2930 -0.1250 -0.7365
 4579SOL    HW118584   9.359   8.151   2.137 -1.6480 -1.4610  1.1982
 4579SOL    HW218585   9.306   8.061   2.028  0.8889  1.0509 -2.2353
 4580SOL     OW18586   1.543   9.078   8.917  0.6531  0.9012 -0.1442
 4580SOL    HW118587   1.628   9.103   8.881  0.5456 -0.2982 -1.2721
 4580SOL    HW218588   1.480   9.104   8.850  0.0223  2.5865  1.0658
 4581SOL     OW18589   1.098   8.332   1.742 -0.4812  0.1088  0.2711
 4581SOL    HW118590   1.116   8.290   1.658  0.6474 -0.4182  0.7756
 4581SOL    HW218591   1.100   8.261   1.806 -1.3087  0.5115  0.7548
 4582SOL     OW18592   1.607   6.807   1.003  0.3150 -0.0892  0.4679
 4582SOL    HW118593   1.570   6.865   1.070  1.3088  0.9506  0.1137
 4582SOL    HW218594   1.532   6.754   0.974 -1.1909  2.8664 -1.1678
 4583SOL     OW18595   0.359   8.749   1.520 -0.2815  0.0330  0.5745
 4583SOL    HW118596   0.388   8.785   1.604  0.0945  0.1714  0.3866
 4583SOL    HW218597   0.439   8.746   1.467 -0.5835  0.2484  0.1104
 4584SOL     OW18598   1.512   7.399   2.323  0.1245 -0.4796  0.2845
 4584SOL    HW118599   1.568   7.435   2.392 -0.9727 -0.1214  1.0149
 4584SOL    HW218600   1.423   7.416   2.354 -0.3997 -2.3600 -0.1374
 4585SOL     OW18601   2.490   8.406   1.491  0.3927 -0.2913 -0.2947
 4585SOL    HW118602   2.455   8.428   1.405  0.5279 -1.7585 -0.7268
 4585SOL    HW218603   2.417   8.422   1.551 -0.6229 -2.0690 -1.0296
 4586SOL     OW18604   2.347   7.298   2.046 -0.0808  0.0627 -0.6491
 4586SOL    HW118605   2.360   7.251   1.963 -2.5844 -0.3805 -0.8501
 4586SOL    HW218606   2.375   7.237   2.113  0.6711 -0.1026 -1.1054
 4587SOL     OW18607   0.559   8.876   0.309  0.1066  0.2836  0.0342
 4587SOL    HW118608   0.521   8.881   0.397 -0.2524  2.2820 -0.2066
 4587SOL    HW218609   0.583   8.966   0.288  2.0151 -0.4619 -1.1315
 4588SOL     OW18610   8.908   8.854   1.443 -0.5630  0.5341  0.0892
 4588SOL    HW118611   8.830   8.849   1.388 -0.9769  2.5683  0.4689
 4588SOL    HW218612   8.961   8.923   1.403  0.9019 -0.6038  0.0211
 4589SOL     OW18613   9.900   7.501   2.386 -0.0599  0.0738 -0.4256
 4589SOL    HW118614   9.914   7.515   2.292 -1.4167  0.3912 -0.5900
 4589SOL    HW218615   9.805   7.493   2.395  0.0294  0.4665  0.9772
 4590SOL     OW18616   0.571   9.105   2.451  0.1420  0.4041 -0.5035
 4590SOL    HW118617   0.568   9.029   2.393 -1.3090 -0.7734  1.0426
 4590SOL    HW218618   0.537   9.072   2.534  1.5061  2.2247  0.8172
 4591SOL     OW18619   2.084   9.510   3.761  0.3254  0.4557 -0.2000
 4591SOL    HW118620   2.039   9.583   3.717  1.0581  1.0660  0.0619
 4591SOL    HW218621   2.139   9.471   3.693  1.5209  1.4494  0.1920
 4592SOL     OW18622   1.877   9.184   3.061  0.2213 -0.3364 -0.7781
 4592SOL    HW118623   1.966   9.168   3.030  0.9047  1.2090  0.3356
 4592SOL    HW218624   1.888   9.210   3.152 -1.3953 -0.2916 -0.5823
 4593SOL     OW18625   0.247   8.244   0.805 -0.1282  0.0001  0.1412
 4593SOL    HW118626   0.336   8.264   0.775 -0.6609  1.8396 -0.2833
 4593SOL    HW218627   0.204   8.203   0.730 -0.0078  0.2365 -0.0572
 4594SOL     OW18628   1.040   7.125   2.507 -0.9289 -0.0218  0.0082
 4594SOL    HW118629   0.948   7.149   2.504 -1.0988 -0.7674 -1.4311
 4594SOL    HW218630   1.060   7.096   2.418  1.1225  1.6955 -0.1594
 4595SOL     OW18631   9.654   9.416   1.867  0.2598 -0.5893  0.4163
 4595SOL    HW118632   9.693   9.474   1.801 -0.1693 -0.9779 -0.1903
 4595SOL    HW218633   9.573   9.386   1.826 -1.2920  1.1130  2.1029
 4596SOL     OW18634   0.481   8.690   2.897  0.5694  0.6504  0.2893
 4596SOL    HW118635   0.415   8.734   2.843  0.3636 -1.5331 -1.3259
 4596SOL    HW218636   0.561   8.741   2.885  0.6358 -0.0023 -2.4719
 4597SOL     OW18637   1.245   8.131   4.167  0.1332 -0.1767 -0.7488
 4597SOL    HW118638   1.175   8.078   4.128 -0.1525 -1.3667  1.3445
 4597SOL    HW218639   1.205   8.216   4.182 -0.7023 -0.6695 -0.1419
 4598SOL     OW18640   2.643   7.169   2.100 -0.1098  0.6401  0.2525
 4598SOL    HW118641   2.729   7.153   2.061 -0.2570  0.6477 -0.0757
 4598SOL    HW218642   2.630   7.264   2.089 -0.3018  0.5849  0.0138
 4599SOL     OW18643   2.209   8.748   3.788 -0.0748  0.3415 -0.7891
 4599SOL    HW118644   2.241   8.689   3.720  0.9477  1.0751 -0.9539
 4599SOL    HW218645   2.251   8.717   3.869 -0.6567 -0.0289 -0.6232
 4600SOL     OW18646   0.549   7.958   1.979  0.2813  0.1111 -0.0028
 4600SOL    HW118647   0.520   7.988   2.065 -0.6142 -0.4422 -0.1073
 4600SOL    HW218648   0.468   7.933   1.934  0.7774  0.0592 -0.8765
 4601SOL     OW18649   1.851   8.867   4.149 -0.3550 -0.1250 -0.2446
 4601SOL    HW118650   1.795   8.886   4.224  1.0798 -0.0930  0.8396
 4601SOL    HW218651   1.872   8.774   4.157  1.6304  0.3754  0.6828
 4602SOL     OW18652   2.012   0.297   2.340  0.3055 -0.5210 -0.3865
 4602SOL    HW118653   1.999   0.336   2.426 -2.5778 -1.2457 -0.4266
 4602SOL    HW218654   2.086   0.238   2.351  0.9535  0.5501  1.1803
 4603SOL     OW18655   1.747   8.856   3.884 -0.1652 -0.3242  0.3579
 4603SOL    HW118656   1.813   8.839   3.951  0.8103  0.0195 -0.4953
 4603SOL    HW218657   1.760   8.948   3.860 -0.1230 -0.5936 -0.6958
 4604SOL     OW18658   0.887   7.356   2.744  0.2742  0.1307  1.0333
 4604SOL    HW118659   0.975   7.392   2.735  0.3129 -0.2995 -0.4746
 4604SOL    HW218660   0.832   7.415   2.692  0.1895 -1.4038 -0.6718
 4605SOL     OW18661   8.978   7.760   3.423 -0.0185  0.6191  0.0875
 4605SOL    HW118662   9.018   7.681   3.459  1.2718  0.4699 -1.5911
 4605SOL    HW218663   9.027   7.832   3.464 -0.5900  0.5332  0.9288
 4606SOL     OW18664   1.661   7.389   4.020 -0.4970  0.0590 -0.4932
 4606SOL    HW118665   1.687   7.389   3.928  2.4998 -2.6887  0.2834
 4606SOL    HW218666   1.743   7.397   4.069 -1.9052 -0.0648  1.9754
 4607SOL     OW18667   0.743   7.905   3.484 -0.4023 -0.1284 -0.3412
 4607SOL    HW118668   0.824   7.957   3.487  0.0215 -0.8302  1.1017
 4607SOL    HW218669   0.673   7.967   3.503 -0.0634  0.2406 -0.2974
 4608SOL     OW18670   0.075   8.970   2.900 -0.0452  0.0566  0.2297
 4608SOL    HW118671   0.008   9.029   2.935 -0.4884 -1.3549  1.8114
 4608SOL    HW218672   0.157   9.000   2.941  0.0892  0.9304 -0.6603
 4609SOL     OW18673   1.890   0.276   1.463  0.0115 -0.1088 -0.2885
 4609SOL    HW118674   1.913   0.305   1.551 -1.0729 -1.1481  0.3463
 4609SOL    HW218675   1.863   0.185   1.473  2.1833 -0.9860 -2.0809
 4610SOL     OW18676   9.905   8.423   3.349  0.2173  0.3972  0.1250
 4610SOL    HW118677   9.889   8.511   3.384 -2.4657 -0.9362  2.4362
 4610SOL    HW218678   9.867   8.364   3.414  0.8406 -2.4545 -1.9965
 4611SOL     OW18679   9.772   8.856   3.153  0.6914  0.4477 -0.1979
 4611SOL    HW118680   9.849   8.889   3.200  0.1716  1.4028 -0.0119
 4611SOL    HW218681   9.792   8.763   3.137  1.4842  0.4659  0.6499
 4612SOL     OW18682   1.443   8.768   0.934  0.1350 -0.1477 -0.6144
 4612SOL    HW118683   1.466   8.855   0.967 -0.6396 -0.0542 -0.3188
 4612SOL    HW218684   1.372   8.783   0.872 -2.1565 -0.8697  1.7765
 4613SOL     OW18685   9.060   9.100   3.621  0.0850  0.0028  0.2102
 4613SOL    HW118686   9.108   9.181   3.606  0.7344 -0.1875  1.1646
 4613SOL    HW218687   9.125   9.040   3.657 -0.9949 -0.0382  2.2196
 4614SOL     OW18688   7.755   0.109   1.343  0.3757 -0.0205  0.7840
 4614SOL    HW118689   7.816   0.123   1.271 -3.1775  1.9305 -1.9830
 4614SOL    HW218690   7.730   0.017   1.337 -1.8853  0.7212 -2.2352
 4615SOL     OW18691   1.562   0.431   3.335 -0.4157 -0.0751 -0.0012
 4615SOL    HW118692   1.475   0.424   3.297  1.1124  0.4395 -3.8316
 4615SOL    HW218693   1.586   0.523   3.326  1.0733 -0.4758 -0.4030
 4616SOL     OW18694   0.170   8.548   3.299  0.2558 -0.0946 -0.3650
 4616SOL    HW118695   0.101   8.598   3.255  0.0727 -0.1101 -0.0962
 4616SOL    HW218696   0.154   8.562   3.393  0.3628 -0.4421 -0.2927
 4617SOL     OW18697   9.554   8.371   4.377 -0.3297 -0.0472 -0.1897
 4617SOL    HW118698   9.550   8.467   4.380  1.4407  0.1052 -1.5384
 4617SOL    HW218699   9.559   8.350   4.284 -0.6362 -1.4612  0.0965
 4618SOL     OW18700   1.179   7.600   4.398  0.1677  0.1401 -0.0088
 4618SOL    HW118701   1.141   7.685   4.418 -1.1760 -0.0268 -1.7808
 4618SOL    HW218702   1.274   7.613   4.407 -0.0585  1.6816  0.2099
 4619SOL     OW18703   1.255   0.566   3.056 -0.0939 -0.2479  0.1436
 4619SOL    HW118704   1.295   0.650   3.077  0.4987 -0.8715  1.5629
 4619SOL    HW218705   1.227   0.575   2.965  0.8549  1.1330 -0.0285
 4620SOL     OW18706   2.150   0.151   2.647 -0.1726 -0.0124  0.4432
 4620SOL    HW118707   2.156   0.067   2.600  0.5559  0.4690 -0.3412
 4620SOL    HW218708   2.066   0.187   2.620 -0.2885 -0.2851  0.4311
 4621SOL     OW18709   1.815   8.704   1.856 -0.0055 -0.1959 -0.2853
 4621SOL    HW118710   1.835   8.613   1.876  2.1802  0.3607  0.1810
 4621SOL    HW218711   1.900   8.748   1.856 -1.2392  2.3750  2.1158
 4622SOL     OW18712   0.778   8.489   2.715 -0.1462  0.2483  0.5195
 4622SOL    HW118713   0.784   8.412   2.658 -3.1803  0.2281  0.1577
 4622SOL    HW218714   0.755   8.454   2.801 -0.7375  0.6862  0.5400
 4623SOL     OW18715   9.489   8.939   1.799  0.0420  0.1886  0.4617
 4623SOL    HW118716   9.524   9.015   1.845  1.7353 -1.1455  1.4410
 4623SOL    HW218717   9.531   8.941   1.714 -2.5675  2.2690 -0.8761
 4624SOL     OW18718   0.096   8.276   3.756  0.5859  0.1035  0.3758
 4624SOL    HW118719   0.006   8.305   3.772  1.2626  0.9661  2.8590
 4624SOL    HW218720   0.150   8.347   3.790  2.2267  0.1512 -2.2121
 4625SOL     OW18721   1.102   8.287   4.483 -0.5665  0.2957 -0.8747
 4625SOL    HW118722   1.169   8.327   4.429 -2.3783  2.4734 -1.5659
 4625SOL    HW218723   1.062   8.360   4.531 -1.3468 -1.1563  0.7708
 4626SOL     OW18724   1.914   8.607   4.137  0.3634 -0.0600 -0.3047
 4626SOL    HW118725   1.904   8.549   4.213 -1.8027 -0.1902 -0.6539
 4626SOL    HW218726   1.926   8.548   4.063 -2.0575 -0.1047 -0.6921
 4627SOL     OW18727   1.381   8.035   4.638  0.0256 -0.4924 -0.3656
 4627SOL    HW118728   1.287   8.054   4.641  0.1423 -0.0853  1.4209
 4627SOL    HW218729   1.389   7.948   4.679  0.5135 -0.1297  0.3166
 4628SOL     OW18730   0.692   7.566   2.292  0.5367 -0.2715 -0.5198
 4628SOL    HW118731   0.641   7.647   2.293  0.9552  0.0041 -0.8715
 4628SOL    HW218732   0.656   7.513   2.363  2.4744  1.5928  1.9411
 4629SOL     OW18733   0.905   7.944   2.276  0.1469  0.5112 -0.1949
 4629SOL    HW118734   0.851   8.007   2.229  0.3913  0.4045 -0.6193
 4629SOL    HW218735   0.961   7.906   2.209 -0.5912 -0.7812 -0.0916
 4630SOL     OW18736   0.757   7.170   2.880  0.4439  0.4461 -0.3056
 4630SOL    HW118737   0.725   7.112   2.811  0.3158  0.1287  0.0214
 4630SOL    HW218738   0.792   7.246   2.833  1.3320 -0.2414 -0.7768
 4631SOL     OW18739   1.554   8.651   2.317 -0.3038  0.2883 -0.1009
 4631SOL    HW118740   1.621   8.683   2.256 -0.2679  0.8651  0.2392
 4631SOL    HW218741   1.517   8.731   2.356 -1.6322  0.0044 -0.7655
 4632SOL     OW18742   0.994   7.216   4.314  0.8051  0.2301 -0.1476
 4632SOL    HW118743   0.909   7.251   4.337 -0.4207 -1.2012 -2.2680
 4632SOL    HW218744   1.031   7.279   4.253  0.3389 -0.1610 -0.8440
 4633SOL     OW18745   0.168   6.634   2.843  0.4211  0.2734  0.0147
 4633SOL    HW118746   0.245   6.669   2.798  0.2940 -0.0483 -0.4548
 4633SOL    HW218747   0.097   6.693   2.818  0.2448 -0.2053 -0.6281
 4634SOL     OW18748   1.472   8.088   1.491  0.8456  0.0668  0.1861
 4634SOL    HW118749   1.521   8.087   1.408  0.4383  0.3947 -0.0590
 4634SOL    HW218750   1.464   7.995   1.515  0.7346 -0.0468 -0.2786
 4635SOL     OW18751   0.850   9.940   1.255 -0.0795  0.1216 -0.3209
 4635SOL    HW118752   0.939   9.944   1.290  0.1907  0.5677 -1.0348
 4635SOL    HW218753   0.802  10.008   1.302 -0.1841 -0.4716  0.4409
 4636SOL     OW18754   0.535   8.599   2.583 -0.1908 -0.0702  0.1288
 4636SOL    HW118755   0.614   8.568   2.627 -0.6088  2.1287  2.5426
 4636SOL    HW218756   0.485   8.643   2.652 -3.1970 -0.8031 -1.5176
 4637SOL     OW18757   1.607   7.965   2.802 -0.2583 -0.5597  0.1845
 4637SOL    HW118758   1.671   7.991   2.736 -0.6497 -0.8118 -0.3063
 4637SOL    HW218759   1.535   7.927   2.751 -0.6475 -0.5854  0.7477
 4638SOL     OW18760   0.409   8.303   3.663 -0.0857 -0.0918 -0.0977
 4638SOL    HW118761   0.330   8.336   3.708  0.2497  0.2516  0.2422
 4638SOL    HW218762   0.393   8.323   3.571 -0.5852 -0.4032 -0.0813
 4639SOL     OW18763   1.104   9.122   3.841 -0.1409  0.5099  0.5663
 4639SOL    HW118764   1.158   9.186   3.795  1.2754 -0.9067  0.1893
 4639SOL    HW218765   1.122   9.137   3.933  0.6236  0.3175  0.4563
 4640SOL     OW18766   9.709   8.812   2.792 -0.1787  0.2876 -0.1373
 4640SOL    HW118767   9.678   8.756   2.863  1.8921 -0.7611 -0.0357
 4640SOL    HW218768   9.643   8.881   2.786 -2.6259 -1.9705 -0.0784
 4641SOL     OW18769   9.725   8.406   2.576 -0.0439 -0.5276  0.0035
 4641SOL    HW118770   9.678   8.426   2.657  1.2657  0.5662  0.5276
 4641SOL    HW218771   9.784   8.335   2.599 -1.3152 -1.8023 -0.6163
 4642SOL     OW18772   3.683   8.059   1.726 -0.4161  0.7954 -0.2543
 4642SOL    HW118773   3.673   8.126   1.658  0.9871 -0.3973 -1.6848
 4642SOL    HW218774   3.776   8.061   1.747 -0.2718 -1.0268 -0.6582
 4643SOL     OW18775   8.606   0.797   2.573 -0.5039 -0.4313  0.4331
 4643SOL    HW118776   8.608   0.892   2.576 -0.0423 -0.4137 -0.3360
 4643SOL    HW218777   8.691   0.772   2.536 -0.8181 -1.1174  0.1673
 4644SOL     OW18778   1.565   8.196   4.403 -0.2488  0.1803 -0.4810
 4644SOL    HW118779   1.552   8.276   4.353 -0.2431  0.2356 -0.3948
 4644SOL    HW218780   1.516   8.129   4.355 -1.2041  0.4727  0.0585
 4645SOL     OW18781   9.586   8.514   2.364 -0.5397  0.1464 -0.7375
 4645SOL    HW118782   9.643   8.464   2.423 -0.3296  1.1593 -0.0776
 4645SOL    HW218783   9.511   8.456   2.349 -0.3550 -0.3277  0.1246
 4646SOL     OW18784   1.595   8.922   3.185 -0.1847  0.4423 -0.3440
 4646SOL    HW118785   1.599   8.937   3.280 -0.2306 -1.0746 -0.0856
 4646SOL    HW218786   1.501   8.921   3.165 -0.2543 -1.0405 -0.0699
 4647SOL     OW18787   2.400   5.735   4.875  0.5423 -0.8943  0.4948
 4647SOL    HW118788   2.477   5.691   4.911  0.1891  0.7067  3.4072
 4647SOL    HW218789   2.431   5.821   4.847  0.1562 -0.9214 -0.0303
 4648SOL     OW18790   1.535   8.330   3.257 -0.0068 -0.1871 -0.2671
 4648SOL    HW118791   1.569   8.281   3.332 -0.0986 -0.8378 -0.6477
 4648SOL    HW218792   1.548   8.272   3.182 -0.3811  0.2559 -0.6804
 4649SOL     OW18793   1.763   7.832   3.010  0.0527 -0.4441 -0.0474
 4649SOL    HW118794   1.721   7.753   3.045 -0.4105 -0.2189 -0.0985
 4649SOL    HW218795   1.707   7.859   2.938 -0.6438  0.8203  0.9380
 4650SOL     OW18796   0.003   0.341   3.753  0.5124  0.6144 -0.1861
 4650SOL    HW118797   0.070   0.306   3.811 -0.0826 -2.6734 -1.3472
 4650SOL    HW218798   0.052   0.374   3.677  0.9527  0.0580 -0.1491
 4651SOL     OW18799   2.030   8.898   3.569 -0.0108 -0.0107 -0.1910
 4651SOL    HW118800   1.962   8.912   3.503  0.0850  0.1982 -0.2472
 4651SOL    HW218801   2.040   8.803   3.573 -2.0472 -0.1867  1.6121
 4652SOL     OW18802   1.861   7.429   2.124  0.0216 -0.9719  0.2201
 4652SOL    HW118803   1.837   7.427   2.031 -0.5270  1.5033  0.3029
 4652SOL    HW218804   1.938   7.485   2.128 -0.3216 -0.5672  1.3512
 4653SOL     OW18805   9.497   8.720   3.605 -0.4366  0.1697  0.1385
 4653SOL    HW118806   9.501   8.806   3.563  0.3423 -0.0850 -0.3409
 4653SOL    HW218807   9.545   8.663   3.545 -0.9359 -0.5907  0.4643
 4654SOL     OW18808   1.577   9.527   9.990  0.5813  0.6868  0.0988
 4654SOL    HW118809   1.551   9.453  10.045  2.0901 -0.9085 -1.2753
 4654SOL    HW218810   1.498   9.549   9.941  0.2760 -0.4384  0.0627
 4655SOL     OW18811   9.171   9.012   5.472  0.1818  0.1596  0.8785
 4655SOL    HW118812   9.087   8.987   5.434 -0.0013  0.6505  0.9527
 4655SOL    HW218813   9.176   8.962   5.554  0.1489 -0.1781  0.6780
 4656SOL     OW18814   9.875   8.434   2.900  0.6250  0.2273  0.2121
 4656SOL    HW118815   9.920   8.464   2.821  1.1139  0.6060  0.6277
 4656SOL    HW218816   9.782   8.444   2.880  0.6430 -2.1650 -1.3025
 4657SOL     OW18817   0.906   8.725   1.400 -0.0648  0.2487  0.1833
 4657SOL    HW118818   0.994   8.689   1.395 -0.2403 -0.0703 -0.6795
 4657SOL    HW218819   0.885   8.724   1.494  2.5718  4.5394  0.9513
 4658SOL     OW18820   2.493   9.241   1.987 -0.1898 -0.2845  0.0424
 4658SOL    HW118821   2.484   9.332   2.015 -0.9477 -0.3256 -0.0611
 4658SOL    HW218822   2.577   9.239   1.940 -0.6775  0.6059 -0.8975
 4659SOL     OW18823   2.147   8.359   2.718  0.5301  0.2000  0.1304
 4659SOL    HW118824   2.107   8.276   2.743  0.8177  0.2998  0.9176
 4659SOL    HW218825   2.239   8.350   2.743  0.4766  0.9110  0.6065
 4660SOL     OW18826   2.471   6.775   2.960  0.3949  0.1389  0.1704
 4660SOL    HW118827   2.499   6.812   2.876 -0.9542  2.2830  0.6351
 4660SOL    HW218828   2.376   6.778   2.956  0.3318  1.0426  2.1034
 4661SOL     OW18829   9.979   8.108   4.123  0.5018  0.6413  0.2480
 4661SOL    HW118830   9.913   8.108   4.054  0.1754 -0.8040  0.5538
 4661SOL    HW218831  10.020   8.194   4.116 -0.5501  1.0794 -0.7627
 4662SOL     OW18832   9.815   8.298   3.596  0.7890 -0.0308  0.3713
 4662SOL    HW118833   9.836   8.336   3.681  1.8999  1.7414 -0.6786
 4662SOL    HW218834   9.769   8.216   3.617 -2.2380  2.1474  2.6857
 4663SOL     OW18835   0.286   9.307   3.280  0.0769  0.1630 -0.1396
 4663SOL    HW118836   0.281   9.318   3.375 -1.9469 -1.5155 -0.0125
 4663SOL    HW218837   0.233   9.379   3.245  1.9804  1.6298 -0.0883
 4664SOL     OW18838   0.145   8.494   2.508 -0.1566  0.1224  0.3220
 4664SOL    HW118839   0.217   8.441   2.542  0.3886  1.1502  0.8284
 4664SOL    HW218840   0.075   8.485   2.572  1.2480  2.9060  2.3595
 4665SOL     OW18841   2.270   7.094   2.673  0.0200  0.3769 -0.3966
 4665SOL    HW118842   2.208   7.022   2.667  0.4233  0.1648 -2.4147
 4665SOL    HW218843   2.327   7.083   2.597  1.9649  1.0871  0.9173
 4666SOL     OW18844   0.414   7.344   2.325 -0.0928  0.5295 -0.0411
 4666SOL    HW118845   0.473   7.268   2.326 -2.7649 -1.6736 -1.2028
 4666SOL    HW218846   0.392   7.356   2.232 -1.6579  1.1205  0.3907
 4667SOL     OW18847   2.762   8.690   3.076  0.4500  0.0546 -0.3040
 4667SOL    HW118848   2.830   8.623   3.071  0.1569 -0.4759  2.2481
 4667SOL    HW218849   2.785   8.742   3.153 -1.4221  0.5431 -0.0580
 4668SOL     OW18850   2.091   7.187   2.274 -0.2020  0.6319  0.1629
 4668SOL    HW118851   2.186   7.195   2.275 -0.2211  0.8032  0.9129
 4668SOL    HW218852   2.060   7.254   2.335 -0.7422 -0.0500  0.6588
 4669SOL     OW18853   0.855   8.930   0.995 -0.7984  0.1367  1.1265
 4669SOL    HW118854   0.903   8.962   0.919 -1.2773 -0.7775  0.4248
 4669SOL    HW218855   0.767   8.967   0.984 -0.7787  0.2674  1.4078
 4670SOL     OW18856   1.512   8.342   2.132 -0.1246 -0.1296  0.3953
 4670SOL    HW118857   1.530   8.414   2.192 -2.7189  0.6360  0.3335
 4670SOL    HW218858   1.429   8.305   2.163  1.2226 -3.2001  0.4979
 4671SOL     OW18859   2.546   0.108   2.899  0.5451 -0.3760  0.0000
 4671SOL    HW118860   2.621   0.135   2.846  0.3458  1.8811  0.7900
 4671SOL    HW218861   2.488   0.063   2.838  1.3632  0.1775 -1.2065
 4672SOL     OW18862   1.415   0.033   1.726  0.8475  0.4855 -0.4934
 4672SOL    HW118863   1.330   0.042   1.683 -1.1049 -2.0141  2.6604
 4672SOL    HW218864   1.426   0.114   1.775 -0.5288  0.1114  0.4486
 4673SOL     OW18865   1.623   8.576   3.927  0.1135  0.0289 -0.3763
 4673SOL    HW118866   1.607   8.588   4.020 -0.8337  0.6105 -0.6024
 4673SOL    HW218867   1.681   8.649   3.903  1.0596 -0.6149 -0.0760
 4674SOL     OW18868   1.381   8.138   3.493  0.2201 -0.1159  0.0167
 4674SOL    HW118869   1.349   8.152   3.582  1.5541  0.0948  0.4717
 4674SOL    HW218870   1.476   8.145   3.500  0.2393  1.9651 -1.7819
 4675SOL     OW18871   1.191   8.346   3.124 -0.2424 -0.4136 -0.8451
 4675SOL    HW118872   1.268   8.353   3.068 -0.5392 -1.3202 -1.3923
 4675SOL    HW218873   1.118   8.337   3.062 -0.9174  1.4867 -0.3622
 4676SOL     OW18874   1.071   7.789   2.129 -0.5561  0.1384 -0.1357
 4676SOL    HW118875   1.120   7.775   2.048 -0.6787  1.2920 -0.4283
 4676SOL    HW218876   1.139   7.803   2.196 -0.4671  1.0093 -0.3999
 4677SOL     OW18877   0.970   8.994   4.301  0.3644  0.4435 -0.2590
 4677SOL    HW118878   0.905   8.991   4.230 -0.1062 -0.2875  0.1969
 4677SOL    HW218879   0.959   8.911   4.347  2.1227 -0.0064 -0.6131
 4678SOL     OW18880   0.700   7.948   1.514  0.7297  0.1010 -0.2914
 4678SOL    HW118881   0.636   7.993   1.568  0.5989 -0.1899 -0.2069
 4678SOL    HW218882   0.762   8.017   1.489  0.9873  0.1638  0.5150
 4679SOL     OW18883   0.485   9.063   2.715  0.2907  0.4194  0.5802
 4679SOL    HW118884   0.501   9.087   2.807 -1.0208  0.6637  0.7514
 4679SOL    HW218885   0.443   9.139   2.677 -0.7898 -0.3301  0.2432
 4680SOL     OW18886   1.123   7.763   2.497  0.2165  0.0345 -0.2809
 4680SOL    HW118887   1.089   7.763   2.586  0.1920 -2.0575 -0.2693
 4680SOL    HW218888   1.049   7.793   2.443 -0.4257 -0.7231  0.1741
 4681SOL     OW18889   0.021   9.262   2.256  0.5548  0.1630  0.0375
 4681SOL    HW118890   0.097   9.296   2.209  1.6283  0.7972  2.1580
 4681SOL    HW218891   0.042   9.276   2.348 -1.7505 -0.4996  0.6936
 4682SOL     OW18892   1.609   7.980   2.462  0.2239  0.0973 -0.1528
 4682SOL    HW118893   1.527   7.961   2.508  1.0795 -0.3366  1.2458
 4682SOL    HW218894   1.626   8.073   2.480  0.5783 -0.0819  0.4706
 4683SOL     OW18895   0.074   8.373   4.074  0.6485  0.1399 -0.3339
 4683SOL    HW118896   0.119   8.389   3.992  0.3610  0.5071 -0.4232
 4683SOL    HW218897  -0.019   8.384   4.053  0.3876 -2.3305 -0.5508
 4684SOL     OW18898   1.581   9.825   2.727  0.4691 -0.0284  0.5147
 4684SOL    HW118899   1.626   9.894   2.775  2.5264  0.3176 -1.7974
 4684SOL    HW218900   1.629   9.745   2.749  0.3332 -0.1391  0.4104
 4685SOL     OW18901   3.204   7.823   2.833 -0.8804  0.1369 -0.2762
 4685SOL    HW118902   3.251   7.807   2.752  1.0737 -0.1489  0.8761
 4685SOL    HW218903   3.183   7.916   2.830  0.1275  0.3617 -0.6366
 4686SOL     OW18904   1.689   7.750   1.783 -0.5914  0.0971 -0.4521
 4686SOL    HW118905   1.748   7.798   1.841 -0.5679  0.4527 -0.7670
 4686SOL    HW218906   1.662   7.815   1.717 -1.5594  0.0197 -0.1452
 4687SOL     OW18907   9.869   9.174   4.146 -0.0985 -0.0322 -0.2669
 4687SOL    HW118908   9.832   9.253   4.183  0.0388 -0.4945  0.8786
 4687SOL    HW218909   9.934   9.145   4.210 -0.4022 -1.2670 -0.4989
 4688SOL     OW18910   2.078   8.421   1.906 -0.5411 -0.2939 -0.4796
 4688SOL    HW118911   2.123   8.418   1.821  0.2819  1.6096 -0.1478
 4688SOL    HW218912   2.142   8.463   1.965 -2.2173  1.1441  0.3527
 4689SOL     OW18913   1.403   7.989   4.326 -0.3356 -0.2575 -0.3414
 4689SOL    HW118914   1.362   8.061   4.279 -1.4847 -0.8134 -0.2192
 4689SOL    HW218915   1.348   7.977   4.403  0.5626 -0.4565  0.2729
 4690SOL     OW18916   1.289   7.492   3.229  0.1786  0.0088 -0.3630
 4690SOL    HW118917   1.280   7.575   3.275 -1.5161  0.3073 -1.1823
 4690SOL    HW218918   1.317   7.517   3.140 -0.4722 -0.2808 -0.6528
 4691SOL     OW18919   9.488   6.285   3.466 -0.1878 -0.0176 -0.0030
 4691SOL    HW118920   9.521   6.369   3.435 -0.2177  0.7677  2.0268
 4691SOL    HW218921   9.542   6.220   3.421 -0.8115  1.0148 -2.3659
 4692SOL     OW18922   0.525   7.666   3.208 -0.2709 -0.5155 -0.7816
 4692SOL    HW118923   0.604   7.636   3.253  0.0510 -0.3476 -1.2318
 4692SOL    HW218924   0.459   7.671   3.277 -0.3472 -2.3020 -0.6978
 4693SOL     OW18925   1.821   8.359   3.585 -0.1145 -0.4770  0.2249
 4693SOL    HW118926   1.884   8.341   3.656 -1.8784  2.0154  2.5211
 4693SOL    HW218927   1.811   8.454   3.586 -1.9156 -0.6210 -1.8891
 4694SOL     OW18928   0.659   8.923   2.944 -0.3575  0.1087 -0.2971
 4694SOL    HW118929   0.694   8.953   3.028 -1.6741  0.4301  0.1468
 4694SOL    HW218930   0.590   8.985   2.924 -1.1617 -0.9408 -0.8052
 4695SOL     OW18931   1.493   7.927   5.209 -0.2850  0.1039 -0.2076
 4695SOL    HW118932   1.415   7.874   5.228 -0.6680  0.0788 -1.7495
 4695SOL    HW218933   1.474   7.966   5.123 -0.0146  2.7331  0.8878
 4696SOL     OW18934   0.384   7.979   2.707  0.2450 -0.0580  0.3833
 4696SOL    HW118935   0.337   7.945   2.631  1.1800  0.2916 -0.3749
 4696SOL    HW218936   0.319   8.029   2.755 -0.0408  0.9284 -0.9756
 4697SOL     OW18937   2.184   9.514   1.448  0.0251  0.0059  0.1192
 4697SOL    HW118938   2.209   9.585   1.389  0.0303 -0.3021 -0.2578
 4697SOL    HW218939   2.191   9.551   1.536  1.0177  0.1707 -0.0239
 4698SOL     OW18940   1.525   8.480   2.512  0.0268 -0.0151  0.1860
 4698SOL    HW118941   1.549   8.541   2.442  1.6039  1.1620  1.6939
 4698SOL    HW218942   1.442   8.513   2.545 -1.1156 -1.0193 -1.5981
 4699SOL     OW18943   1.398   7.740   3.332  0.4744 -0.4195 -0.1289
 4699SOL    HW118944   1.467   7.806   3.339  0.7808 -0.7780  0.3041
 4699SOL    HW218945   1.316   7.789   3.343  0.6135  0.1304 -1.5149
 4700SOL     OW18946   9.807   5.993   4.564  0.5739  0.3207 -0.1276
 4700SOL    HW118947   9.814   6.012   4.658  1.6247 -0.1526 -0.1026
 4700SOL    HW218948   9.754   5.913   4.560  0.3564  0.4532  0.0447
 4701SOL     OW18949   1.628   9.001   5.692  0.0161  0.1484  0.5063
 4701SOL    HW118950   1.581   8.972   5.613 -1.6889  1.2027  1.1140
 4701SOL    HW218951   1.648   9.093   5.675  1.1012 -0.0585  0.6342
 4702SOL     OW18952   0.852   9.021   4.736 -0.1801  0.5079  0.5310
 4702SOL    HW118953   0.820   8.952   4.676 -0.4790 -1.2438  2.6296
 4702SOL    HW218954   0.932   9.052   4.695 -0.2321 -0.8332 -0.6706
 4703SOL     OW18955   9.959   7.732   3.474  0.2431  0.4773  0.0540
 4703SOL    HW118956  10.014   7.804   3.444 -0.0870  0.6432 -0.1522
 4703SOL    HW218957   9.926   7.762   3.559  1.0350  0.0831  0.5068
 4704SOL     OW18958   2.590   7.956   2.283  0.3170 -0.0344 -0.1043
 4704SOL    HW118959   2.577   7.983   2.374 -0.6760  0.0353 -0.2552
 4704SOL    HW218960   2.683   7.971   2.266  0.8541 -1.5426  1.3793
 4705SOL     OW18961   1.160   7.417   1.455  0.5195 -0.6093  0.0374
 4705SOL    HW118962   1.084   7.378   1.496 -0.6944  0.6513 -0.9785
 4705SOL    HW218963   1.189   7.484   1.517  0.9678 -1.2522  0.5345
 4706SOL     OW18964   0.976   9.552   2.704  0.1550 -0.7354 -0.3425
 4706SOL    HW118965   0.896   9.541   2.652 -0.4733  2.3687 -0.1734
 4706SOL    HW218966   1.045   9.511   2.652 -1.1230 -1.1521 -1.7366
 4707SOL     OW18967   0.942   8.785   3.451  0.1395  0.3888  0.2112
 4707SOL    HW118968   0.868   8.845   3.445  0.7525  1.2635  1.1024
 4707SOL    HW218969   1.016   8.841   3.477  0.8783 -0.6341  0.3624
 4708SOL     OW18970   1.411   7.362   4.128  0.0596  0.7317 -0.1081
 4708SOL    HW118971   1.503   7.342   4.111  0.2361  0.9081  0.6637
 4708SOL    HW218972   1.405   7.457   4.120 -0.4563  0.5449 -2.1397
 4709SOL     OW18973   2.290   7.578   3.230  0.0768  0.1151  0.6888
 4709SOL    HW118974   2.287   7.634   3.307  1.2546 -0.9116  1.5010
 4709SOL    HW218975   2.199   7.567   3.204 -0.2763  1.0280  1.5142
 4710SOL     OW18976   1.369   8.455   4.100 -0.0406 -0.0531  0.1786
 4710SOL    HW118977   1.318   8.380   4.070  0.8102 -1.4423  2.0834
 4710SOL    HW218978   1.379   8.510   4.022  0.0129 -2.3063 -1.4741
 4711SOL     OW18979   9.531   9.064   2.067  0.3358  0.2596 -0.4787
 4711SOL    HW118980   9.559   9.057   2.159  1.4134 -0.7386 -0.8780
 4711SOL    HW218981   9.607   9.099   2.022 -1.1685  3.6882 -0.5096
 4712SOL     OW18982   8.491   8.776   1.497 -0.1120  0.1637 -0.3456
 4712SOL    HW118983   8.529   8.800   1.582 -0.8514  0.2511 -0.0397
 4712SOL    HW218984   8.399   8.760   1.515  0.3729 -3.1752 -0.4980
 4713SOL     OW18985   1.184   8.780   2.341  0.3195 -0.3636 -0.0784
 4713SOL    HW118986   1.098   8.812   2.368 -0.0782 -0.2690 -1.4333
 4713SOL    HW218987   1.223   8.746   2.421 -0.3082  1.1141  0.8844
 4714SOL     OW18988   1.375   8.994   4.023  0.3602  0.5568  0.1370
 4714SOL    HW118989   1.325   9.050   4.082 -0.1269  0.5905 -0.2980
 4714SOL    HW218990   1.399   9.052   3.950  0.8691  0.4938  0.2509
 4715SOL     OW18991   1.475   7.969   4.018  0.1219 -0.3695 -0.2841
 4715SOL    HW118992   1.428   7.913   4.079 -1.7989 -0.3142 -1.6949
 4715SOL    HW218993   1.559   7.925   4.006 -0.0823 -1.2001  1.1569
 4716SOL     OW18994   0.903   8.363   3.302 -0.3029 -0.0501 -0.3495
 4716SOL    HW118995   0.868   8.428   3.243 -0.9315 -1.4399 -1.5354
 4716SOL    HW218996   0.841   8.360   3.375 -0.5968  0.2432 -0.5900
 4717SOL     OW18997   1.629   9.723   3.741 -0.1119  0.1561  0.7968
 4717SOL    HW118998   1.595   9.759   3.659  3.6426 -0.9586 -1.3835
 4717SOL    HW218999   1.581   9.642   3.754  1.1466 -1.0645 -1.8571
 4718SOL     OW19000   9.637   7.782   2.624  0.6205 -0.1634  0.4999
 4718SOL    HW119001   9.680   7.815   2.545 -1.0091 -0.7347 -0.6480
 4718SOL    HW219002   9.607   7.861   2.669 -0.7316  0.0708 -0.7795
 4719SOL     OW19003   2.649   7.695   2.469  0.0870 -0.7588  0.2136
 4719SOL    HW119004   2.717   7.761   2.481 -0.7264  0.0951  0.1846
 4719SOL    HW219005   2.673   7.625   2.530  0.1195  0.2430  1.3793
 4720SOL     OW19006   9.843   9.241   3.254 -0.0503 -0.1510  0.1665
 4720SOL    HW119007   9.900   9.317   3.269 -0.7506  0.5162 -0.5032
 4720SOL    HW219008   9.864   9.181   3.324  0.8393  0.4822  0.4477
 4721SOL     OW19009   0.814   9.515   2.484  0.2059  0.5454 -0.6975
 4721SOL    HW119010   0.880   9.533   2.417  1.8296  0.1659  0.7655
 4721SOL    HW219011   0.731   9.523   2.438  1.2405  1.5424 -2.4720
 4722SOL     OW19012   0.990   0.393   3.784 -0.2987  0.3976 -0.4405
 4722SOL    HW119013   0.899   0.402   3.812  0.6146  3.2354  1.9264
 4722SOL    HW219014   1.039   0.375   3.864  1.1013 -2.5411 -1.8747
 4723SOL     OW19015   1.002   9.758   3.354  0.4101  0.7176 -0.0440
 4723SOL    HW119016   0.953   9.741   3.274 -1.1213  0.3207  0.9710
 4723SOL    HW219017   1.030   9.849   3.346 -1.4616  1.2950 -0.1094
 4724SOL     OW19018   0.864   9.169   2.464 -0.5923  0.1716  0.3527
 4724SOL    HW119019   0.922   9.228   2.416 -0.1162  0.6714  1.5520
 4724SOL    HW219020   0.783   9.169   2.412  0.4407 -0.5063 -1.3160
 4725SOL     OW19021   0.917   8.396   1.427  0.0256 -0.3830 -0.2187
 4725SOL    HW119022   0.915   8.478   1.477  0.6577 -1.5985  1.8538
 4725SOL    HW219023   1.007   8.365   1.436 -0.5389 -1.9801  0.1925
 4726SOL     OW19024   1.287   8.963   3.157  0.5956  0.1108 -0.2895
 4726SOL    HW119025   1.226   9.025   3.197 -0.0234 -0.2607 -0.6567
 4726SOL    HW219026   1.318   9.007   3.078 -0.6547 -0.4686 -1.1187
 4727SOL     OW19027   1.049   9.313   1.521 -0.4660  0.2429 -0.0886
 4727SOL    HW119028   0.992   9.302   1.444 -0.0622  0.2287 -0.3873
 4727SOL    HW219029   1.086   9.401   1.511  2.9415 -1.3276 -2.1995
 4728SOL     OW19030   9.754   9.177   1.941 -0.2999  0.0763 -0.1592
 4728SOL    HW119031   9.727   9.262   1.907  0.8107  0.5565  0.1408
 4728SOL    HW219032   9.836   9.157   1.896 -2.2579 -2.4831 -2.8292
 4729SOL     OW19033   0.929   9.482   3.308 -0.1212 -0.1202  0.2202
 4729SOL    HW119034   0.877   9.429   3.247 -0.0497 -0.7018  0.6515
 4729SOL    HW219035   0.865   9.529   3.361 -0.1977 -0.2687  0.2589
 4730SOL     OW19036   1.145   8.047   1.660 -0.0664  0.2082  0.0325
 4730SOL    HW119037   1.088   7.977   1.629 -0.3691  0.5512 -0.1805
 4730SOL    HW219038   1.120   8.059   1.752  0.4233 -0.3974  0.2513
 4731SOL     OW19039   1.824   9.098   0.757  0.3817 -0.0635 -0.0874
 4731SOL    HW119040   1.854   9.155   0.687  0.7519 -0.8381 -0.5717
 4731SOL    HW219041   1.859   9.138   0.837  0.6570  0.3700 -0.4223
 4732SOL     OW19042   1.063   8.163   2.747 -0.3253 -0.3639  0.1472
 4732SOL    HW119043   0.991   8.122   2.698 -1.8415  0.5570  1.5373
 4732SOL    HW219044   1.020   8.206   2.821  1.8637 -1.3036  2.0216
 4733SOL     OW19045   0.994   9.199   3.609  0.2463 -0.0985  0.1489
 4733SOL    HW119046   1.023   9.289   3.626  2.0162 -0.4800 -0.7574
 4733SOL    HW219047   0.989   9.159   3.696 -1.4950  1.1499  0.6348
 4734SOL     OW19048   1.876   8.361   2.812 -0.3729  0.2252 -0.1648
 4734SOL    HW119049   1.948   8.415   2.779 -0.5583 -0.4151 -1.6372
 4734SOL    HW219050   1.911   8.322   2.893  0.0283  1.9069  0.4949
 4735SOL     OW19051   3.196   6.495   3.978  0.0922  0.5546  0.2097
 4735SOL    HW119052   3.108   6.463   3.960 -0.0332  1.3564 -0.6261
 4735SOL    HW219053   3.192   6.589   3.960  1.2751  0.4917 -0.4458
 4736SOL     OW19054   3.164   8.231   3.931  0.6724 -0.1140  0.1552
 4736SOL    HW119055   3.099   8.162   3.917  0.0477  0.5361 -0.2208
 4736SOL    HW219056   3.125   8.308   3.890  1.0598  0.6294  1.1701
 4737SOL     OW19057   1.470   8.486   1.453  0.3876 -0.4650  0.0467
 4737SOL    HW119058   1.491   8.579   1.467  1.0612 -0.7074  0.6861
 4737SOL    HW219059   1.498   8.443   1.534  0.7018 -1.3310 -0.5220
 4738SOL     OW19060   1.862   7.176   3.732 -0.0898 -0.2533 -0.2268
 4738SOL    HW119061   1.770   7.172   3.758 -0.0610  0.0478 -0.0669
 4738SOL    HW219062   1.875   7.100   3.676 -0.1201 -0.9996  0.7632
 4739SOL     OW19063   0.402   6.690   1.828 -0.3051 -0.3260 -0.1621
 4739SOL    HW119064   0.418   6.698   1.734  1.5517  0.6600  0.2106
 4739SOL    HW219065   0.314   6.725   1.840  0.0044  0.9033 -1.3353
 4740SOL     OW19066   1.133   9.557   1.495  0.2557  0.1652  0.1287
 4740SOL    HW119067   1.069   9.604   1.441  0.6180  2.1197  1.3515
 4740SOL    HW219068   1.218   9.585   1.462  0.4803 -0.3747  0.2462
 4741SOL     OW19069   0.817   8.581   3.610  0.4736  0.5829 -0.0909
 4741SOL    HW119070   0.866   8.633   3.546  0.7961  0.3303 -0.0524
 4741SOL    HW219071   0.867   8.499   3.617 -0.8207 -0.3274 -1.2316
 4742SOL     OW19072   1.921   8.686   3.046  0.1703 -0.1974  0.0712
 4742SOL    HW119073   1.878   8.624   3.104  0.9227  0.6114  1.5420
 4742SOL    HW219074   1.905   8.653   2.958 -3.8821  0.3716  0.5057
 4743SOL     OW19075   0.815   9.078   2.116 -0.0966  0.1323 -0.0220
 4743SOL    HW119076   0.815   8.994   2.070  0.2940 -0.6650  1.4001
 4743SOL    HW219077   0.741   9.073   2.175  0.0955  0.6881  0.2684
 4744SOL     OW19078   0.833   7.666   2.689 -0.4083  0.1166  0.0382
 4744SOL    HW119079   0.899   7.721   2.731 -0.8821  0.1301  0.7753
 4744SOL    HW219080   0.815   7.710   2.606 -0.1548  0.6087  0.2394
 4745SOL     OW19081   1.956   7.749   3.883 -0.8799 -0.6236  0.5089
 4745SOL    HW119082   1.864   7.771   3.897 -1.2390 -1.5379 -0.3357
 4745SOL    HW219083   2.003   7.829   3.902 -1.9575  0.1788 -0.1487
 4746SOL     OW19084   2.446   8.422   3.610  0.4878 -0.2354 -0.6445
 4746SOL    HW119085   2.429   8.515   3.599  0.8070 -0.0810  0.1677
 4746SOL    HW219086   2.360   8.380   3.604  0.3484  0.1030 -1.0202
 4747SOL     OW19087   2.284   9.746   0.867 -0.5380  0.1263 -0.3463
 4747SOL    HW119088   2.349   9.712   0.807 -0.4604  0.9947 -0.7672
 4747SOL    HW219089   2.256   9.829   0.827 -0.2193  0.8942  0.9866
 4748SOL     OW19090   1.198   8.071   3.726 -0.1200  0.2183 -0.0635
 4748SOL    HW119091   1.194   7.984   3.687 -0.7485  1.0937 -2.0211
 4748SOL    HW219092   1.107   8.096   3.740  0.0901  0.0466  1.7131
 4749SOL     OW19093   1.884   9.224   3.331  0.0314 -0.1270  0.2296
 4749SOL    HW119094   1.932   9.253   3.408 -0.9876 -0.2516  0.9154
 4749SOL    HW219095   1.801   9.272   3.335 -0.1205 -0.3088 -0.6567
 4750SOL     OW19096   1.593   8.642   4.200 -0.0756 -0.0899  0.0318
 4750SOL    HW119097   1.578   8.735   4.218 -0.7538 -0.3264  0.6957
 4750SOL    HW219098   1.507   8.609   4.172  0.0142 -0.6710  0.4448
 4751SOL     OW19099   0.501   8.339   1.954 -0.2442 -0.2659 -0.2816
 4751SOL    HW119100   0.416   8.380   1.972  0.1319 -0.4072  2.0656
 4751SOL    HW219101   0.488   8.247   1.974  0.2877 -0.4030 -0.5651
 4752SOL     OW19102   0.584   8.117   3.522  0.2198 -0.2201  0.1418
 4752SOL    HW119103   0.509   8.139   3.577  0.0909 -0.0407 -0.1010
 4752SOL    HW219104   0.636   8.197   3.520 -0.4837  0.2214 -1.1166
 4753SOL     OW19105   2.050   9.223   3.754  0.3859 -0.2392  0.1369
 4753SOL    HW119106   2.073   9.296   3.811 -0.6638 -0.2109  0.5454
 4753SOL    HW219107   2.023   9.264   3.672 -1.2751 -0.0775  0.7317
 4754SOL     OW19108   1.610   7.185   4.371  0.0904  0.1185  0.6457
 4754SOL    HW119109   1.553   7.141   4.307 -0.2210 -0.0739  1.0533
 4754SOL    HW219110   1.673   7.233   4.317 -0.4385  0.3125  0.1847
 4755SOL     OW19111   0.244   9.739   2.314  0.1617  0.4249 -1.0873
 4755SOL    HW119112   0.246   9.656   2.265 -1.8087 -0.0767 -0.3827
 4755SOL    HW219113   0.177   9.791   2.269  0.2336  0.9907 -0.5418
 4756SOL     OW19114   2.791   9.098   4.157 -0.5566  0.8355  0.3343
 4756SOL    HW119115   2.819   9.037   4.089 -0.5188  2.1365 -0.8518
 4756SOL    HW219116   2.700   9.074   4.176 -0.8468  0.9995 -0.8006
 4757SOL     OW19117   1.056   8.896   2.740 -0.8997  0.3143  0.6421
 4757SOL    HW119118   1.036   8.805   2.718 -0.4918 -0.1730  2.2144
 4757SOL    HW219119   0.992   8.919   2.807  0.0600  0.6442  1.4471
 4758SOL     OW19120   0.012   7.756   1.604 -0.5079  0.0694 -0.3169
 4758SOL    HW119121   0.024   7.787   1.694 -0.4581 -2.5011  0.6293
 4758SOL    HW219122  -0.040   7.675   1.614 -0.0411 -0.5329 -2.5544
 4759SOL     OW19123   1.012   8.632   2.640 -0.2684 -0.0900  0.5446
 4759SOL    HW119124   0.932   8.586   2.663 -0.3954 -0.0570  0.1789
 4759SOL    HW219125   1.010   8.637   2.544 -0.4022  0.9296  0.5911
 4760SOL     OW19126   2.259   8.538   3.012  0.4337 -0.0606  0.2664
 4760SOL    HW119127   2.178   8.589   3.020 -0.7896 -1.6575 -1.6836
 4760SOL    HW219128   2.298   8.568   2.930  1.4890  0.1933  0.8476
 4761SOL     OW19129   0.090   0.022   2.976  0.0597  0.2074 -0.2439
 4761SOL    HW119130   0.099   0.040   3.069  1.6562 -1.2132 -0.0931
 4761SOL    HW219131   0.035  -0.056   2.972 -0.0261  0.2800 -0.4872
 4762SOL     OW19132   0.415   8.583   3.174 -0.0336  0.6288  0.0785
 4762SOL    HW119133   0.417   8.589   3.078 -0.1198 -1.3649 -0.0647
 4762SOL    HW219134   0.322   8.575   3.195 -0.0119  1.0404  0.3286
 4763SOL     OW19135   0.445   9.963   2.277 -0.6453 -0.5702  0.1067
 4763SOL    HW119136   0.374   9.899   2.281 -1.4494  0.3918  1.6247
 4763SOL    HW219137   0.521   9.912   2.247 -2.1852 -1.3675 -2.6612
 4764SOL     OW19138   1.640   9.337   3.337 -0.5152  0.0524  0.9866
 4764SOL    HW119139   1.651   9.411   3.396  1.1468  1.8522 -1.5121
 4764SOL    HW219140   1.576   9.366   3.272  1.0260 -0.2190 -0.6929
 4765SOL     OW19141   0.840   6.887   0.449  0.1689 -0.2436 -0.0348
 4765SOL    HW119142   0.771   6.953   0.457 -0.3873 -0.6701 -1.1716
 4765SOL    HW219143   0.797   6.805   0.474  0.6615 -0.2882  0.6690
 4766SOL     OW19144   9.510   7.773   3.949  0.1149  0.7833 -0.3837
 4766SOL    HW119145   9.498   7.863   3.978 -2.2918  1.3168 -2.8211
 4766SOL    HW219146   9.527   7.780   3.855  0.9571 -1.2349 -0.4022
 4767SOL     OW19147   1.607   6.282   4.190  0.3022  0.6226  0.3187
 4767SOL    HW119148   1.525   6.235   4.210 -0.9883  2.5598 -0.3307
 4767SOL    HW219149   1.655   6.282   4.273  0.5238 -2.1707  0.2526
 4768SOL     OW19150   9.650   7.782   3.034 -0.2928  0.1288  0.4787
 4768SOL    HW119151   9.745   7.776   3.034 -0.2606  0.4237  2.6656
 4768SOL    HW219152   9.631   7.861   2.982  0.5826 -0.5201 -0.8642
 4769SOL     OW19153   1.655   7.868   3.565 -0.2132 -0.0354 -0.1766
 4769SOL    HW119154   1.619   7.922   3.495  2.0843  0.5737 -0.9212
 4769SOL    HW219155   1.684   7.788   3.520  0.3099 -0.0855  0.2517
 4770SOL     OW19156   0.432   9.991   3.742  0.0439  0.0136  0.2033
 4770SOL    HW119157   0.380   9.990   3.661 -1.1250 -0.3571  0.9360
 4770SOL    HW219158   0.382  10.048   3.801 -0.0606 -1.1686  1.2687
 4771SOL     OW19159   1.178   9.993   3.284 -0.2382  0.1463 -0.0104
 4771SOL    HW119160   1.211   9.909   3.316  0.6938 -0.0900 -1.5116
 4771SOL    HW219161   1.149  10.039   3.363 -0.4732 -1.4555  0.8579
 4772SOL     OW19162   1.219   8.794   3.606  0.5824 -0.2725 -0.1892
 4772SOL    HW119163   1.152   8.801   3.675 -1.1114  0.4407 -1.8571
 4772SOL    HW219164   1.297   8.834   3.644 -1.0270  2.3989  0.4963
 4773SOL     OW19165   9.911   7.769   2.246 -0.5957 -0.6056 -0.0959
 4773SOL    HW119166   9.902   7.801   2.156  2.0009 -0.3775 -0.3204
 4773SOL    HW219167   9.961   7.688   2.237 -1.5739 -1.3530  1.0466
 4774SOL     OW19168   1.434   8.745   2.756 -0.0422  0.4853  0.0143
 4774SOL    HW119169   1.530   8.743   2.762 -0.0714 -0.4855  0.1565
 4774SOL    HW219170   1.413   8.838   2.742  0.8146  0.9505  1.6464
 4775SOL     OW19171   2.882   9.655   0.784  0.2859  0.1268  0.5754
 4775SOL    HW119172   2.856   9.565   0.763  0.2297  0.7163 -2.1660
 4775SOL    HW219173   2.948   9.646   0.853  2.1274 -2.2113 -1.3910
 4776SOL     OW19174   1.204   7.225   9.734  0.5793  0.2786 -0.6012
 4776SOL    HW119175   1.171   7.150   9.784 -0.8625  1.1480 -0.2183
 4776SOL    HW219176   1.125   7.269   9.702  1.3563  2.3652  0.2922
 4777SOL     OW19177   9.673   7.468   2.678  0.1715  0.1701 -0.4050
 4777SOL    HW119178   9.699   7.557   2.654 -0.8222  0.3967 -0.6656
 4777SOL    HW219179   9.667   7.421   2.595  0.4453 -0.0669 -0.2902
 4778SOL     OW19180   1.611   6.429   2.393  0.2503 -0.4048 -0.2222
 4778SOL    HW119181   1.696   6.445   2.433  0.0271  0.2851 -0.0185
 4778SOL    HW219182   1.565   6.372   2.455 -0.7993  2.1577  1.4376
 4779SOL     OW19183   9.917   7.900   2.991  0.1784  0.1722  0.0443
 4779SOL    HW119184   9.868   7.956   2.931 -0.0092 -0.8621 -0.7890
 4779SOL    HW219185   9.995   7.875   2.942 -0.4423 -1.4582 -0.1571
 4780SOL     OW19186   9.496   9.326   2.869  0.5867 -0.1807  0.0483
 4780SOL    HW119187   9.562   9.324   2.939  1.1913  0.3556 -0.4942
 4780SOL    HW219188   9.521   9.401   2.816 -1.4508  1.0357  0.7599
 4781SOL     OW19189   0.564   7.769   4.967  0.0820 -0.7407  0.5357
 4781SOL    HW119190   0.490   7.710   4.952  0.5308 -1.4851  1.2294
 4781SOL    HW219191   0.606   7.777   4.881  0.4898 -2.0873  0.5948
 4782SOL     OW19192   0.686   8.609   5.581 -0.1176  0.0624 -0.3893
 4782SOL    HW119193   0.666   8.597   5.488  0.7050  0.2274 -0.5980
 4782SOL    HW219194   0.782   8.602   5.585 -0.1549  0.0639  0.4422
 4783SOL     OW19195   2.017   9.342   3.532 -0.4476 -0.0427 -0.2263
 4783SOL    HW119196   2.108   9.368   3.520 -0.3360  0.4774  1.5186
 4783SOL    HW219197   1.968   9.424   3.530 -0.8229 -0.2736 -0.6778
 4784SOL     OW19198   9.958   8.995   4.458  0.4497 -0.6689 -0.0260
 4784SOL    HW119199  10.052   8.999   4.441  0.4051  1.3989  0.0832
 4784SOL    HW219200   9.948   9.032   4.546 -0.4272 -1.2493  0.1240
 4785SOL     OW19201   1.958   6.960   3.005 -0.2478  0.0868  0.0608
 4785SOL    HW119202   1.957   6.900   3.080  1.2523 -0.3322 -0.2483
 4785SOL    HW219203   1.895   6.922   2.943  2.7790 -2.7984 -1.3708
 4786SOL     OW19204   0.377   9.008   4.029 -0.3185 -0.1613 -0.2269
 4786SOL    HW119205   0.398   9.095   3.997 -0.8071 -0.2511 -0.7845
 4786SOL    HW219206   0.432   8.997   4.107  0.5973  0.1924 -0.8183
 4787SOL     OW19207   0.451   7.852   6.397  0.2999 -0.1151  0.2472
 4787SOL    HW119208   0.453   7.790   6.471 -1.2792 -1.0173 -0.4253
 4787SOL    HW219209   0.375   7.907   6.414  1.5247  1.4894  0.6807
 4788SOL     OW19210   1.013   8.578   4.255  0.7794  0.1397 -0.5429
 4788SOL    HW119211   1.056   8.590   4.339 -0.2682  2.5865 -0.2867
 4788SOL    HW219212   1.047   8.650   4.201  0.4198 -0.6018 -1.7633
 4789SOL     OW19213   0.135   7.781   5.715  0.2210 -0.1053  0.6752
 4789SOL    HW119214   0.083   7.821   5.646  1.3485  0.2039 -0.0123
 4789SOL    HW219215   0.135   7.688   5.694 -1.5347 -0.3599  1.6939
 4790SOL     OW19216   9.207   9.093   6.277 -0.4656 -0.0244 -0.4729
 4790SOL    HW119217   9.273   9.135   6.222 -0.2397 -0.2366 -0.3669
 4790SOL    HW219218   9.202   9.149   6.355 -0.4257  0.0044 -0.4909
 4791SOL     OW19219   0.603   6.746   5.831  0.3477 -0.5216  0.4608
 4791SOL    HW119220   0.551   6.667   5.841 -0.0908 -0.3563 -0.4632
 4791SOL    HW219221   0.694   6.717   5.843  0.3085 -1.4440 -1.3113
 4792SOL     OW19222   1.108   8.736   4.052 -0.1058  0.6100 -0.7958
 4792SOL    HW119223   1.089   8.822   4.014  1.2651  1.6580  0.8324
 4792SOL    HW219224   1.183   8.703   4.002  0.1101  0.8840 -0.6539
 4793SOL     OW19225   1.664   8.535   5.464 -0.2215 -0.8056  0.7356
 4793SOL    HW119226   1.693   8.479   5.536  2.0102 -0.7075 -0.0534
 4793SOL    HW219227   1.623   8.611   5.507  1.5840 -0.4874  1.9088
 4794SOL     OW19228   1.486   9.789   4.131 -0.1836 -0.8207 -0.5811
 4794SOL    HW119229   1.553   9.765   4.068  1.2446  0.1739  0.5364
 4794SOL    HW219230   1.490   9.884   4.137 -0.1676 -0.9040  1.1200
 4795SOL     OW19231   9.578   8.509   5.262  0.2420  0.3466  0.2272
 4795SOL    HW119232   9.603   8.417   5.259 -0.0281  0.2236  1.2405
 4795SOL    HW219233   9.554   8.531   5.173  0.9358 -0.3877 -0.1489
 4796SOL     OW19234   1.461   7.394   6.618 -0.4721  0.0987 -0.3051
 4796SOL    HW119235   1.542   7.432   6.654  0.0313 -0.3108 -0.9936
 4796SOL    HW219236   1.428   7.462   6.558  0.1912 -0.3507 -1.1973
 4797SOL     OW19237   0.062   7.976   4.709 -0.1182  0.0852  0.6386
 4797SOL    HW119238   0.149   7.940   4.725  0.0189 -0.1653 -0.6695
 4797SOL    HW219239   0.060   7.993   4.615 -1.4234  0.2355  0.6912
 4798SOL     OW19240   1.032   0.105   3.965  0.0523  0.0633 -0.0546
 4798SOL    HW119241   0.953   0.141   4.004 -1.8439 -2.4220 -1.4568
 4798SOL    HW219242   1.005   0.076   3.878  1.6865 -3.8330  0.6300
 4799SOL     OW19243   2.486   7.985   4.112 -0.7428 -0.1623 -0.1402
 4799SOL    HW119244   2.390   7.988   4.111 -0.7562 -0.5085  0.1140
 4799SOL    HW219245   2.513   8.075   4.097 -1.1094 -0.0528 -0.1395
 4800SOL     OW19246   2.914   8.929   5.388 -0.1070  0.1649 -0.3453
 4800SOL    HW119247   2.901   8.925   5.293 -0.3938 -1.2548 -0.2566
 4800SOL    HW219248   2.825   8.926   5.424 -0.0901  2.4265 -0.0706
 4801SOL     OW19249   1.161   7.712   6.125 -0.0058 -0.4174 -0.3353
 4801SOL    HW119250   1.085   7.656   6.110  1.3888 -2.2002 -0.8754
 4801SOL    HW219251   1.170   7.762   6.043 -0.3386 -0.5208 -0.4348
 4802SOL     OW19252   9.726   9.027   4.950 -0.3457  0.5765  0.5053
 4802SOL    HW119253   9.730   9.048   4.856  0.8182  1.7764  0.8111
 4802SOL    HW219254   9.634   9.002   4.965 -0.0183 -1.9629 -1.4190
 4803SOL     OW19255   1.952   8.943   4.691 -0.3397 -0.4656  0.0070
 4803SOL    HW119256   1.934   9.003   4.763 -1.8136  1.2437 -1.7334
 4803SOL    HW219257   2.028   8.979   4.647 -0.2675 -0.7446 -0.0991
 4804SOL     OW19258   1.516   8.449   4.571  0.2249  0.4858 -0.0394
 4804SOL    HW119259   1.423   8.443   4.549  0.6667  0.3717 -1.9328
 4804SOL    HW219260   1.518   8.509   4.646 -1.1665  2.3127 -1.4023
 4805SOL     OW19261   2.075   9.137   4.364 -0.1717 -0.0502  0.5829
 4805SOL    HW119262   2.021   9.215   4.348 -0.0658  0.0109  0.5191
 4805SOL    HW219263   2.150   9.170   4.413  0.5886  0.1374 -0.6875
 4806SOL     OW19264   1.310   9.503   5.525 -0.3776  0.0175  0.1875
 4806SOL    HW119265   1.290   9.486   5.618 -0.0126  0.5975  0.3700
 4806SOL    HW219266   1.401   9.530   5.525 -1.0845  2.4954 -0.0408
 4807SOL     OW19267   1.884   7.794   6.722  0.0354  0.2194  0.0561
 4807SOL    HW119268   1.902   7.886   6.703 -0.6561 -0.1526 -2.6463
 4807SOL    HW219269   1.789   7.787   6.718  0.0722 -0.5655  0.5094
 4808SOL     OW19270   0.254   9.229   3.572 -0.0786  0.8908 -0.2050
 4808SOL    HW119271   0.205   9.179   3.638 -0.3951  0.9201 -0.4136
 4808SOL    HW219272   0.204   9.310   3.562  0.6113  1.3901  0.3609
 4809SOL     OW19273   1.579   6.832   5.868  0.2370  0.0711  0.0235
 4809SOL    HW119274   1.506   6.879   5.909 -0.7351 -0.8129 -0.6837
 4809SOL    HW219275   1.586   6.750   5.917  0.5109 -0.0217 -0.1662
 4810SOL     OW19276   0.472   8.286   4.433  0.5147 -0.2027 -0.1092
 4810SOL    HW119277   0.529   8.343   4.484  0.2253 -0.5964  0.6660
 4810SOL    HW219278   0.454   8.335   4.353  0.7485  0.5412  0.2876
 4811SOL     OW19279   9.213   8.292   5.271  0.3618 -0.0129  0.5070
 4811SOL    HW119280   9.159   8.346   5.330 -0.7904 -0.7325  0.1403
 4811SOL    HW219281   9.166   8.294   5.188  1.0326 -0.4783  0.1151
 4812SOL     OW19282   1.128   7.187   5.169  0.3189  0.2770  0.8102
 4812SOL    HW119283   1.036   7.206   5.152  0.1329  0.4421  1.9092
 4812SOL    HW219284   1.151   7.120   5.105 -0.2096  1.1380 -0.2932
 4813SOL     OW19285   2.254   8.467   6.230 -0.3909  0.0418  0.0468
 4813SOL    HW119286   2.236   8.473   6.137  0.5123 -1.0431 -0.2104
 4813SOL    HW219287   2.207   8.388   6.259  0.9634 -0.7656  0.0920
 4814SOL     OW19288   0.756   7.552   5.065 -0.0497  0.1542 -0.2106
 4814SOL    HW119289   0.812   7.602   5.125 -0.8388  0.3997  0.3301
 4814SOL    HW219290   0.750   7.607   4.987 -1.4981  1.2483  0.6587
 4815SOL     OW19291   2.168   8.627   4.357  0.1699  0.3602 -0.5784
 4815SOL    HW119292   2.155   8.649   4.449  0.1378 -0.6392 -0.3384
 4815SOL    HW219293   2.102   8.560   4.339  1.8974 -1.3546 -0.6165
 4816SOL     OW19294   0.731   8.666   4.342  0.3936  0.1432  0.0582
 4816SOL    HW119295   0.666   8.602   4.314  0.4450  0.4175 -0.7096
 4816SOL    HW219296   0.815   8.628   4.317  0.3203  1.3241 -2.1120
 4817SOL     OW19297   9.992   9.660   5.499  0.4206  0.4699 -0.0889
 4817SOL    HW119298  10.047   9.593   5.460  0.2460  0.4217 -0.2539
 4817SOL    HW219299  10.053   9.728   5.528  0.6332  0.0419  0.4729
 4818SOL     OW19300   1.474   7.607   3.606 -0.0924 -0.5576 -0.1450
 4818SOL    HW119301   1.506   7.687   3.649 -0.6028 -0.2430 -0.3436
 4818SOL    HW219302   1.459   7.633   3.515  0.0585 -0.9696 -0.2866
 4819SOL     OW19303   0.260   7.119   4.977 -0.6369 -0.2442 -0.2707
 4819SOL    HW119304   0.175   7.118   4.932 -0.8012  1.2500 -0.0315
 4819SOL    HW219305   0.278   7.212   4.989  1.8841 -0.4743 -1.9254
 4820SOL     OW19306   1.049   8.343   4.122 -0.6897 -0.1100 -0.6131
 4820SOL    HW119307   1.028   8.434   4.142 -0.5626 -0.1249 -0.4109
 4820SOL    HW219308   1.042   8.337   4.027  1.7115  0.6984 -0.8654
 4821SOL     OW19309   2.001   8.674   2.759 -0.1119  0.0372 -0.1025
 4821SOL    HW119310   1.972   8.689   2.670  1.4698 -1.7815 -0.9555
 4821SOL    HW219311   2.035   8.760   2.788  0.2946  0.3914 -1.6007
 4822SOL     OW19312   1.212   8.713   4.399  0.0831 -0.5044  0.1128
 4822SOL    HW119313   1.220   8.747   4.487 -0.9060  0.6099 -0.2112
 4822SOL    HW219314   1.246   8.782   4.342 -0.2795 -0.7723 -0.4441
 4823SOL     OW19315   1.253   9.290   1.714 -0.1214 -0.0571  0.0500
 4823SOL    HW119316   1.230   9.286   1.621  1.6890  0.4669 -0.4486
 4823SOL    HW219317   1.205   9.366   1.747  0.9352  1.1052 -0.9995
 4824SOL     OW19318   0.386   9.913   4.305  0.1325 -0.2311  0.1388
 4824SOL    HW119319   0.360   9.874   4.222 -0.2580  0.5983 -0.1409
 4824SOL    HW219320   0.466   9.962   4.284  0.2055 -0.2783  0.3133
 4825SOL     OW19321   0.260   6.408   6.818 -0.0596  0.3928 -0.2867
 4825SOL    HW119322   0.204   6.442   6.888  0.1858  1.4825 -0.6096
 4825SOL    HW219323   0.321   6.480   6.799  1.3712 -0.7340 -0.0304
 4826SOL     OW19324   4.202   9.243   2.887 -0.0195 -0.4722 -0.1353
 4826SOL    HW119325   4.150   9.307   2.839  1.8914  0.3884 -1.1342
 4826SOL    HW219326   4.196   9.163   2.835  2.1167  0.4823 -1.9359
 4827SOL     OW19327   9.845   0.138   4.281  0.0395 -0.3640  0.2902
 4827SOL    HW119328   9.785   0.065   4.264 -0.8090  0.8874 -2.3212
 4827SOL    HW219329   9.787   0.211   4.302  0.8243 -0.0104  1.2458
 4828SOL     OW19330   9.911   8.058   5.028  0.3157  0.0439  0.1432
 4828SOL    HW119331   9.930   7.984   4.971 -0.6411 -0.9504  1.0823
 4828SOL    HW219332   9.825   8.089   5.000 -0.4319 -0.8263  1.3947
 4829SOL     OW19333   9.551   8.049   3.657 -0.3631 -0.8331 -0.0387
 4829SOL    HW119334   9.536   8.121   3.718 -0.7941 -2.3786  1.7113
 4829SOL    HW219335   9.493   8.068   3.583 -1.1407  0.1569  0.8113
 4830SOL     OW19336   9.505   8.083   4.329  0.2639 -0.0360 -0.3652
 4830SOL    HW119337   9.547   8.161   4.292 -1.5021  1.7758  1.3731
 4830SOL    HW219338   9.552   8.010   4.289  1.5438  1.8982 -2.5082
 4831SOL     OW19339   2.643   5.135   6.105  0.1067 -0.3882  0.4177
 4831SOL    HW119340   2.669   5.214   6.058 -1.7560  0.6555  1.0529
 4831SOL    HW219341   2.610   5.076   6.038 -2.0128  0.8723  0.2866
 4832SOL     OW19342   0.183   8.130   2.832 -0.0207 -0.1144 -0.2574
 4832SOL    HW119343   0.123   8.055   2.833 -1.5913  1.1295  0.1499
 4832SOL    HW219344   0.226   8.128   2.918 -0.5647 -0.1486  0.0157
 4833SOL     OW19345   1.574   9.157   5.210 -0.2636  0.1299 -0.2007
 4833SOL    HW119346   1.650   9.215   5.200 -0.8835  1.0347  0.3626
 4833SOL    HW219347   1.510   9.209   5.259 -1.1959 -0.6814 -0.5531
 4834SOL     OW19348   0.221   8.175   6.196  0.0456  0.4749 -0.7976
 4834SOL    HW119349   0.201   8.094   6.149  0.2831 -0.8838  1.3919
 4834SOL    HW219350   0.297   8.211   6.150  1.0327 -1.4590 -0.7507
 4835SOL     OW19351   9.848   8.812   4.801  0.0855  0.4599 -0.0256
 4835SOL    HW119352   9.773   8.820   4.741 -0.7962 -1.1471  0.8443
 4835SOL    HW219353   9.880   8.722   4.788  1.9536  1.1488 -0.4569
 4836SOL     OW19354   1.716   7.896   3.838  0.0925  0.2052  0.4112
 4836SOL    HW119355   1.712   7.882   3.744  1.8879 -0.8312  0.4766
 4836SOL    HW219356   1.670   7.821   3.876  2.9980 -1.6116  0.4793
 4837SOL     OW19357   2.753   8.322   2.471 -0.5988  0.5475  0.0680
 4837SOL    HW119358   2.709   8.390   2.420  1.1650  1.1041 -0.7475
 4837SOL    HW219359   2.829   8.298   2.419 -0.3041 -0.8852  1.1310
 4838SOL     OW19360   2.582   9.551   2.235 -0.4710  0.2063  0.5076
 4838SOL    HW119361   2.647   9.617   2.209 -0.0841 -0.3339  0.0720
 4838SOL    HW219362   2.541   9.525   2.152 -1.6105  0.9123  0.8405
 4839SOL     OW19363   3.114   7.978   4.617 -0.8442  0.1139  0.1722
 4839SOL    HW119364   3.061   7.918   4.670 -4.5549  0.8163 -2.5361
 4839SOL    HW219365   3.140   8.047   4.679  1.4760 -2.8830  2.7538
 4840SOL     OW19366   9.946   8.382   4.517 -0.4154  0.3006  0.5794
 4840SOL    HW119367   9.966   8.341   4.601 -1.9144 -2.5180 -0.4109
 4840SOL    HW219368  10.017   8.353   4.459 -0.3909  0.7502  0.3828
 4841SOL     OW19369   0.609   8.073   5.357  0.0091  0.2136  0.1333
 4841SOL    HW119370   0.539   8.128   5.390  0.0959 -0.1595  0.9456
 4841SOL    HW219371   0.680   8.134   5.336 -0.2880  0.5159  0.0104
 4842SOL     OW19372   2.110   8.745   4.610  0.4158 -0.2910 -0.1830
 4842SOL    HW119373   2.031   8.788   4.642  0.4295  0.2461 -0.8495
 4842SOL    HW219374   2.171   8.818   4.592  1.3738 -0.7398  1.1408
 4843SOL     OW19375   1.268   7.760   4.107  0.4276  0.4419 -0.0644
 4843SOL    HW119376   1.209   7.686   4.094  1.0777 -0.3377  1.3197
 4843SOL    HW219377   1.234   7.828   4.049 -2.2019  0.2367  1.1798
 4844SOL     OW19378   2.062   9.756   3.640  0.2268  0.3761  0.0984
 4844SOL    HW119379   2.037   9.847   3.622  0.4218  0.5101  0.5048
 4844SOL    HW219380   2.157   9.757   3.636  0.1996 -0.0068 -0.8101
 4845SOL     OW19381   9.870   9.027   5.272 -0.5010 -0.1095 -0.0459
 4845SOL    HW119382   9.864   8.996   5.362  0.3145 -2.3901 -0.7246
 4845SOL    HW219383   9.922   9.107   5.277  2.1118 -1.8061  1.2069
 4846SOL     OW19384   0.305   7.938   4.831  0.2988 -0.1073 -0.5379
 4846SOL    HW119385   0.265   7.991   4.900  0.2312 -3.3803  2.0691
 4846SOL    HW219386   0.339   8.002   4.769 -0.5726  2.9616  1.9814
 4847SOL     OW19387   0.316   8.083   6.445 -0.7523 -0.2700  0.1940
 4847SOL    HW119388   0.273   8.104   6.362  0.6540  1.2839 -0.1720
 4847SOL    HW219389   0.251   8.104   6.512 -1.5152 -0.5119 -0.4596
 4848SOL     OW19390   1.716   7.795   5.098  0.5277  0.4914 -0.6227
 4848SOL    HW119391   1.780   7.858   5.064  2.4631 -0.9866  0.1430
 4848SOL    HW219392   1.639   7.847   5.118  1.6617  2.4173 -1.1392
 4849SOL     OW19393   0.649   8.911   4.865  0.0027  0.3137 -0.2864
 4849SOL    HW119394   0.729   8.937   4.820 -0.1688 -0.5909 -1.1332
 4849SOL    HW219395   0.599   8.992   4.875 -0.1198  0.4699 -2.0678
 4850SOL     OW19396   1.133   7.397   2.927  0.4070 -0.2905  0.2341
 4850SOL    HW119397   1.112   7.303   2.925  0.2489 -0.2519  0.0888
 4850SOL    HW219398   1.229   7.399   2.927  0.4137 -0.4634  0.8547
 4851SOL     OW19399   1.308   9.290   4.485  0.2092  0.0384 -0.1093
 4851SOL    HW119400   1.277   9.351   4.418  0.1184  1.6879  1.4291
 4851SOL    HW219401   1.361   9.227   4.435  0.4086  1.4176 -1.7027
 4852SOL     OW19402   9.413   8.060   4.615 -0.5538 -0.3299 -0.3894
 4852SOL    HW119403   9.321   8.082   4.598 -0.4455  0.3308 -0.1285
 4852SOL    HW219404   9.452   8.056   4.528 -0.8456 -0.6878 -0.5073
 4853SOL     OW19405   9.404   6.354   3.175 -0.1901  0.4830 -0.3992
 4853SOL    HW119406   9.363   6.307   3.102  2.5698 -1.0898 -0.9819
 4853SOL    HW219407   9.387   6.300   3.252 -0.2488  0.4518 -0.4339
 4854SOL     OW19408   0.908   8.897   7.190 -0.1858  0.7522 -0.6441
 4854SOL    HW119409   0.860   8.814   7.194 -0.7351  1.0387 -1.2063
 4854SOL    HW219410   0.850   8.961   7.231  0.6802  0.6639  0.7640
 4855SOL     OW19411   0.457   8.747   4.637  0.1798  0.2700  0.1707
 4855SOL    HW119412   0.496   8.668   4.674  1.2005  0.7493  0.1359
 4855SOL    HW219413   0.414   8.718   4.556  1.1563 -0.1385 -0.2109
 4856SOL     OW19414   1.113   8.621   4.873 -0.4836  0.2614 -0.1767
 4856SOL    HW119415   1.188   8.640   4.928 -0.0605  0.0085 -0.6646
 4856SOL    HW219416   1.039   8.661   4.919 -0.3550 -1.1581  1.2869
 4857SOL     OW19417   0.641   8.755   4.005  0.0905 -0.1896 -0.7195
 4857SOL    HW119418   0.709   8.816   4.033 -1.5090  1.5987 -0.5601
 4857SOL    HW219419   0.632   8.694   4.078  1.7675 -0.6844 -0.9080
 4858SOL     OW19420   0.785   9.014   4.109 -0.1968 -0.4975 -0.0206
 4858SOL    HW119421   0.696   9.027   4.144 -0.7701 -0.1657 -1.5777
 4858SOL    HW219422   0.780   9.047   4.019  0.8088 -2.9312 -0.9837
 4859SOL     OW19423   2.375   9.035   6.054 -0.6961 -0.6641  0.1683
 4859SOL    HW119424   2.373   9.024   5.959 -2.5956  0.0343  0.1092
 4859SOL    HW219425   2.451   9.091   6.069 -0.2170 -1.0029 -0.9116
 4860SOL     OW19426   0.552   8.996   4.551 -0.2324  0.0533  0.6283
 4860SOL    HW119427   0.517   9.064   4.608  0.0905  1.1682 -0.4699
 4860SOL    HW219428   0.532   8.914   4.596 -0.0967  0.8940  2.2687
 4861SOL     OW19429   0.097   8.645   5.384 -0.2431  0.0006 -0.3237
 4861SOL    HW119430   0.169   8.653   5.446 -0.9677 -1.2149  0.6925
 4861SOL    HW219431   0.020   8.674   5.432 -0.2310  2.7602 -1.8868
 4862SOL     OW19432   9.700   7.922   4.570 -0.1317 -0.2643  0.3027
 4862SOL    HW119433   9.620   7.961   4.606 -0.2063 -0.6518  0.5535
 4862SOL    HW219434   9.742   7.994   4.523 -0.5171 -0.0013  0.3539
 4863SOL     OW19435   9.309   0.961   5.166 -0.2768 -0.6551 -0.4137
 4863SOL    HW119436   9.276   0.974   5.255  0.3989 -2.1312  0.0689
 4863SOL    HW219437   9.393   1.007   5.165 -1.4502  1.5250 -1.0804
 4864SOL     OW19438   0.846   8.021   6.120 -0.3331 -0.4238  0.3156
 4864SOL    HW119439   0.810   8.094   6.171 -1.3124 -1.1748  0.7196
 4864SOL    HW219440   0.770   7.968   6.097  0.5942 -2.6094  2.0987
 4865SOL     OW19441   1.375   7.929   2.557 -0.0055  0.5215  0.1168
 4865SOL    HW119442   1.291   7.902   2.522 -0.7283  0.0550  2.1646
 4865SOL    HW219443   1.358   8.014   2.597  1.1076  1.6692 -1.7888
 4866SOL     OW19444   2.471   8.700   3.586 -0.4157  0.0903 -0.3252
 4866SOL    HW119445   2.518   8.769   3.633  2.5692 -1.8586 -0.2568
 4866SOL    HW219446   2.469   8.730   3.495 -0.8579  1.1217  0.0140
 4867SOL     OW19447   1.461   8.303   4.828  0.4878  0.3513 -0.1961
 4867SOL    HW119448   1.510   8.384   4.839  0.3294  0.3169  0.8124
 4867SOL    HW219449   1.391   8.309   4.893  1.0429 -1.0253  0.5376
 4868SOL     OW19450   1.539   8.826   5.323  0.5482 -0.4200  0.5822
 4868SOL    HW119451   1.500   8.855   5.240  2.5868  0.2761 -0.1592
 4868SOL    HW219452   1.515   8.734   5.329 -0.7242 -0.1542 -0.1403
 4869SOL     OW19453   0.238   7.843   4.431  0.5947  0.4008 -0.4753
 4869SOL    HW119454   0.155   7.878   4.399  0.1641 -2.0430 -2.0959
 4869SOL    HW219455   0.279   7.918   4.476 -1.6672  2.1138 -1.1653
 4870SOL     OW19456   0.969   8.425   5.079  0.4660  0.6244 -0.6881
 4870SOL    HW119457   0.925   8.381   5.006  1.7788 -0.0302 -1.1022
 4870SOL    HW219458   0.958   8.518   5.061 -0.6623  0.4663 -0.8327
 4871SOL     OW19459   1.187   8.338   5.289 -0.4348 -0.5078  0.1870
 4871SOL    HW119460   1.197   8.245   5.306 -2.1373 -0.8521 -0.6807
 4871SOL    HW219461   1.163   8.344   5.197 -1.5026  0.7000  0.5278
 4872SOL     OW19462   0.708   7.078   6.552 -0.4149  0.1015 -0.0641
 4872SOL    HW119463   0.698   7.167   6.519 -0.7725 -0.0330 -0.3262
 4872SOL    HW219464   0.661   7.024   6.488 -0.1608 -0.2769  0.0701
 4873SOL     OW19465   1.278   9.109   5.261  0.7977 -0.1553 -0.6986
 4873SOL    HW119466   1.314   9.043   5.202  0.8700  2.0066 -3.1223
 4873SOL    HW219467   1.208   9.064   5.308  0.9512 -1.9847 -2.1985
 4874SOL     OW19468   8.300   7.235   5.503 -0.3059  0.4889 -0.5922
 4874SOL    HW119469   8.374   7.286   5.537 -0.1917 -0.1826  0.1903
 4874SOL    HW219470   8.332   7.145   5.501 -1.4834  0.0210  0.8630
 4875SOL     OW19471   2.236   7.427   4.700 -0.3005  0.0191 -0.0224
 4875SOL    HW119472   2.208   7.342   4.734  0.7750 -0.2857  0.1334
 4875SOL    HW219473   2.210   7.426   4.608 -2.3137  0.4399  0.5369
 4876SOL     OW19474   9.415   7.649   4.374  0.3405 -0.0449  0.5409
 4876SOL    HW119475   9.366   7.729   4.394  0.7850  0.6988 -1.2022
 4876SOL    HW219476   9.505   7.670   4.399  0.3385 -0.2665  0.7417
 4877SOL     OW19477   2.311   6.614   4.030  0.0570 -0.0535 -0.6765
 4877SOL    HW119478   2.392   6.603   3.980 -0.3154 -0.0365 -1.2853
 4877SOL    HW219479   2.302   6.709   4.040  0.2764 -0.0672 -0.3334
 4878SOL     OW19480   1.957   6.830   4.286 -0.2013 -0.2417 -0.5776
 4878SOL    HW119481   1.951   6.767   4.214  1.7419 -1.6305  0.4386
 4878SOL    HW219482   1.942   6.779   4.365 -0.7490  0.9823  0.1360
 4879SOL     OW19483   2.003   0.226   5.349  0.9261 -0.1711  0.2179
 4879SOL    HW119484   1.983   0.221   5.442  1.3490 -1.1845  0.2656
 4879SOL    HW219485   1.919   0.211   5.305  0.3945  2.0043  0.4222
 4880SOL     OW19486   2.016   7.721   4.673 -0.0221  0.5439 -0.0572
 4880SOL    HW119487   2.054   7.636   4.692  0.3131  0.7882  0.3863
 4880SOL    HW219488   1.927   7.716   4.708 -0.0900  0.2809 -0.2740
 4881SOL     OW19489   0.670   8.924   5.577 -0.3231  0.0215  0.0932
 4881SOL    HW119490   0.700   8.842   5.539  0.9654  0.3011  0.4839
 4881SOL    HW219491   0.575   8.922   5.567 -0.2349 -1.1819 -0.5606
 4882SOL     OW19492   2.085   7.097   4.274  0.4188 -0.3439  0.0791
 4882SOL    HW119493   2.090   7.002   4.278 -1.6552 -0.4892 -0.2901
 4882SOL    HW219494   2.074   7.116   4.180  1.7181  0.3100  0.0527
 4883SOL     OW19495   2.891   9.143   2.835 -0.2518 -0.0347 -0.4218
 4883SOL    HW119496   2.904   9.077   2.767  0.6153  0.5529 -0.8453
 4883SOL    HW219497   2.948   9.216   2.809  2.2324 -0.8868  2.3818
 4884SOL     OW19498   1.078   9.436   3.726  0.6108 -0.5211  0.1802
 4884SOL    HW119499   1.155   9.469   3.772  0.1393  1.9657 -0.7109
 4884SOL    HW219500   1.039   9.514   3.685 -3.2141 -1.4666  1.8080
 4885SOL     OW19501   0.174   8.649   4.803 -0.2677  0.9170  0.2589
 4885SOL    HW119502   0.087   8.609   4.804 -0.3372  0.9494 -1.6845
 4885SOL    HW219503   0.157   8.743   4.794 -0.0392  0.9611  0.2849
 4886SOL     OW19504   9.661   7.463   6.497  0.7012 -0.7170 -0.3539
 4886SOL    HW119505   9.577   7.418   6.511  1.6567 -2.2280  0.7487
 4886SOL    HW219506   9.637   7.554   6.482 -1.1121 -1.0159  0.5224
 4887SOL     OW19507   1.235   0.439   5.953  0.3011 -0.0627 -0.2088
 4887SOL    HW119508   1.160   0.423   5.896 -1.5442  1.6862  1.6189
 4887SOL    HW219509   1.232   0.368   6.017 -1.6354  1.6093  1.6382
 4888SOL     OW19510   9.243   9.522   4.154  0.2324 -0.2242  0.2474
 4888SOL    HW119511   9.237   9.616   4.169  0.3222 -0.4968  2.1652
 4888SOL    HW219512   9.222   9.511   4.062 -4.3028  1.2543  0.9741
 4889SOL     OW19513   1.646   9.017   4.374 -0.0969 -0.0995  0.0808
 4889SOL    HW119514   1.617   9.089   4.318  0.2320  0.2779  0.3898
 4889SOL    HW219515   1.704   9.059   4.437 -0.2762 -0.5642  0.5511
 4890SOL     OW19516   1.196   7.472   5.642 -0.0778 -0.2567  0.4325
 4890SOL    HW119517   1.237   7.558   5.643  2.2646 -1.3437  0.3177
 4890SOL    HW219518   1.173   7.455   5.734  0.1553  0.1622  0.5680
 4891SOL     OW19519   9.069   6.713   4.973  0.6176 -0.4726  0.0366
 4891SOL    HW119520   9.047   6.669   5.055  1.2160 -1.8109 -0.5069
 4891SOL    HW219521   9.164   6.728   4.979  1.1840 -3.2003 -1.6408
 4892SOL     OW19522   1.698   9.513   6.432  0.5300  0.2111 -0.0819
 4892SOL    HW119523   1.655   9.596   6.410  0.1417  0.5141  1.7087
 4892SOL    HW219524   1.718   9.520   6.525  1.9555 -1.0748 -0.2626
 4893SOL     OW19525   2.651   7.520   4.765 -0.2399  0.3590 -0.6369
 4893SOL    HW119526   2.644   7.430   4.797 -0.6416  0.7517  0.4034
 4893SOL    HW219527   2.745   7.532   4.748  0.1182  0.4404  1.3112
 4894SOL     OW19528   9.073   7.515   4.339  0.4776 -0.0865  0.1226
 4894SOL    HW119529   9.080   7.536   4.432  2.0146 -1.0601  0.2577
 4894SOL    HW219530   9.115   7.429   4.330  0.4922  0.0590 -1.4874
 4895SOL     OW19531   0.674   7.775   5.329 -0.1576 -0.3568 -0.2424
 4895SOL    HW119532   0.766   7.756   5.307  0.4891  1.1302  1.1128
 4895SOL    HW219533   0.658   7.725   5.409 -0.2829  0.0695 -0.0043
 4896SOL     OW19534   1.480   0.477   6.794  0.1230 -0.3499  0.5640
 4896SOL    HW119535   1.430   0.407   6.834  1.5544 -0.2876  2.5449
 4896SOL    HW219536   1.556   0.433   6.754 -0.9105 -0.3291 -1.5029
 4897SOL     OW19537   9.278   7.450   6.309 -0.0380 -0.7547 -0.3341
 4897SOL    HW119538   9.270   7.435   6.215 -0.6771 -1.0869 -0.2312
 4897SOL    HW219539   9.344   7.387   6.338  2.0201  1.0606 -0.9684
 4898SOL     OW19540   1.447   0.356   4.790  0.1397  0.4614  0.7329
 4898SOL    HW119541   1.468   0.272   4.831  0.5838 -1.3529 -2.9980
 4898SOL    HW219542   1.355   0.370   4.811  0.7786  0.4468  3.7038
 4899SOL     OW19543   1.721   7.508   3.493 -0.3619 -0.5751 -0.2532
 4899SOL    HW119544   1.654   7.453   3.453  0.6647 -2.6592  0.8270
 4899SOL    HW219545   1.693   7.518   3.584  0.5246 -1.0320  0.0751
 4900SOL     OW19546   0.487   8.860   6.128  0.4477  0.1737 -0.1392
 4900SOL    HW119547   0.469   8.950   6.155  1.0224  0.5698 -1.0174
 4900SOL    HW219548   0.434   8.847   6.049 -0.3233 -0.5668  0.4965
 4901SOL     OW19549   2.325   8.720   6.801 -0.0920  0.0905 -0.4311
 4901SOL    HW119550   2.397   8.751   6.746 -0.6187  1.1613 -0.5233
 4901SOL    HW219551   2.279   8.799   6.827 -2.1144 -0.6740 -1.5777
 4902SOL     OW19552   2.419   6.933   0.884 -0.2452 -0.3950 -0.8118
 4902SOL    HW119553   2.368   6.982   0.949 -2.9442  0.0097 -3.0828
 4902SOL    HW219554   2.475   6.999   0.843 -0.0761 -0.2434 -0.3392
 4903SOL     OW19555   1.528   9.211   4.195  0.0004  0.3536  0.0197
 4903SOL    HW119556   1.526   9.294   4.148  0.7945  0.0196 -0.6248
 4903SOL    HW219557   1.519   9.144   4.127  1.6752 -0.1496  0.2584
 4904SOL     OW19558   0.661   7.897   5.598  0.0305  0.2683  0.1728
 4904SOL    HW119559   0.643   7.932   5.510  0.9388 -1.0326 -0.5359
 4904SOL    HW219560   0.691   7.808   5.583 -2.0670 -0.7902  1.9621
 4905SOL     OW19561   0.796   0.240   3.249  0.3659 -0.9544 -0.2178
 4905SOL    HW119562   0.808   0.299   3.174  1.7694 -1.5415 -0.4788
 4905SOL    HW219563   0.867   0.264   3.309  1.0059 -2.4526 -0.3764
 4906SOL     OW19564   1.354   9.556   4.273  0.0120  0.1820  0.1621
 4906SOL    HW119565   1.336   9.594   4.359 -3.6303  0.1453 -0.5054
 4906SOL    HW219566   1.395   9.627   4.224 -1.8143  1.6172  0.6280
 4907SOL     OW19567   9.534   9.436   3.664  0.4691 -0.5054  0.0784
 4907SOL    HW119568   9.628   9.439   3.681  0.4842 -0.6840  0.0250
 4907SOL    HW219569   9.518   9.348   3.630  0.2478 -0.5449  0.2843
 4908SOL     OW19570   2.005   8.748   5.250 -0.1950 -0.6695  0.0218
 4908SOL    HW119571   2.029   8.688   5.320  0.4674  1.3336  1.5448
 4908SOL    HW219572   1.926   8.791   5.282 -0.1106 -0.0225 -0.6397
 4909SOL     OW19573   1.291   6.775   5.427  0.1421  0.0131 -0.3073
 4909SOL    HW119574   1.271   6.713   5.357  0.2175 -0.0503 -0.2722
 4909SOL    HW219575   1.207   6.789   5.472  0.2005 -0.3483 -0.0849
 4910SOL     OW19576   0.910   8.055   4.933 -0.2016 -0.1440 -0.7331
 4910SOL    HW119577   0.817   8.074   4.941  0.2324  1.6474  0.7993
 4910SOL    HW219578   0.945   8.129   4.884  0.4872 -0.5328 -0.8319
 4911SOL     OW19579   1.637   0.306   2.973  0.1417  0.7751 -0.1050
 4911SOL    HW119580   1.563   0.245   2.979  1.4130 -0.6109  2.1455
 4911SOL    HW219581   1.665   0.300   2.882 -0.1852 -1.5152 -0.0882
 4912SOL     OW19582   0.944   6.943   6.633  0.2813  0.1235 -0.2806
 4912SOL    HW119583   0.863   6.986   6.606 -0.6412 -1.7851 -0.5742
 4912SOL    HW219584   1.007   6.967   6.566 -0.4621  0.2633 -0.9348
 4913SOL     OW19585   2.051   0.762   5.206 -0.1094 -0.1595  0.1933
 4913SOL    HW119586   2.120   0.797   5.149 -1.4093 -0.2171 -1.4466
 4913SOL    HW219587   2.030   0.677   5.168  0.4999 -1.1717  2.0529
 4914SOL     OW19588   1.350   9.234   3.282 -0.0145  0.2735 -0.1734
 4914SOL    HW119589   1.424   9.178   3.309 -0.1043  0.9358  1.5249
 4914SOL    HW219590   1.283   9.217   3.348 -1.0974  0.2765 -1.2671
 4915SOL     OW19591   1.921   6.626   4.084 -0.2277  0.1057  0.1399
 4915SOL    HW119592   1.831   6.592   4.083  0.3002 -1.5506  2.8500
 4915SOL    HW219593   1.975   6.551   4.061  0.6210  0.4220  1.0888
 4916SOL     OW19594   0.520   0.677   3.770 -0.2279 -0.4140 -0.1515
 4916SOL    HW119595   0.425   0.665   3.766 -0.2376  0.1185 -1.6218
 4916SOL    HW219596   0.552   0.641   3.688  0.6875  0.8539 -0.3548
 4917SOL     OW19597   2.008   7.410   5.626  0.7691  0.0982 -0.2651
 4917SOL    HW119598   1.966   7.487   5.663 -0.3739 -0.4621 -0.3629
 4917SOL    HW219599   2.094   7.408   5.666 -0.7286 -1.0008  3.1183
 4918SOL     OW19600   0.305   8.594   5.588 -0.2336  0.4531  0.2957
 4918SOL    HW119601   0.264   8.540   5.656  1.1476  0.8396  1.4686
 4918SOL    HW219602   0.357   8.534   5.536 -0.7641  0.2549 -0.0030
 4919SOL     OW19603   0.311   8.634   4.438 -0.0433 -0.2793  0.3545
 4919SOL    HW119604   0.351   8.562   4.388 -0.8111 -1.0698  0.8675
 4919SOL    HW219605   0.218   8.631   4.413  0.0415  0.9576 -0.1268
 4920SOL     OW19606   9.876   8.064   3.358  0.1545 -0.7153  0.0970
 4920SOL    HW119607   9.900   8.147   3.316 -1.4697 -0.0351  0.4634
 4920SOL    HW219608   9.810   8.026   3.301  2.1678 -2.6802 -1.0109
 4921SOL     OW19609   0.445   7.368   6.302  0.2401  0.7502 -0.2465
 4921SOL    HW119610   0.393   7.440   6.264  1.0509  1.2849 -0.3520
 4921SOL    HW219611   0.465   7.312   6.227  0.2437  0.8068 -0.2877
 4922SOL     OW19612   0.326   7.586   2.828 -0.0122 -0.5838 -0.4586
 4922SOL    HW119613   0.243   7.540   2.840 -0.2151 -0.0604  0.1679
 4922SOL    HW219614   0.340   7.586   2.734 -2.0695  1.6567 -0.8300
 4923SOL     OW19615   1.019   9.924   4.162  0.0781  0.3137 -0.4113
 4923SOL    HW119616   1.029   9.999   4.103  0.5121  0.9121  0.4162
 4923SOL    HW219617   0.932   9.889   4.142  0.6990 -0.2381 -2.2641
 4924SOL     OW19618   0.170   8.326   4.323 -0.0590 -0.4892 -0.3169
 4924SOL    HW119619   0.120   8.351   4.245 -0.6122 -0.4155  0.0582
 4924SOL    HW219620   0.259   8.356   4.306 -0.7394  1.8751  0.1782
 4925SOL     OW19621   2.654   8.396   5.835  0.4610  0.5317  0.0573
 4925SOL    HW119622   2.607   8.479   5.834  1.4678  1.1028  1.0334
 4925SOL    HW219623   2.676   8.381   5.927  0.0469 -0.9455 -0.0728
 4926SOL     OW19624   0.757   7.704   4.358 -0.1241 -0.2303  0.3701
 4926SOL    HW119625   0.695   7.661   4.299  0.3399 -2.8161  1.6958
 4926SOL    HW219626   0.799   7.771   4.304  0.8881 -3.0806 -2.5541
 4927SOL     OW19627   2.220   8.158   2.483  0.0217  0.1862  0.5651
 4927SOL    HW119628   2.183   8.129   2.566 -1.8083  0.0741 -0.2757
 4927SOL    HW219629   2.212   8.253   2.485 -2.0834  0.0422 -0.4219
 4928SOL     OW19630   0.499   9.251   4.043  0.0559 -0.0465 -0.0005
 4928SOL    HW119631   0.516   9.322   3.980  0.3830  0.4067  0.5898
 4928SOL    HW219632   0.496   9.295   4.128 -0.1665 -0.6875  0.3263
 4929SOL     OW19633   1.719   7.970   6.465 -0.1339  0.5307  0.2357
 4929SOL    HW119634   1.641   7.934   6.507  0.4673 -0.8058  0.2129
 4929SOL    HW219635   1.767   8.012   6.536  0.3963 -0.8789  0.7179
 4930SOL     OW19636   0.837   9.067   5.316  0.0859 -0.2751  0.6653
 4930SOL    HW119637   0.766   9.034   5.371  0.3321 -0.7614  0.6878
 4930SOL    HW219638   0.802   9.148   5.279 -1.1588 -1.4262 -0.7675
 4931SOL     OW19639   0.747   8.062   2.857  0.4931  0.8710  0.4432
 4931SOL    HW119640   0.684   8.128   2.884  1.4640  1.9739  0.0465
 4931SOL    HW219641   0.730   8.048   2.764 -0.7903 -0.6500  0.8869
 4932SOL     OW19642   0.935   8.938   5.648 -0.1644  0.4038  0.1937
 4932SOL    HW119643   0.843   8.919   5.627 -0.1865 -0.3547  0.9494
 4932SOL    HW219644   0.943   8.917   5.741  0.9689 -0.2655 -0.0526
 4933SOL     OW19645   1.981   8.319   4.401  0.0985 -0.2793 -0.6440
 4933SOL    HW119646   1.892   8.352   4.400  0.8045  1.6942 -1.0412
 4933SOL    HW219647   1.993   8.285   4.490  0.1434  2.8851  0.6080
 4934SOL     OW19648   2.274   9.096   5.782  0.4352 -0.2543 -0.0137
 4934SOL    HW119649   2.260   9.166   5.719 -0.6637 -0.9015 -0.4947
 4934SOL    HW219650   2.186   9.065   5.805  0.9522 -3.5670 -2.1878
 4935SOL     OW19651   0.140   8.013   5.875 -0.1174 -0.4373 -0.2747
 4935SOL    HW119652   0.199   7.991   5.803 -0.2146 -2.9956  0.3940
 4935SOL    HW219653   0.078   7.940   5.878 -1.0888  0.4280  1.4005
 4936SOL     OW19654   0.316   7.663   4.922 -0.0891  0.8912 -0.3153
 4936SOL    HW119655   0.250   7.671   4.991  0.5334  1.3185  0.2382
 4936SOL    HW219656   0.306   7.742   4.870  0.0344  0.9842 -0.1960
 4937SOL     OW19657   0.794   9.329   4.657 -0.6272  0.1917 -0.1084
 4937SOL    HW119658   0.871   9.272   4.649 -1.8946 -1.2491 -2.5047
 4937SOL    HW219659   0.809   9.398   4.593 -0.6050  0.8173  0.5615
 4938SOL     OW19660   0.810   7.804   4.842 -0.7335  0.3805 -0.7951
 4938SOL    HW119661   0.886   7.779   4.895 -0.4176  1.2295 -0.8423
 4938SOL    HW219662   0.797   7.897   4.860 -0.9138  0.5697 -1.8407
 4939SOL     OW19663   0.052   6.596   5.908 -0.0560 -0.1134 -0.0160
 4939SOL    HW119664   0.108   6.534   5.956  1.8275  1.9599  0.5776
 4939SOL    HW219665   0.099   6.612   5.827  0.3326  1.7787  0.5618
 4940SOL     OW19666   7.031   6.345   2.803 -0.4434  0.1405  0.2876
 4940SOL    HW119667   7.004   6.276   2.742  1.3035 -0.8366  0.5704
 4940SOL    HW219668   7.053   6.419   2.746  1.7623 -0.9675 -0.3730
 4941SOL     OW19669   1.509   8.853   4.597  0.4627 -0.3452  0.7228
 4941SOL    HW119670   1.523   8.830   4.505  0.6164 -1.1830  0.9494
 4941SOL    HW219671   1.513   8.769   4.643  0.1457  0.0452  1.4632
 4942SOL     OW19672   1.837   8.811   6.209  0.3344  0.2583 -0.3450
 4942SOL    HW119673   1.742   8.801   6.212  0.0908  1.9019 -1.8035
 4942SOL    HW219674   1.870   8.741   6.265 -1.7935  0.6406  1.4731
 4943SOL     OW19675   1.731   7.702   4.688  0.3815  0.1094 -0.0177
 4943SOL    HW119676   1.697   7.628   4.637 -1.8947  0.7691  0.4844
 4943SOL    HW219677   1.653   7.742   4.727  1.7597  1.7019  1.1702
 4944SOL     OW19678   0.282   7.684   3.376 -0.2379 -0.1548 -0.1641
 4944SOL    HW119679   0.213   7.630   3.337  0.5382 -1.4146  0.1712
 4944SOL    HW219680   0.253   7.774   3.362 -2.6155 -0.6813  1.1730
 4945SOL     OW19681   9.794   9.268   5.508 -0.2752 -0.5354  0.1646
 4945SOL    HW119682   9.745   9.300   5.584 -0.9586 -1.8207  0.2717
 4945SOL    HW219683   9.786   9.173   5.513  2.4810 -0.8071  0.3552
 4946SOL     OW19684   0.762   7.388   3.741  0.0715  0.2648  0.4918
 4946SOL    HW119685   0.832   7.385   3.676 -0.5116  0.3974 -0.1581
 4946SOL    HW219686   0.713   7.468   3.720 -0.3970  0.0660  0.8049
 4947SOL     OW19687   0.160   8.360   5.248  0.1477 -0.1220  0.0082
 4947SOL    HW119688   0.110   8.418   5.191  0.5916  0.5244  0.2692
 4947SOL    HW219689   0.245   8.402   5.257  1.4760 -2.2237 -2.0854
 4948SOL     OW19690   1.240   8.084   5.329 -0.2012 -0.0920  0.5582
 4948SOL    HW119691   1.194   8.003   5.312 -0.8775  0.1051  1.3983
 4948SOL    HW219692   1.329   8.069   5.298 -0.7197 -0.6236 -0.6768
 4949SOL     OW19693   0.486   8.665   3.627 -0.0264 -0.1588 -0.2110
 4949SOL    HW119694   0.515   8.656   3.537  0.2069  0.9943 -0.2600
 4949SOL    HW219695   0.414   8.728   3.623 -0.2096 -0.3291  0.3600
 4950SOL     OW19696   1.980   6.532   7.427 -0.1070  0.2110 -0.6518
 4950SOL    HW119697   1.975   6.618   7.468 -1.8030  0.0928 -0.5532
 4950SOL    HW219698   1.993   6.471   7.500 -1.3361  0.1742 -0.4399
 4951SOL     OW19699   0.109   6.490   7.038  0.5604  0.3339  0.2937
 4951SOL    HW119700   0.153   6.474   7.122  0.6783 -0.5364  0.0737
 4951SOL    HW219701   0.097   6.585   7.034 -0.8359  0.2432  1.9886
 4952SOL     OW19702   1.261   6.654   5.199 -0.1006  0.2738  0.3468
 4952SOL    HW119703   1.267   6.707   5.120 -0.4731  0.6016  0.5364
 4952SOL    HW219704   1.212   6.576   5.173  0.5759 -0.0499  0.0325
 4953SOL     OW19705   0.172   9.109   7.240  0.4403 -0.2850 -0.0887
 4953SOL    HW119706   0.233   9.127   7.311  1.5911 -1.4856 -0.7469
 4953SOL    HW219707   0.086   9.105   7.282  1.2718 -2.5579  1.5147
 4954SOL     OW19708   0.217   8.369   6.549  0.2902  0.4363 -0.0523
 4954SOL    HW119709   0.301   8.358   6.505  0.3735 -1.3012  0.4979
 4954SOL    HW219710   0.237   8.424   6.626  0.1787  3.2973 -1.9792
 4955SOL     OW19711   9.869   0.255   6.793 -0.1957 -0.5149 -0.7165
 4955SOL    HW119712   9.912   0.286   6.872 -0.8858 -0.5309 -0.3347
 4955SOL    HW219713   9.822   0.331   6.759  1.0479 -0.2003 -1.7509
 4956SOL     OW19714   0.459   9.977   6.127  0.6564 -0.1215  0.2059
 4956SOL    HW119715   0.367   9.985   6.100  0.7125 -1.2670 -0.3452
 4956SOL    HW219716   0.468  10.040   6.199 -0.1797  1.0804 -0.7029
 4957SOL     OW19717   2.170   8.685   7.154 -0.2325 -0.0676  0.1340
 4957SOL    HW119718   2.094   8.644   7.114 -0.9635  0.7974  0.6358
 4957SOL    HW219719   2.134   8.747   7.217  0.8446  1.4451 -0.7023
 4958SOL     OW19720   2.322   0.089   7.309  0.7621  0.1223 -0.6461
 4958SOL    HW119721   2.308   0.108   7.217  1.4460  1.4503 -0.4943
 4958SOL    HW219722   2.270   0.153   7.356  0.6925 -0.3220 -0.1014
 4959SOL     OW19723   0.208   8.159   7.210 -0.5205 -0.4644 -0.2688
 4959SOL    HW119724   0.274   8.214   7.169 -0.6030 -0.8421 -0.9217
 4959SOL    HW219725   0.190   8.091   7.145 -1.2933 -0.5676  0.0425
 4960SOL     OW19726   9.534   7.771   7.464  0.4758 -0.5202 -0.5672
 4960SOL    HW119727   9.574   7.802   7.383  1.6638  0.2671  0.3122
 4960SOL    HW219728   9.558   7.836   7.530  0.0170 -1.4624  0.5484
 4961SOL     OW19729   0.826   7.145   4.826 -0.4683  0.2293 -0.3463
 4961SOL    HW119730   0.855   7.148   4.917 -0.3526  1.1356 -0.4151
 4961SOL    HW219731   0.804   7.235   4.804  0.0944  0.1203 -1.4133
 4962SOL     OW19732   0.713   9.311   5.181  0.2797 -0.0273  0.1953
 4962SOL    HW119733   0.637   9.252   5.180  0.1680  0.0377  2.3353
 4962SOL    HW219734   0.693   9.375   5.249  2.4630 -0.3217  1.1596
 4963SOL     OW19735   0.505   8.257   7.077 -0.1910 -0.2941 -0.8307
 4963SOL    HW119736   0.425   8.306   7.055  1.9493  2.8374 -2.0911
 4963SOL    HW219737   0.541   8.303   7.153  0.5750 -1.4555 -0.4798
 4964SOL     OW19738   0.893   0.284   6.841  0.0595  0.0275 -0.1769
 4964SOL    HW119739   0.800   0.307   6.835  0.2044  0.4704 -0.7775
 4964SOL    HW219740   0.938   0.351   6.790  0.7742  0.1855  0.6533
 4965SOL     OW19741   1.124   8.202   6.221  0.4698  0.0892 -0.4693
 4965SOL    HW119742   1.201   8.257   6.234  0.1312  0.8226 -1.4744
 4965SOL    HW219743   1.112   8.156   6.304  3.5924 -2.0724 -1.1350
 4966SOL     OW19744   0.535   8.682   6.731 -0.2013 -0.2519  0.1237
 4966SOL    HW119745   0.503   8.592   6.726  1.9041 -1.1631  2.2030
 4966SOL    HW219746   0.469   8.727   6.784 -1.5956 -0.3838 -1.4625
 4967SOL     OW19747   0.392   8.350   6.018 -0.6240  0.7869 -0.2442
 4967SOL    HW119748   0.392   8.439   6.055  0.3572  1.4906 -1.8633
 4967SOL    HW219749   0.484   8.328   6.009 -0.8738 -0.5235  0.4184
 4968SOL     OW19750   1.308   7.535   7.146 -0.0338 -0.3143  0.0237
 4968SOL    HW119751   1.310   7.458   7.203 -0.9977 -0.0707  0.3990
 4968SOL    HW219752   1.226   7.579   7.169 -1.5779 -1.4311 -3.1556
 4969SOL     OW19753   0.275   7.171   7.313 -0.1736  0.4321 -0.0369
 4969SOL    HW119754   0.247   7.228   7.384 -0.6746 -1.1793  1.0861
 4969SOL    HW219755   0.193   7.131   7.282  0.3862 -1.1261  0.4708
 4970SOL     OW19756   1.776   8.345   5.681 -0.1040  0.0846 -0.4327
 4970SOL    HW119757   1.834   8.367   5.754  1.7610  0.7549 -2.0626
 4970SOL    HW219758   1.803   8.257   5.655  0.0715  0.3389 -1.1081
 4971SOL     OW19759   9.823   9.466   5.304 -0.5086  0.1302 -0.3713
 4971SOL    HW119760   9.818   9.408   5.380  1.6750  1.1054  0.5663
 4971SOL    HW219761   9.844   9.407   5.231  3.2363 -0.2000  0.8282
 4972SOL     OW19762   1.455   8.116   5.551  1.0785  0.1010  0.3664
 4972SOL    HW119763   1.445   8.187   5.487 -0.1473  0.1997  0.6594
 4972SOL    HW219764   1.387   8.133   5.616  2.1803 -0.1311  1.5870
 4973SOL     OW19765   2.595   6.509   5.572  0.3632  0.7015  0.3375
 4973SOL    HW119766   2.586   6.446   5.644 -1.5017  0.2936 -0.2227
 4973SOL    HW219767   2.652   6.465   5.509 -0.1999 -0.0737  0.3561
 4974SOL     OW19768   0.046   8.278   6.946  0.1227 -0.3913  0.0834
 4974SOL    HW119769   0.016   8.195   6.982 -0.3134 -0.8453 -1.3347
 4974SOL    HW219770  -0.006   8.344   6.992 -1.6465 -1.0581 -0.9272
 4975SOL     OW19771   2.115   8.258   6.367  0.0274 -0.0918  0.8387
 4975SOL    HW119772   2.075   8.192   6.311 -0.4968  1.1254 -0.2379
 4975SOL    HW219773   2.047   8.324   6.381  1.0193  1.0178  0.5934
 4976SOL     OW19774   0.923   7.995   7.255 -0.2190 -0.6242 -0.2691
 4976SOL    HW119775   0.883   7.971   7.339 -1.1473 -0.8294 -0.7641
 4976SOL    HW219776   0.849   7.998   7.193  0.5912 -1.5266 -1.3039
 4977SOL     OW19777   0.594   7.172   5.775  0.2357  0.2252 -0.3404
 4977SOL    HW119778   0.534   7.226   5.724 -1.0473 -0.2321  0.6469
 4977SOL    HW219779   0.646   7.125   5.710 -1.7905 -0.8279 -1.2599
 4978SOL     OW19780   2.717   9.366   7.400 -0.0594 -0.2173  0.1357
 4978SOL    HW119781   2.748   9.409   7.480 -1.3132 -0.3172  0.6769
 4978SOL    HW219782   2.690   9.438   7.343 -1.7317 -0.2517  0.8665
 4979SOL     OW19783   9.549   8.750   5.442  0.3861 -0.2085 -0.3157
 4979SOL    HW119784   9.565   8.686   5.373 -0.6828 -0.5783 -0.2217
 4979SOL    HW219785   9.494   8.817   5.401 -0.5160 -0.5913  0.2651
 4980SOL     OW19786   2.033   0.333   6.822 -0.2633  0.1812  0.4704
 4980SOL    HW119787   2.015   0.271   6.751 -0.4344  0.1201  0.5651
 4980SOL    HW219788   1.970   0.309   6.890 -0.8680  0.9660  0.1956
 4981SOL     OW19789   0.188   8.450   7.943  0.0821 -0.9211 -0.2905
 4981SOL    HW119790   0.211   8.540   7.966 -0.9200 -0.7017 -0.1214
 4981SOL    HW219791   0.133   8.459   7.864 -0.3898 -1.3506 -0.0103
 4982SOL     OW19792   0.296   7.569   6.218  0.2873  0.9553  0.0282
 4982SOL    HW119793   0.246   7.603   6.292 -0.7492 -0.1263 -0.1542
 4982SOL    HW219794   0.313   7.646   6.163 -0.6219  1.4542  0.4205
 4983SOL     OW19795   2.283   8.451   5.935  0.9294 -0.0285  0.2633
 4983SOL    HW119796   2.257   8.373   5.886 -0.9253 -0.3634  1.7430
 4983SOL    HW219797   2.352   8.491   5.881  0.6706 -1.7239 -1.3729
 4984SOL     OW19798   9.023   7.395   6.385  0.1210  0.0117 -0.3678
 4984SOL    HW119799   9.101   7.440   6.354  0.9321 -0.5857  0.7649
 4984SOL    HW219800   9.057   7.319   6.433 -1.1092  0.3905  1.1288
 4985SOL     OW19801   0.150   7.980   6.762 -0.1121  0.4875 -0.1223
 4985SOL    HW119802   0.152   7.992   6.857  0.8528  0.8682 -0.1881
 4985SOL    HW219803   0.167   7.886   6.749 -1.4254  0.2013  0.1217
 4986SOL     OW19804   1.032   9.167   4.561 -0.4208  0.2210  0.2591
 4986SOL    HW119805   1.087   9.234   4.519 -1.4626  1.8839  1.4495
 4986SOL    HW219806   0.989   9.123   4.488 -1.7801  2.6969 -0.5259
 4987SOL     OW19807   9.286   7.398   8.241  0.1334  0.6191  0.1707
 4987SOL    HW119808   9.288   7.302   8.234 -1.5719  0.4528  1.7991
 4987SOL    HW219809   9.337   7.417   8.320  0.3300  1.0521 -0.0613
 4988SOL     OW19810   1.081   7.384   5.891  0.2069 -0.0426 -0.2097
 4988SOL    HW119811   1.001   7.333   5.905  0.9596 -1.0342  0.5158
 4988SOL    HW219812   1.077   7.453   5.958 -0.8803  0.9775 -1.2843
 4989SOL     OW19813   1.716   6.357   6.664  0.2773 -0.5473  0.4284
 4989SOL    HW119814   1.790   6.342   6.722  1.0255 -0.7402 -0.5769
 4989SOL    HW219815   1.722   6.450   6.641  0.5501 -0.7061 -0.1337
 4990SOL     OW19816   0.842   9.586   4.535 -0.5715 -0.2956 -0.1965
 4990SOL    HW119817   0.887   9.655   4.486  0.9338 -0.8513  0.3637
 4990SOL    HW219818   0.752   9.616   4.542 -0.1772  1.0930 -0.9109
 4991SOL     OW19819   0.600   7.317   6.512  0.0670  0.6602  0.4990
 4991SOL    HW119820   0.536   7.319   6.441  2.0231  2.1586 -1.2768
 4991SOL    HW219821   0.593   7.403   6.554 -0.8960 -0.1241  1.9667
 4992SOL     OW19822   1.568   8.253   5.239 -0.1695  0.9433  0.3394
 4992SOL    HW119823   1.539   8.344   5.243 -0.3795  0.8582  0.7494
 4992SOL    HW219824   1.582   8.236   5.146  2.4805  2.2119  0.4864
 4993SOL     OW19825   2.968   8.636   6.905 -0.3590  0.0690  0.2872
 4993SOL    HW119826   3.055   8.629   6.944  0.4125 -2.1048 -1.6588
 4993SOL    HW219827   2.967   8.721   6.863  0.4222  0.5535  1.2236
 4994SOL     OW19828   2.084   8.268   4.665 -0.0926  0.1930  0.3584
 4994SOL    HW119829   2.048   8.190   4.707  0.5250 -0.0844  0.3757
 4994SOL    HW219830   2.114   8.322   4.738 -2.7595  1.5728  0.4927
 4995SOL     OW19831   1.459   6.782   7.220  0.2522 -0.5405 -0.6853
 4995SOL    HW119832   1.375   6.826   7.207  1.3187  2.1115  0.8353
 4995SOL    HW219833   1.520   6.829   7.162  1.1107 -1.0621 -0.2219
 4996SOL     OW19834   0.216   0.325   6.564 -0.3571  0.1130 -0.0872
 4996SOL    HW119835   0.301   0.291   6.591  0.9081  2.3413 -1.1398
 4996SOL    HW219836   0.231   0.362   6.477 -2.2505  1.0721 -0.0267
 4997SOL     OW19837   9.986   8.850   7.590  0.0693 -0.6657  0.9658
 4997SOL    HW119838   9.987   8.754   7.591  2.1148 -0.6563  1.7149
 4997SOL    HW219839   9.927   8.873   7.661  0.5082 -1.3778  1.5741
 4998SOL     OW19840   2.278   9.343   6.309 -0.0895  0.6347 -0.4236
 4998SOL    HW119841   2.366   9.376   6.323 -0.1934  0.3494  1.0011
 4998SOL    HW219842   2.221   9.406   6.353 -0.4891  0.0619 -0.1060
 4999SOL     OW19843   1.217   8.644   5.566 -0.4546  0.3639 -0.1837
 4999SOL    HW119844   1.288   8.580   5.561 -1.9507 -1.3134 -0.3989
 4999SOL    HW219845   1.209   8.679   5.478  1.3860  1.9927  0.2776
 5000SOL     OW19846   2.398   7.080   4.555 -0.3378 -0.6393  0.1772
 5000SOL    HW119847   2.454   7.127   4.617  1.3331  0.9288 -2.4101
 5000SOL    HW219848   2.422   6.988   4.566  1.6909 -0.1291  0.1723
 5001SOL     OW19849   1.158   6.405   5.049  1.1619  0.0845 -0.6153
 5001SOL    HW119850   1.153   6.338   5.117  1.2198  1.6978  0.9964
 5001SOL    HW219851   1.191   6.358   4.972 -0.3757 -2.0942  0.0064
 5002SOL     OW19852   1.464   8.825   7.235 -0.7757 -0.2976  0.3781
 5002SOL    HW119853   1.406   8.815   7.310 -1.8760 -0.0741 -0.4380
 5002SOL    HW219854   1.411   8.803   7.159  0.6317 -1.5692 -0.2726
 5003SOL     OW19855   1.312   9.516   5.149 -0.2690 -0.1455  0.2837
 5003SOL    HW119856   1.338   9.606   5.134 -0.2870 -0.3555 -1.1179
 5003SOL    HW219857   1.394   9.468   5.160 -0.3295  0.4150  3.4455
 5004SOL     OW19858   0.425   9.811   5.866 -0.4216  0.5384 -0.2427
 5004SOL    HW119859   0.431   9.751   5.940 -0.5992 -0.3671 -0.9555
 5004SOL    HW219860   0.369   9.883   5.897 -0.5101  0.1544  0.4889
 5005SOL     OW19861   0.135   9.267   6.623 -0.7885  0.3033 -0.1210
 5005SOL    HW119862   0.226   9.251   6.597 -1.0346  1.9655 -2.1268
 5005SOL    HW219863   0.089   9.186   6.600  0.3925 -1.1136  2.2347
 5006SOL     OW19864   2.434   6.137   5.355 -0.5709 -0.0757  0.4425
 5006SOL    HW119865   2.391   6.059   5.389 -0.6151 -0.8211 -1.2986
 5006SOL    HW219866   2.483   6.106   5.279 -2.1817  1.9332 -1.4724
 5007SOL     OW19867   9.327   9.765   7.396 -0.0562 -0.2469 -0.6277
 5007SOL    HW119868   9.324   9.797   7.306 -0.2430  0.5625 -0.3343
 5007SOL    HW219869   9.251   9.708   7.405 -1.1451  1.2165 -0.4024
 5008SOL     OW19870   0.941   9.329   6.000  0.4167 -0.2219  0.2396
 5008SOL    HW119871   0.881   9.258   5.976 -0.5670  0.2462  1.2335
 5008SOL    HW219872   1.028   9.288   6.000  0.2018 -0.7585 -1.8700
 5009SOL     OW19873   1.574   7.721   6.664  0.0865 -0.3697 -0.5979
 5009SOL    HW119874   1.543   7.684   6.747  2.4637  0.3077  0.6206
 5009SOL    HW219875   1.584   7.814   6.681 -0.7906  0.0067 -2.0922
 5010SOL     OW19876   9.326   7.068   6.366  0.5617  0.1649  0.8561
 5010SOL    HW119877   9.358   6.978   6.362  2.1905  0.6924  1.7910
 5010SOL    HW219878   9.394   7.120   6.323 -0.9516  0.8311 -0.8212
 5011SOL     OW19879   0.158   6.994   5.452  0.4094  0.7326  0.1076
 5011SOL    HW119880   0.096   7.019   5.520  3.3921 -0.1821  3.3320
 5011SOL    HW219881   0.189   7.076   5.415 -0.3732  1.2889  0.6952
 5012SOL     OW19882   1.079   6.507   6.239  0.8789  0.7139 -0.1938
 5012SOL    HW119883   0.994   6.468   6.220  0.4791 -0.5441  3.6033
 5012SOL    HW219884   1.143   6.443   6.207  0.4057  1.0360 -1.8278
 5013SOL     OW19885   1.508   8.443   5.801 -0.4992  0.5034  0.5493
 5013SOL    HW119886   1.579   8.465   5.862  0.1127 -0.4392  0.1866
 5013SOL    HW219887   1.542   8.467   5.715 -0.5427 -0.1555  0.3510
 5014SOL     OW19888   9.924   7.418   7.053  0.6292 -0.2145  0.4802
 5014SOL    HW119889   9.846   7.374   7.021  0.9458 -0.5761  0.1901
 5014SOL    HW219890   9.949   7.478   6.982  0.3638  0.2240  0.7564
 5015SOL     OW19891   1.478   8.139   6.606  0.7140  0.2736 -0.5556
 5015SOL    HW119892   1.386   8.127   6.630  1.1543  0.8574  1.5542
 5015SOL    HW219893   1.485   8.233   6.586  1.5976  1.0316  2.9533
 5016SOL     OW19894   1.509   8.387   7.716 -0.5185 -0.3963 -0.5581
 5016SOL    HW119895   1.487   8.439   7.793 -1.6649  0.6614 -1.5666
 5016SOL    HW219896   1.545   8.306   7.751 -0.6795  0.2142  1.0762
 5017SOL     OW19897   8.885   7.283   6.742 -0.2236  0.2304  0.0811
 5017SOL    HW119898   8.894   7.187   6.742 -2.4154 -0.0358 -0.7033
 5017SOL    HW219899   8.821   7.301   6.811  0.6548  1.1813  0.6400
 5018SOL     OW19900   2.176   9.980   6.197 -0.5630  0.0441  0.0978
 5018SOL    HW119901   2.096   9.979   6.146  0.6085  0.5535 -1.8115
 5018SOL    HW219902   2.208   9.890   6.195 -0.6793  0.0001  0.2205
 5019SOL     OW19903   0.483   7.264   4.743 -0.0358 -0.1328 -0.4449
 5019SOL    HW119904   0.549   7.321   4.782 -1.0963 -1.2013  3.0517
 5019SOL    HW219905   0.406   7.319   4.734 -0.3879 -0.4080  0.8466
 5020SOL     OW19906   1.958   8.034   6.600 -0.5265  0.1156 -0.1043
 5020SOL    HW119907   2.023   7.963   6.590 -0.6732  0.0735 -0.7479
 5020SOL    HW219908   2.008   8.114   6.585 -0.4895  0.1180  0.0265
 5021SOL     OW19909   2.147   8.314   7.317 -0.1268 -0.1659  0.2059
 5021SOL    HW119910   2.057   8.334   7.291  0.3786  0.4662 -1.1184
 5021SOL    HW219911   2.151   8.337   7.410 -1.0708  0.7030  0.0419
 5022SOL     OW19912   2.893   8.333   6.299  0.3462 -0.7370 -0.1452
 5022SOL    HW119913   2.845   8.344   6.217 -1.7123 -1.3087  0.9258
 5022SOL    HW219914   2.879   8.415   6.346  0.5755 -0.8442  0.1086
 5023SOL     OW19915   0.000   9.144   6.087  0.0536 -0.1817 -0.2555
 5023SOL    HW119916   0.067   9.104   6.143  0.4395  2.1199  1.0168
 5023SOL    HW219917  -0.082   9.106   6.117  0.5432 -1.1224 -0.0803
 5024SOL     OW19918   1.250   9.415   8.698  0.0155 -0.3098  1.0817
 5024SOL    HW119919   1.337   9.411   8.738  1.2423  0.6092 -1.3877
 5024SOL    HW219920   1.198   9.350   8.745  2.1769 -1.1793  2.2960
 5025SOL     OW19921   2.641   5.607   5.374  0.4603 -0.1188  0.2490
 5025SOL    HW119922   2.704   5.600   5.301 -1.7539 -1.5316 -1.6109
 5025SOL    HW219923   2.674   5.545   5.439  1.9118  0.3846  0.0078
 5026SOL     OW19924   9.066   7.846   8.931 -0.0835 -0.0793  0.4236
 5026SOL    HW119925   9.011   7.803   8.866  0.6836 -0.1950 -0.1669
 5026SOL    HW219926   9.088   7.931   8.891  2.8107 -1.3460 -0.7978
 5027SOL     OW19927   1.602   8.826   5.928 -0.0479 -0.2797  0.1766
 5027SOL    HW119928   1.627   8.874   6.007  2.0300 -0.8771 -0.0933
 5027SOL    HW219929   1.636   8.880   5.856 -0.9051 -0.3299 -0.2682
 5028SOL     OW19930   2.916   7.467   6.812  0.6515 -0.4961  0.0043
 5028SOL    HW119931   2.856   7.522   6.762  0.8290  0.6152  1.0014
 5028SOL    HW219932   2.864   7.391   6.837 -0.0255 -0.0538 -0.0560
 5029SOL     OW19933   1.510   7.757   7.121 -0.8234  0.3118 -0.1640
 5029SOL    HW119934   1.448   7.725   7.187  1.4446 -2.6037  0.6549
 5029SOL    HW219935   1.558   7.827   7.166 -0.9581 -0.0024  0.4869
 5030SOL     OW19936   2.211   7.942   5.349 -0.1916 -0.5541  0.5068
 5030SOL    HW119937   2.157   7.901   5.417 -1.3247 -0.9317 -0.6119
 5030SOL    HW219938   2.166   8.024   5.329 -0.2533 -0.7816 -0.2995
 5031SOL     OW19939   3.158   9.024   6.218 -0.8549 -0.2428  0.1380
 5031SOL    HW119940   3.220   8.951   6.212 -0.8598 -0.2311 -0.0641
 5031SOL    HW219941   3.182   9.082   6.145 -0.3568  0.3391  0.7592
 5032SOL     OW19942   0.571   7.945   5.846  0.4409  0.2426  0.9212
 5032SOL    HW119943   0.620   7.914   5.770  1.5403  1.4746  1.1098
 5032SOL    HW219944   0.482   7.961   5.813  0.8183  0.4165 -0.0244
 5033SOL     OW19945   9.664   8.191   7.085  0.1830  0.3290  0.3550
 5033SOL    HW119946   9.617   8.131   7.143 -0.4908  0.1468 -0.3753
 5033SOL    HW219947   9.745   8.146   7.064  0.2749  0.2449  0.8708
 5034SOL     OW19948   0.941   8.201   5.945 -0.0459  0.0133 -0.1052
 5034SOL    HW119949   0.917   8.176   6.034 -1.8023  2.5781  0.1813
 5034SOL    HW219950   0.982   8.287   5.954 -0.9392  0.6459 -1.8450
 5035SOL     OW19951   8.188   7.756   6.359 -0.2321  0.1897  0.2249
 5035SOL    HW119952   8.183   7.678   6.304  2.3267  0.6001 -0.6664
 5035SOL    HW219953   8.240   7.729   6.435 -0.6813  0.6072  0.6846
 5036SOL     OW19954   1.637   8.749   8.029  0.4054 -0.1093  0.0123
 5036SOL    HW119955   1.660   8.765   8.120  0.0049  2.9766 -0.3800
 5036SOL    HW219956   1.561   8.804   8.013  0.4545 -0.6061 -2.2096
 5037SOL     OW19957   3.424   9.582   6.265 -0.1324  0.0562 -0.1648
 5037SOL    HW119958   3.408   9.532   6.346  0.8019 -0.6107 -0.3823
 5037SOL    HW219959   3.379   9.665   6.279 -0.1981 -0.1546  0.9377
 5038SOL     OW19960   1.972   8.630   5.745 -1.2273  0.4256  0.5189
 5038SOL    HW119961   1.963   8.717   5.706 -1.7261  0.1393 -0.0180
 5038SOL    HW219962   2.002   8.574   5.673  0.6463  0.4665  1.2465
 5039SOL     OW19963   2.098   9.158   5.413  1.0677 -0.5926  0.5032
 5039SOL    HW119964   2.129   9.245   5.387  2.1955 -0.5435  1.9571
 5039SOL    HW219965   2.041   9.175   5.488 -2.8428 -0.6548 -2.2611
 5040SOL     OW19966   2.914   7.779   6.260 -0.7358 -0.6057  0.7573
 5040SOL    HW119967   2.868   7.820   6.187  1.0317 -0.1236 -0.1216
 5040SOL    HW219968   2.906   7.842   6.332  1.8246  1.2935 -0.5403
 5041SOL     OW19969   0.196   6.451   7.320  0.6286 -0.2345  0.1798
 5041SOL    HW119970   0.118   6.506   7.322  2.7551  2.9002  0.8392
 5041SOL    HW219971   0.169   6.368   7.359 -2.4181  0.6796  0.0827
 5042SOL     OW19972   9.730   7.913   6.045 -0.0886 -0.0621  0.3685
 5042SOL    HW119973   9.670   7.857   6.095 -0.7156  0.2834  0.0142
 5042SOL    HW219974   9.689   7.999   6.045  1.6285  0.7911  2.2081
 5043SOL     OW19975   9.943   8.744   6.179  0.0801  0.0372 -0.2773
 5043SOL    HW119976   9.894   8.675   6.135  0.3068 -1.5806  1.9350
 5043SOL    HW219977   9.920   8.824   6.131 -1.2430 -1.3446 -2.0240
 5044SOL     OW19978   9.346   8.072   6.049 -0.4048 -0.0967  0.1557
 5044SOL    HW119979   9.434   8.095   6.079 -0.2943  1.4276 -1.2691
 5044SOL    HW219980   9.296   8.154   6.053 -2.1352 -1.1976  2.1280
 5045SOL     OW19981   1.164   7.041   6.391 -0.2727 -0.9596 -0.1565
 5045SOL    HW119982   1.100   6.974   6.370 -1.3423 -0.4801  1.4988
 5045SOL    HW219983   1.112   7.115   6.421  0.9588  0.1916 -0.7824
 5046SOL     OW19984   9.512   8.914   6.292  0.1446  0.6208  0.5804
 5046SOL    HW119985   9.599   8.886   6.318  0.5355  1.6176  0.3790
 5046SOL    HW219986   9.523   9.006   6.269 -1.4976  1.4852  3.0717
 5047SOL     OW19987   2.695   8.969   5.702  0.5166 -0.6534  0.0744
 5047SOL    HW119988   2.636   8.940   5.633 -1.0186  0.1467  1.0168
 5047SOL    HW219989   2.711   8.891   5.754  0.7768 -1.0108 -0.5386
 5048SOL     OW19990   9.712   8.626   5.917 -0.4237 -0.2687 -0.1391
 5048SOL    HW119991   9.656   8.676   5.857  1.8042 -0.1164 -2.1603
 5048SOL    HW219992   9.800   8.661   5.901  0.9043 -3.5499 -0.2514
 5049SOL     OW19993   1.945   8.545   5.470 -0.3527 -0.0090  0.3630
 5049SOL    HW119994   1.961   8.481   5.401  0.2458  0.2504  0.2607
 5049SOL    HW219995   1.856   8.576   5.454 -0.3544 -0.2350 -0.0577
 5050SOL     OW19996   1.918   8.868   6.740 -0.6909 -0.1891  0.0286
 5050SOL    HW119997   1.924   8.958   6.709 -0.1986  0.1692  1.1505
 5050SOL    HW219998   1.904   8.876   6.834 -0.1870 -1.2904  0.1990
 5051SOL     OW19999   0.404   8.250   8.350 -0.2234 -0.1278  0.0796
 5051SOL    HW120000   0.351   8.276   8.275  1.2271  1.6183 -0.3922
 5051SOL    HW220001   0.495   8.264   8.321  0.4230 -1.3089  1.4829
 5052SOL     OW20002   1.329   9.678   7.213 -0.9533  0.1763  0.0782
 5052SOL    HW120003   1.261   9.621   7.177 -0.0651 -1.2050  0.5441
 5052SOL    HW220004   1.297   9.702   7.300 -2.0887  1.7466 -0.7503
 5053SOL     OW20005   9.015   7.156   8.511 -0.3878 -0.1756 -0.3839
 5053SOL    HW120006   9.015   7.251   8.516  0.7375 -0.2724  2.0437
 5053SOL    HW220007   8.924   7.131   8.531 -0.4133  0.3484  0.1559
 5054SOL     OW20008   0.729   8.343   8.243  0.3475  1.2421 -0.0962
 5054SOL    HW120009   0.812   8.381   8.213  0.2570  0.6088 -1.1516
 5054SOL    HW220010   0.671   8.348   8.167  0.3075 -0.9039 -0.2322
 5055SOL     OW20011   2.505   7.841   6.155 -0.1277  0.4304  0.2487
 5055SOL    HW120012   2.416   7.808   6.142 -0.4006  2.0950 -2.6725
 5055SOL    HW220013   2.496   7.904   6.227 -0.9032 -0.9076  1.3365
 5056SOL     OW20014   0.702   6.988   7.390  0.1944  1.0161 -0.1946
 5056SOL    HW120015   0.757   7.065   7.375  0.1443  0.9683 -0.6356
 5056SOL    HW220016   0.763   6.914   7.386 -0.0439  0.8756 -1.7117
 5057SOL     OW20017   0.282   8.392   7.020 -0.4343 -0.0104 -0.0695
 5057SOL    HW120018   0.196   8.378   6.981 -0.0044 -0.4287 -0.8769
 5057SOL    HW220019   0.269   8.463   7.084 -1.3458 -0.0055 -0.2621
 5058SOL     OW20020   0.474   7.054   5.348 -0.1752 -0.1315  0.1975
 5058SOL    HW120021   0.484   6.984   5.283 -2.1830 -0.4156  0.1766
 5058SOL    HW220022   0.520   7.021   5.426 -0.1871 -1.0083 -0.1658
 5059SOL     OW20023   9.017   7.562   6.615  0.3023 -0.6104 -0.1929
 5059SOL    HW120024   9.038   7.484   6.665 -1.7320 -0.6564  0.6271
 5059SOL    HW220025   8.980   7.528   6.533 -1.3653 -0.5314  0.5081
 5060SOL     OW20026   0.647   9.849   5.655  0.1430  0.3813  0.5797
 5060SOL    HW120027   0.584   9.851   5.727 -0.6458  0.0152 -0.1058
 5060SOL    HW220028   0.604   9.895   5.583  0.6836  0.1966  0.1293
 5061SOL     OW20029   9.528   4.528   5.463 -0.0770 -0.5324 -0.1607
 5061SOL    HW120030   9.465   4.586   5.505  0.1562 -1.1469  1.0512
 5061SOL    HW220031   9.602   4.585   5.440 -0.1943 -0.2017  0.2831
 5062SOL     OW20032   2.451   7.007   5.304 -0.1965 -0.1640  0.8685
 5062SOL    HW120033   2.470   6.914   5.316  0.7011 -0.1684 -0.5093
 5062SOL    HW220034   2.532   7.052   5.327 -0.0458  0.1495 -0.2335
 5063SOL     OW20035   1.206   7.506   8.283  0.6084  0.2697  0.1927
 5063SOL    HW120036   1.295   7.526   8.255  0.1471 -0.6280 -2.0108
 5063SOL    HW220037   1.211   7.418   8.320  0.3438 -0.4821 -1.5139
 5064SOL     OW20038   2.338   7.852   7.210  0.5045 -0.4496 -0.1569
 5064SOL    HW120039   2.360   7.945   7.216  1.3159 -0.6557  0.0421
 5064SOL    HW220040   2.371   7.814   7.291 -1.0189 -0.6793  0.3831
 5065SOL     OW20041   2.050   8.122   7.069  0.6019  0.1026  0.3582
 5065SOL    HW120042   2.140   8.089   7.074  0.4381 -0.3116  0.6496
 5065SOL    HW220043   2.058   8.209   7.030  1.3205  0.8542  2.1438
 5066SOL     OW20044   2.396   7.517   6.365 -0.1561  0.5400  0.0108
 5066SOL    HW120045   2.402   7.493   6.273  0.8704 -0.9724  0.4569
 5066SOL    HW220046   2.486   7.513   6.397 -0.6426 -0.1263  1.3663
 5067SOL     OW20047   1.482   8.506   5.178 -0.3842 -0.0204  0.1294
 5067SOL    HW120048   1.417   8.569   5.147  0.9365  1.7032  0.8125
 5067SOL    HW220049   1.553   8.511   5.114 -0.1682 -0.6751  0.3108
 5068SOL     OW20050   9.961   9.460   7.619 -0.3558 -0.7310 -0.0611
 5068SOL    HW120051   9.946   9.367   7.601 -0.2146 -1.0802  1.5006
 5068SOL    HW220052   9.876   9.501   7.604 -0.3815 -1.0842 -0.9184
 5069SOL     OW20053   1.422   9.780   5.096  0.1448  0.0452  0.2761
 5069SOL    HW120054   1.491   9.840   5.125  1.3869 -1.8501  1.4116
 5069SOL    HW220055   1.457   9.741   5.016 -0.0632 -0.1454  0.2781
 5070SOL     OW20056   9.971   8.435   6.392  0.1194 -0.1503 -0.3188
 5070SOL    HW120057  10.044   8.419   6.452 -0.0774 -1.6313 -0.4733
 5070SOL    HW220058   9.939   8.523   6.416  1.0527 -0.0807  0.6769
 5071SOL     OW20059   0.893   6.772   7.372 -0.2706  0.7568 -0.0550
 5071SOL    HW120060   0.896   6.690   7.324 -0.7518 -0.2217  1.5818
 5071SOL    HW220061   0.968   6.768   7.431 -1.2782  0.7404  1.2366
 5072SOL     OW20062   0.970   8.596   5.361 -0.1139 -0.7363  0.5248
 5072SOL    HW120063   1.056   8.637   5.363 -0.6340  0.3149  1.8256
 5072SOL    HW220064   0.916   8.656   5.311  0.0092 -1.6192 -0.6842
 5073SOL     OW20065   9.671   7.394   5.167 -0.1320 -0.1894 -0.0215
 5073SOL    HW120066   9.654   7.399   5.261  0.6562  0.4045  0.0929
 5073SOL    HW220067   9.653   7.482   5.134  0.1309 -0.2501 -0.3365
 5074SOL     OW20068   1.958   7.804   6.342  0.5380  0.0780  0.3878
 5074SOL    HW120069   1.997   7.812   6.429 -0.4545 -0.0627  0.8508
 5074SOL    HW220070   1.881   7.861   6.345  0.1346 -0.4366 -0.1913
 5075SOL     OW20071   1.819   9.244   5.130 -0.3237 -0.2231  0.2376
 5075SOL    HW120072   1.757   9.272   5.063  0.1611 -0.1594 -0.1924
 5075SOL    HW220073   1.894   9.303   5.119  1.0373 -2.1790 -1.1921
 5076SOL     OW20074   2.166   7.503   6.015 -0.2888 -0.8325 -0.0335
 5076SOL    HW120075   2.256   7.494   6.048  1.2379  2.0917 -3.0895
 5076SOL    HW220076   2.118   7.544   6.087  1.1571 -1.1800  1.1622
 5077SOL     OW20077   0.909   6.521   7.562  0.3496 -0.1943  0.9664
 5077SOL    HW120078   0.816   6.537   7.548  0.5921  1.1445  0.7941
 5077SOL    HW220079   0.948   6.609   7.567  1.8446 -0.7308 -0.7260
 5078SOL     OW20080   0.844   7.300   6.725  0.2068  0.2185  0.0239
 5078SOL    HW120081   0.785   7.229   6.749  0.3069 -0.7392 -2.4033
 5078SOL    HW220082   0.791   7.379   6.733 -0.2634 -0.2411  1.5600
 5079SOL     OW20083   1.361   9.402   7.508 -0.5809  0.1076  0.2881
 5079SOL    HW120084   1.350   9.376   7.599  0.3841 -1.7596 -0.1065
 5079SOL    HW220085   1.438   9.458   7.508 -0.3653 -0.1875  0.5670
 5080SOL     OW20086   7.658   6.777   4.829 -0.3831  0.3748 -0.1586
 5080SOL    HW120087   7.581   6.761   4.883 -0.3785  0.6202 -0.0774
 5080SOL    HW220088   7.720   6.820   4.888  0.4887 -1.4146  0.2636
 5081SOL     OW20089   0.983   6.931   6.219 -0.1823  0.1303 -0.0609
 5081SOL    HW120090   0.986   6.917   6.124 -1.5909  0.4258 -0.1649
 5081SOL    HW220091   1.016   6.849   6.256 -0.0596 -0.1606 -0.7954
 5082SOL     OW20092   9.981   8.688   6.532 -0.1492 -0.5447  0.1023
 5082SOL    HW120093   9.971   8.729   6.618 -0.7699 -1.5032  0.4998
 5082SOL    HW220094  10.068   8.715   6.503 -0.5201  1.0224  0.3560
 5083SOL     OW20095   0.493   8.161   6.798  0.0011 -0.2793 -0.5215
 5083SOL    HW120096   0.415   8.109   6.815 -0.7562  0.5110 -1.4709
 5083SOL    HW220097   0.532   8.175   6.884 -2.8977  2.3590  0.4968
 5084SOL     OW20098   2.284   9.730   6.230 -0.0031  0.2857  0.1356
 5084SOL    HW120099   2.355   9.755   6.288 -0.0080 -1.9259  1.1213
 5084SOL    HW220100   2.212   9.705   6.288 -0.8367  0.3492 -0.8390
 5085SOL     OW20101   9.959   7.075   5.623 -0.3577 -0.4238 -0.0803
 5085SOL    HW120102   9.956   7.169   5.606 -0.1447 -0.2783  0.6487
 5085SOL    HW220103   9.877   7.041   5.586 -0.9195  0.2034  0.5728
 5086SOL     OW20104   8.943   6.185   5.174  0.0472  0.1886  0.0668
 5086SOL    HW120105   8.853   6.151   5.178 -0.1929  0.9239  1.4104
 5086SOL    HW220106   8.947   6.249   5.246  2.3764 -1.5874  1.5657
 5087SOL     OW20107   1.370   7.694   5.623 -0.2242  0.0807  0.4231
 5087SOL    HW120108   1.378   7.753   5.697 -0.3340 -1.0541  1.3490
 5087SOL    HW220109   1.460   7.672   5.599 -0.2199 -0.6612  1.1170
 5088SOL     OW20110   1.124   8.199   6.942 -0.0692  0.1460  0.2936
 5088SOL    HW120111   1.182   8.252   6.997 -0.0561 -0.9612  1.3800
 5088SOL    HW220112   1.036   8.217   6.975 -0.2280  0.8309 -0.4957
 5089SOL     OW20113   3.059   9.891   5.654 -0.8598 -0.1976 -0.2006
 5089SOL    HW120114   2.995   9.891   5.583 -2.0559  1.5311  0.8244
 5089SOL    HW220115   3.062   9.982   5.684  0.9374 -0.5572  0.8020
 5090SOL     OW20116   2.393   1.405   5.586 -0.6167 -0.4246  0.0406
 5090SOL    HW120117   2.401   1.414   5.491 -1.1244 -1.4081 -0.1037
 5090SOL    HW220118   2.361   1.490   5.616 -0.3678 -0.0835 -0.6561
 5091SOL     OW20119   1.366   0.123   8.256 -0.0812 -0.4378 -0.6691
 5091SOL    HW120120   1.357   0.042   8.206  1.1928 -0.9030 -0.1896
 5091SOL    HW220121   1.278   0.144   8.284 -0.4829 -1.4490 -1.1377
 5092SOL     OW20122   1.990   9.581   5.758 -0.4402 -0.4956  0.0992
 5092SOL    HW120123   1.989   9.597   5.852 -1.2478 -0.0584  0.0223
 5092SOL    HW220124   1.924   9.512   5.745 -0.3892 -0.4976 -0.1509
 5093SOL     OW20125   2.029   8.039   4.808 -0.1921  1.2896  0.4039
 5093SOL    HW120126   2.005   8.084   4.889 -1.0826  0.1437  0.7881
 5093SOL    HW220127   1.991   7.951   4.817 -1.7860  1.6937 -1.9994
 5094SOL     OW20128   8.762   0.582   8.034 -0.1561  0.7868 -0.2790
 5094SOL    HW120129   8.706   0.633   8.092 -0.0167  1.9523 -1.1441
 5094SOL    HW220130   8.844   0.632   8.029 -0.0233  0.4894 -1.1301
 5095SOL     OW20131   0.461   6.781   6.121  0.4841  0.0034 -0.0379
 5095SOL    HW120132   0.498   6.869   6.110 -0.0598  0.0125 -1.8936
 5095SOL    HW220133   0.392   6.775   6.054  0.6516 -1.9151 -0.0689
 5096SOL     OW20134   1.459   8.024   7.512  0.7067 -0.3191 -0.3609
 5096SOL    HW120135   1.449   7.954   7.448 -0.2077 -1.3234  0.8459
 5096SOL    HW220136   1.386   8.011   7.574  0.9674  1.2320  0.3117
 5097SOL     OW20137   9.690   9.656   4.734 -0.6308  0.0566 -0.0251
 5097SOL    HW120138   9.748   9.692   4.667  0.2228 -1.2447 -0.0153
 5097SOL    HW220139   9.728   9.685   4.817 -1.7198  1.7160 -0.0915
 5098SOL     OW20140   1.594   7.988   7.274  0.1287 -0.4516  0.6049
 5098SOL    HW120141   1.677   7.986   7.225  0.7195  0.4997  1.5417
 5098SOL    HW220142   1.533   8.030   7.213  0.1820 -1.6718 -0.3084
 5099SOL     OW20143   1.918   9.229   7.151  0.1472  0.1492  0.1442
 5099SOL    HW120144   1.845   9.217   7.212  1.4378  1.4887  2.0210
 5099SOL    HW220145   1.928   9.324   7.145  1.3336 -0.0237 -0.6066
 5100SOL     OW20146   9.804   6.721   5.806  0.1078 -0.5708 -0.3574
 5100SOL    HW120147   9.882   6.673   5.835  0.1121 -1.0606 -1.1390
 5100SOL    HW220148   9.741   6.652   5.783 -1.2081 -0.1692  1.9479
 5101SOL     OW20149   0.786   8.878   4.506 -0.1809  0.0264  0.0795
 5101SOL    HW120150   0.782   8.807   4.442 -1.0982 -0.2024  0.3910
 5101SOL    HW220151   0.699   8.918   4.504  0.2788  1.0392  0.0272
 5102SOL     OW20152   2.119   8.346   6.818  0.5591  0.9260 -0.0461
 5102SOL    HW120153   2.064   8.392   6.754  0.4527 -1.1149 -1.4598
 5102SOL    HW220154   2.083   8.371   6.903 -1.4119  1.0584 -0.8980
 5103SOL     OW20155   0.820   7.629   5.817  0.7157 -0.6784 -0.1611
 5103SOL    HW120156   0.793   7.597   5.731  0.4378 -0.5064 -0.1374
 5103SOL    HW220157   0.904   7.671   5.803  0.3982 -0.1362 -0.4532
 5104SOL     OW20158   2.798   9.513   6.108  0.2147  0.4397 -0.0032
 5104SOL    HW120159   2.859   9.471   6.168  1.3657  0.2093 -1.3237
 5104SOL    HW220160   2.763   9.587   6.158  2.3838  1.2223  0.4131
 5105SOL     OW20161   9.886   8.036   6.399 -0.1856 -0.3327 -0.1377
 5105SOL    HW120162   9.918   8.094   6.469 -1.7526 -1.8927  1.9500
 5105SOL    HW220163   9.819   8.087   6.354 -0.5248  0.0152  0.7475
 5106SOL     OW20164   0.563   9.411   6.810  0.3855  0.4341 -0.2703
 5106SOL    HW120165   0.547   9.474   6.881  1.1035  0.5806 -0.2425
 5106SOL    HW220166   0.655   9.389   6.818  0.8135  1.5115 -2.0282
 5107SOL     OW20167   1.022   8.565   6.191 -0.1508 -0.2297 -0.0926
 5107SOL    HW120168   0.981   8.495   6.241 -0.9101  0.6963  0.5866
 5107SOL    HW220169   1.034   8.527   6.103  0.5838 -1.6188  0.5915
 5108SOL     OW20170   9.378   8.421   5.583  0.0382  0.4231  0.1533
 5108SOL    HW120171   9.383   8.363   5.659 -2.5570  0.9484  0.7715
 5108SOL    HW220172   9.465   8.418   5.544  1.3483  0.0355  3.0502
 5109SOL     OW20173   1.211   9.446   6.564  0.7485  0.1269 -0.0568
 5109SOL    HW120174   1.175   9.401   6.488 -1.0494 -1.2118  1.5563
 5109SOL    HW220175   1.221   9.537   6.535 -1.5855  0.0128 -1.3317
 5110SOL     OW20176   9.294   7.688   6.476 -0.2146  0.1347  0.2747
 5110SOL    HW120177   9.306   7.616   6.414 -0.1782  1.3044 -1.1011
 5110SOL    HW220178   9.373   7.742   6.466  0.7410 -0.6921  2.7866
 5111SOL     OW20179   0.822   6.722   8.106 -0.0607 -0.0718 -1.0531
 5111SOL    HW120180   0.908   6.683   8.089 -0.3558 -0.7665 -0.9762
 5111SOL    HW220181   0.761   6.663   8.063 -0.6617 -0.7422  0.6779
 5112SOL     OW20182   9.293   8.371   4.499 -0.2385 -0.1549  0.1405
 5112SOL    HW120183   9.244   8.301   4.456  0.0426 -0.5956  0.5332
 5112SOL    HW220184   9.383   8.358   4.469  0.4111 -1.9136  2.6832
 5113SOL     OW20185   9.250   8.033   6.565 -0.0649  0.5352 -1.0408
 5113SOL    HW120186   9.342   8.058   6.555  0.0796  1.0928  1.3064
 5113SOL    HW220187   9.207   8.065   6.486  1.0942  3.5353 -0.5148
 5114SOL     OW20188   0.222   9.101   4.579 -0.3516 -0.0594 -0.3928
 5114SOL    HW120189   0.300   9.103   4.634  0.0802  0.3929 -1.0135
 5114SOL    HW220190   0.191   9.191   4.578 -0.8758 -0.2362 -0.1556
 5115SOL     OW20191   1.381   8.417   5.475  0.2386 -0.0674 -0.5610
 5115SOL    HW120192   1.315   8.412   5.406  1.4471  0.1787 -1.7611
 5115SOL    HW220193   1.458   8.454   5.432  0.9118  0.4033  1.0068
 5116SOL     OW20194   1.337   7.870   6.875  0.4502  0.0906 -0.5316
 5116SOL    HW120195   1.397   7.824   6.933  1.1011  0.6174 -0.7713
 5116SOL    HW220196   1.267   7.808   6.857  0.3837 -0.1582  0.6063
 5117SOL     OW20197   1.877   9.602   6.799  0.0143  0.0509  0.0668
 5117SOL    HW120198   1.799   9.565   6.757  0.9676 -0.7192 -1.0597
 5117SOL    HW220199   1.869   9.697   6.785 -0.8041 -0.0103  0.1067
 5118SOL     OW20200   1.947   6.519   5.232 -0.3861  0.9911 -0.0460
 5118SOL    HW120201   1.909   6.441   5.271  1.1981 -0.0670 -0.5806
 5118SOL    HW220202   1.908   6.592   5.281 -1.2941 -0.1478  0.9505
 5119SOL     OW20203   2.286   0.155   6.585 -0.6304 -0.9856  1.1389
 5119SOL    HW120204   2.349   0.140   6.655  0.9171  1.8822  0.4510
 5119SOL    HW220205   2.322   0.108   6.509  0.7653  0.6584  0.7424
 5120SOL     OW20206   0.465   0.465   6.890  0.9894  0.3415  0.3140
 5120SOL    HW120207   0.446   0.373   6.874  1.7030  0.3668 -0.6967
 5120SOL    HW220208   0.557   0.468   6.913  0.5072  0.5798  2.3284
 5121SOL     OW20209   1.176   8.021   6.411  0.6023 -0.2007  0.8882
 5121SOL    HW120210   1.133   8.025   6.497  0.7489 -1.5088  1.0195
 5121SOL    HW220211   1.135   7.947   6.367  1.7247 -0.5758  0.4720
 5122SOL     OW20212   2.229   7.290   7.440 -0.3497 -0.3029 -0.7261
 5122SOL    HW120213   2.168   7.337   7.498  1.7664  1.0705  0.4422
 5122SOL    HW220214   2.252   7.354   7.372 -0.0892 -0.7736 -1.0884
 5123SOL     OW20215   1.948   7.338   6.036  0.4030  0.0272  0.0975
 5123SOL    HW120216   2.011   7.399   5.998  1.0728 -0.1890  0.8622
 5123SOL    HW220217   1.922   7.283   5.962 -1.7851  2.5111 -1.0861
 5124SOL     OW20218   1.145   7.885   7.132  0.2576  0.0370 -0.9143
 5124SOL    HW120219   1.078   7.929   7.184 -0.2715 -1.8297  0.0154
 5124SOL    HW220220   1.104   7.872   7.047 -0.3805 -0.6453 -0.5038
 5125SOL     OW20221   2.563   9.308   6.537  0.4789  0.4227  0.4956
 5125SOL    HW120222   2.565   9.352   6.452 -1.1787  1.0673  0.7645
 5125SOL    HW220223   2.655   9.291   6.558  0.9314  0.5507 -1.2621
 5126SOL     OW20224   1.978   8.652   6.435  0.0658 -0.2833  0.0655
 5126SOL    HW120225   2.005   8.606   6.356  1.0391  2.2914 -1.1393
 5126SOL    HW220226   2.049   8.714   6.452 -1.8614  1.7568  0.8346
 5127SOL     OW20227   9.009   7.707   5.881 -0.5012 -0.1479 -0.2139
 5127SOL    HW120228   8.990   7.643   5.813  0.2700 -3.2642  2.3840
 5127SOL    HW220229   9.105   7.716   5.880 -0.3844 -1.0997  1.1979
 5128SOL     OW20230   2.695   8.759   5.879  0.1871  0.0173  0.0754
 5128SOL    HW120231   2.733   8.703   5.947 -2.1850 -0.0458  1.3958
 5128SOL    HW220232   2.615   8.714   5.853  0.1903  0.9240 -1.5511
 5129SOL     OW20233   0.171   7.100   6.322 -0.2314  0.4282 -0.3382
 5129SOL    HW120234   0.235   7.071   6.257 -1.8791  0.6768 -2.1094
 5129SOL    HW220235   0.086   7.085   6.282 -1.2574  2.7973  0.7812
 5130SOL     OW20236   1.530   8.426   6.607 -0.5229 -0.0321 -0.6327
 5130SOL    HW120237   1.441   8.461   6.604 -0.1641  1.2415  2.5368
 5130SOL    HW220238   1.580   8.484   6.550 -0.9573  1.6085  0.6187
 5131SOL     OW20239   9.997   9.423   7.328 -0.3720  0.1492  0.1459
 5131SOL    HW120240   9.975   9.358   7.396  0.1337  2.2199  2.3494
 5131SOL    HW220241  10.091   9.438   7.339 -0.7491  2.2794  0.6096
 5132SOL     OW20242   1.375   7.129   5.737  0.3071  0.7451  0.2135
 5132SOL    HW120243   1.402   7.059   5.797  0.8049  0.5948 -0.1839
 5132SOL    HW220244   1.386   7.092   5.650 -1.7632  0.4680  0.0300
 5133SOL     OW20245   1.120   7.181   7.375  0.1361  0.0003  0.4151
 5133SOL    HW120246   1.134   7.273   7.395 -0.8247  0.1658  0.3615
 5133SOL    HW220247   1.104   7.179   7.280  0.5210 -0.2644  0.3550
 5134SOL     OW20248   1.374   7.625   6.483  0.5118  0.6930  0.0608
 5134SOL    HW120249   1.413   7.685   6.548  1.5223  1.5633 -1.3228
 5134SOL    HW220250   1.369   7.677   6.403 -0.4128 -0.4800 -0.6524
 5135SOL     OW20251   2.749   0.774   6.879 -0.0715  0.4199  0.8916
 5135SOL    HW120252   2.724   0.858   6.917 -2.4602 -0.2816  0.9713
 5135SOL    HW220253   2.672   0.718   6.892  0.7029 -1.1487 -1.0427
 5136SOL     OW20254   0.153   8.261   8.152 -0.0232  0.1126 -0.5888
 5136SOL    HW120255   0.163   8.288   8.061 -0.9838 -1.0435 -1.0591
 5136SOL    HW220256   0.078   8.312   8.184  0.1805  0.3604 -0.5007
 5137SOL     OW20257   9.947   0.560   8.701 -0.3326 -0.1234  0.3495
 5137SOL    HW120258  10.011   0.603   8.644  1.1300 -2.8304 -0.1268
 5137SOL    HW220259   9.987   0.565   8.789  0.5351 -1.7323  0.0659
 5138SOL     OW20260   0.372   7.398   8.269 -0.4485 -0.3107 -0.2179
 5138SOL    HW120261   0.303   7.426   8.329 -0.5322  2.0627 -1.3439
 5138SOL    HW220262   0.450   7.390   8.325 -0.8528  0.4580  0.4777
 5139SOL     OW20263   1.037   6.928   5.938 -0.1379  0.1168 -0.1714
 5139SOL    HW120264   1.077   6.993   5.881  0.7811 -1.1999 -1.0665
 5139SOL    HW220265   1.107   6.865   5.955 -1.0599 -0.7382  0.5052
 5140SOL     OW20266   1.672   8.321   6.040  0.0955  0.0719 -0.5369
 5140SOL    HW120267   1.656   8.415   6.054 -0.1280  0.0076 -0.3544
 5140SOL    HW220268   1.585   8.284   6.025  0.0379 -0.3207  0.7034
 5141SOL     OW20269   1.749   0.232   6.420  0.0387 -0.2402 -0.3231
 5141SOL    HW120270   1.722   0.141   6.406 -0.0929 -0.3258  0.4820
 5141SOL    HW220271   1.817   0.247   6.354  0.7409 -1.2256  0.1831
 5142SOL     OW20272   2.014   7.507   4.963 -0.5175 -0.5278 -0.2433
 5142SOL    HW120273   1.952   7.452   4.915 -0.7137  0.2596 -0.8979
 5142SOL    HW220274   1.971   7.526   5.046 -0.1150 -2.0263  0.3239
 5143SOL     OW20275   0.290   7.518   7.027 -0.0357 -0.7586 -0.1781
 5143SOL    HW120276   0.300   7.471   7.110 -1.5130  0.1348  0.5396
 5143SOL    HW220277   0.348   7.594   7.035 -0.5002 -0.4382  0.2370
 5144SOL     OW20278   0.288   6.093   6.192  1.1366  0.0604  0.1290
 5144SOL    HW120279   0.239   6.072   6.271 -2.4932  1.2268 -1.6787
 5144SOL    HW220280   0.271   6.020   6.133  2.4332  0.0004 -0.1856
 5145SOL     OW20281   0.635   8.055   6.420 -0.1553 -0.5421 -0.3463
 5145SOL    HW120282   0.675   8.064   6.333 -0.3790 -2.6613 -0.6946
 5145SOL    HW220283   0.572   7.983   6.410 -0.4647 -0.5400  1.4741
 5146SOL     OW20284   0.262   9.950   7.489  0.1052 -0.7251  0.2861
 5146SOL    HW120285   0.274  10.018   7.555  0.6637  0.2208 -0.7852
 5146SOL    HW220286   0.167   9.934   7.489  0.0915 -0.6973  1.2672
 5147SOL     OW20287   1.275   8.227   7.676  0.1300  0.4585 -0.0301
 5147SOL    HW120288   1.370   8.232   7.679  0.1321 -0.1559  1.4124
 5147SOL    HW220289   1.249   8.211   7.766 -1.2262 -1.4358 -0.7359
 5148SOL     OW20290   0.628   6.074   8.181 -0.7245 -0.0595 -0.5219
 5148SOL    HW120291   0.539   6.044   8.160 -0.4940 -0.6114 -0.7010
 5148SOL    HW220292   0.680   5.994   8.185 -1.2196 -0.2911  4.5835
 5149SOL     OW20293   0.279   7.765   9.409  0.6400  0.0269  0.5071
 5149SOL    HW120294   0.311   7.827   9.475  1.6112  1.1249 -0.9849
 5149SOL    HW220295   0.351   7.755   9.347  0.5840 -2.7584  0.7939
 5150SOL     OW20296   1.108   0.109   9.029  0.3096  0.4483  0.5483
 5150SOL    HW120297   1.200   0.097   9.004  0.0892 -0.3485  0.0958
 5150SOL    HW220298   1.073   0.168   8.963 -0.1007 -1.1330 -0.6917
 5151SOL     OW20299   1.221   8.353   8.465  0.1753 -0.6121  0.5061
 5151SOL    HW120300   1.291   8.297   8.431  0.9873  0.0708  1.0499
 5151SOL    HW220301   1.226   8.433   8.414 -1.5886 -1.3578 -0.9082
 5152SOL     OW20302   2.262   8.410   0.273 -0.1279  0.1383 -0.4319
 5152SOL    HW120303   2.258   8.479   0.207  1.7400  0.5062 -0.1919
 5152SOL    HW220304   2.220   8.448   0.350 -1.3831  0.0810 -1.0791
 5153SOL     OW20305   0.272   7.865   0.179  0.5794 -0.5141  0.1928
 5153SOL    HW120306   0.364   7.853   0.154  0.2658 -1.3055 -0.5769
 5153SOL    HW220307   0.241   7.777   0.197 -0.2195 -0.3099 -0.1887
 5154SOL     OW20308   1.418   7.909   8.247  0.5313  0.2781  0.2976
 5154SOL    HW120309   1.344   7.901   8.308 -0.3290  2.7937 -0.3523
 5154SOL    HW220310   1.487   7.949   8.299  0.9576 -0.6865  0.4945
 5155SOL     OW20311   9.878   9.665   6.946  0.0285  0.8301 -0.4138
 5155SOL    HW120312   9.963   9.698   6.918  0.2831 -0.2102 -0.8851
 5155SOL    HW220313   9.890   9.570   6.951 -2.0179  0.3383 -3.6691
 5156SOL     OW20314   2.107   9.751   8.739  0.0214  0.2738 -0.0963
 5156SOL    HW120315   2.044   9.800   8.792 -0.1292 -0.7062  0.6386
 5156SOL    HW220316   2.104   9.794   8.654 -0.3955  1.3034  0.4243
 5157SOL     OW20317   1.336   7.639   9.278 -0.3242  0.2206  0.3166
 5157SOL    HW120318   1.287   7.710   9.235 -1.3635  0.5232  1.9718
 5157SOL    HW220319   1.285   7.561   9.258 -0.2886  0.2257  0.2029
 5158SOL     OW20320   1.268   8.635   8.665  0.1716 -0.1635  0.4495
 5158SOL    HW120321   1.269   8.549   8.623  1.3210 -0.2676  0.6695
 5158SOL    HW220322   1.249   8.696   8.594 -0.6238 -0.6002  0.2871
 5159SOL     OW20323   9.939   9.553   8.603  0.4636  0.2324  0.3985
 5159SOL    HW120324  10.012   9.614   8.592  0.6124 -0.2026 -1.1957
 5159SOL    HW220325   9.895   9.582   8.683  1.2086  1.7221  0.2837
 5160SOL     OW20326   1.787   8.909   8.546  0.3005 -0.3276  0.0552
 5160SOL    HW120327   1.879   8.922   8.524  0.8335 -0.8140  1.9563
 5160SOL    HW220328   1.757   8.992   8.582  0.0386 -0.2282 -0.3840
 5161SOL     OW20329   9.711   7.280   8.291 -0.2514  0.3001  0.9304
 5161SOL    HW120330   9.799   7.260   8.260 -0.8341  1.1967 -1.4073
 5161SOL    HW220331   9.665   7.196   8.290  0.2349  0.0346  0.9925
 5162SOL     OW20332   0.858   9.452   6.408 -0.0506  0.0059 -0.7505
 5162SOL    HW120333   0.909   9.404   6.344  0.3228 -2.9536  1.6623
 5162SOL    HW220334   0.917   9.521   6.440  0.6312 -0.1403 -1.6806
 5163SOL     OW20335   0.955   9.531   6.715  0.5548 -0.2121 -0.2826
 5163SOL    HW120336   1.047   9.507   6.718  0.0498 -2.5739 -1.7521
 5163SOL    HW220337   0.950   9.600   6.648  1.4231  0.9068  0.7907
 5164SOL     OW20338   0.396   7.854   8.993 -0.3354  0.0524 -0.3249
 5164SOL    HW120339   0.334   7.799   9.042  0.9242 -1.0780  0.0429
 5164SOL    HW220340   0.383   7.942   9.027 -1.0074 -0.3614  0.5043
 5165SOL     OW20341   9.226   7.721   7.366 -0.2143 -0.6965  0.4425
 5165SOL    HW120342   9.294   7.697   7.304 -0.8970 -1.7776  0.1109
 5165SOL    HW220343   9.145   7.718   7.316 -0.4215  1.6249  0.5553
 5166SOL     OW20344   3.412   7.152   8.108 -0.5741 -0.4350  0.2153
 5166SOL    HW120345   3.371   7.119   8.028 -1.0969 -0.1332  0.3576
 5166SOL    HW220346   3.490   7.096   8.120  0.5174  0.6833 -1.4901
 5167SOL     OW20347   0.068   8.691   7.290  0.1147  0.2302  0.5924
 5167SOL    HW120348   0.150   8.643   7.277  0.7837  0.9868  1.8736
 5167SOL    HW220349   0.051   8.684   7.384  0.5711  3.0452  0.9288
 5168SOL     OW20350   2.096   9.968   7.485 -0.1390  0.2185  0.0350
 5168SOL    HW120351   2.050   9.994   7.564  1.2268  0.1844  0.8534
 5168SOL    HW220352   2.122  10.051   7.444 -1.1862  0.2453 -0.6037
 5169SOL     OW20353   0.129   0.188   7.873 -0.1022 -0.0491  0.1485
 5169SOL    HW120354   0.125   0.095   7.851 -2.2585 -0.2850  1.4218
 5169SOL    HW220355   0.215   0.199   7.915 -0.4621 -1.7794  1.3762
 5170SOL     OW20356   0.726   9.671   0.572  0.3887 -0.1073 -0.2990
 5170SOL    HW120357   0.743   9.765   0.562  0.2044 -0.1178 -0.7444
 5170SOL    HW220358   0.812   9.631   0.576  0.4983 -0.1579 -2.4603
 5171SOL     OW20359   2.234   9.141   8.851 -0.1126 -0.1778 -0.4621
 5171SOL    HW120360   2.215   9.229   8.817  0.4791  0.0791 -0.1519
 5171SOL    HW220361   2.238   9.086   8.774  2.4598  0.6322 -0.9801
 5172SOL     OW20362   3.284   7.709   8.104  0.5124 -0.4906  0.6701
 5172SOL    HW120363   3.260   7.802   8.102 -0.2455 -0.7003 -1.5823
 5172SOL    HW220364   3.347   7.699   8.033 -1.5912 -2.2434 -1.0022
 5173SOL     OW20365   8.418   8.207   8.257  0.1283  0.5709  0.3996
 5173SOL    HW120366   8.325   8.205   8.282  0.0436 -3.7405  0.0023
 5173SOL    HW220367   8.465   8.204   8.340 -0.0469  1.4569  0.5448
 5174SOL     OW20368   1.999   6.908   7.190  0.9655 -0.1226  0.0730
 5174SOL    HW120369   1.924   6.953   7.230 -1.7645 -2.7405 -1.8780
 5174SOL    HW220370   2.050   6.876   7.264 -0.9544 -0.0519  1.4706
 5175SOL     OW20371   1.372   8.247   8.810 -0.1531 -0.2847  0.1540
 5175SOL    HW120372   1.281   8.219   8.820 -0.3600  0.5819  0.8410
 5175SOL    HW220373   1.398   8.217   8.723 -1.6425  0.9631 -0.7325
 5176SOL     OW20374   9.616   9.096   8.201  0.3244  0.4276  0.4701
 5176SOL    HW120375   9.561   9.085   8.278 -0.9674 -1.0569 -0.6432
 5176SOL    HW220376   9.653   9.009   8.184  0.0650  0.5719 -0.9634
 5177SOL     OW20377   2.575   8.931   9.664  0.0227  0.3407 -0.4369
 5177SOL    HW120378   2.607   8.988   9.594 -2.3096  1.5606 -0.5481
 5177SOL    HW220379   2.612   8.968   9.744 -1.0525  1.7554 -0.5611
 5178SOL     OW20380   2.225   8.933   7.770 -0.3348  0.2069  0.3545
 5178SOL    HW120381   2.288   8.863   7.752 -0.1156  0.5601 -0.2741
 5178SOL    HW220382   2.230   8.945   7.865  0.3402  0.0339  0.3496
 5179SOL     OW20383   9.451   7.986   7.909  0.3679  0.4472  0.1288
 5179SOL    HW120384   9.530   7.975   7.963 -1.7012 -1.6718  2.8712
 5179SOL    HW220385   9.405   8.060   7.947 -1.4451 -1.4824  1.8567
 5180SOL     OW20386   1.501   9.687   8.153 -0.4732 -0.1482 -0.2269
 5180SOL    HW120387   1.577   9.730   8.114 -1.0746  0.2647 -0.9447
 5180SOL    HW220388   1.536   9.605   8.189  0.6014  0.7652  0.8338
 5181SOL     OW20389   0.927   6.635   6.606 -0.3497 -0.1500  0.2786
 5181SOL    HW120390   0.950   6.719   6.646 -1.0100  0.6470 -0.9932
 5181SOL    HW220391   0.913   6.655   6.514 -1.5719 -1.4557  0.1583
 5182SOL     OW20392   2.811   8.394   8.789  0.2045 -0.1772 -0.0877
 5182SOL    HW120393   2.901   8.361   8.788  0.2945  0.0688 -2.1870
 5182SOL    HW220394   2.799   8.435   8.703 -1.5739  0.7220  0.5601
 5183SOL     OW20395   1.143   9.261   8.897  0.0422 -0.7934 -0.0619
 5183SOL    HW120396   1.105   9.265   8.985  0.3747  1.0341  0.0308
 5183SOL    HW220397   1.075   9.220   8.843 -0.8842 -0.2665  0.6929
 5184SOL     OW20398   1.870   7.768   9.084 -0.2050 -0.7445  0.5283
 5184SOL    HW120399   1.795   7.784   9.141 -0.6906 -0.1567 -0.2649
 5184SOL    HW220400   1.906   7.855   9.066 -0.8342 -0.8028 -1.0932
 5185SOL     OW20401   1.736   7.908   7.595 -0.0634 -0.1331 -0.2915
 5185SOL    HW120402   1.663   7.850   7.620  1.2538 -1.1259  1.3566
 5185SOL    HW220403   1.800   7.849   7.556  1.0028  0.2975  0.7770
 5186SOL     OW20404   9.345   8.620   7.332 -0.0720  0.0972 -0.1063
 5186SOL    HW120405   9.285   8.694   7.343  0.7066  0.9602 -1.5875
 5186SOL    HW220406   9.310   8.572   7.257 -2.1569 -2.6444  2.4374
 5187SOL     OW20407   9.992   9.289   7.985 -0.5162  0.1037 -0.1002
 5187SOL    HW120408   9.968   9.208   8.029 -0.3310  0.7462  1.1901
 5187SOL    HW220409   9.916   9.310   7.930 -0.9114 -0.4824  0.2215
 5188SOL     OW20410   0.742   7.523   6.285  0.0829  0.6468 -0.7589
 5188SOL    HW120411   0.762   7.547   6.375 -0.6430  0.4861 -0.5549
 5188SOL    HW220412   0.647   7.514   6.283  0.2005 -0.6126 -1.2229
 5189SOL     OW20413   0.625   9.078   0.995 -0.6334 -0.5555 -0.9396
 5189SOL    HW120414   0.589   9.163   1.020 -0.7337 -1.2753  1.5270
 5189SOL    HW220415   0.548   9.025   0.976 -0.6568 -0.5684 -0.8114
 5190SOL     OW20416   1.095   0.644   7.677 -0.5779 -0.1446  0.1634
 5190SOL    HW120417   1.178   0.628   7.722 -0.1679  1.8338  0.1311
 5190SOL    HW220418   1.086   0.571   7.616  0.4013 -1.1650  1.2192
 5191SOL     OW20419   8.807   6.527   5.503  0.1179 -0.5792  0.3075
 5191SOL    HW120420   8.764   6.548   5.420 -2.5902 -1.1632  1.4945
 5191SOL    HW220421   8.881   6.472   5.479 -1.1117 -1.4075 -1.6583
 5192SOL     OW20422   1.098   9.644   8.755 -0.0766  0.2526  0.3745
 5192SOL    HW120423   1.175   9.674   8.803 -0.0653 -0.0646  0.5569
 5192SOL    HW220424   1.122   9.556   8.725 -1.3061 -0.8808  2.5834
 5193SOL     OW20425   1.679   9.339   6.940  0.2904  0.0493 -0.0829
 5193SOL    HW120426   1.630   9.422   6.942  1.7459  0.9689 -1.5477
 5193SOL    HW220427   1.637   9.286   7.008 -1.3385  1.5973  0.1910
 5194SOL     OW20428   0.465   8.566   0.600 -0.2626 -0.5668 -0.0463
 5194SOL    HW120429   0.386   8.619   0.604 -0.7223 -1.1185 -1.4598
 5194SOL    HW220430   0.439   8.482   0.638 -0.8076 -1.2654 -1.9234
 5195SOL     OW20431   1.061   8.059   7.586 -0.7416 -0.4357  0.0146
 5195SOL    HW120432   1.002   8.073   7.660 -1.0299 -1.7100  0.0460
 5195SOL    HW220433   1.139   8.110   7.607 -1.9896  1.6470 -0.2412
 5196SOL     OW20434   2.209   8.777   9.042  0.7855  0.2076  0.2497
 5196SOL    HW120435   2.203   8.830   9.122 -0.2609  1.2818 -0.5224
 5196SOL    HW220436   2.300   8.785   9.015  1.8848 -2.4706  2.8677
 5197SOL     OW20437   0.552   9.105   6.740  0.3618 -0.3918 -0.0727
 5197SOL    HW120438   0.639   9.071   6.764  0.3775  0.0230  0.4789
 5197SOL    HW220439   0.561   9.200   6.748 -0.6026 -0.4233  1.5677
 5198SOL     OW20440   0.172   8.098   7.769  0.3658 -0.5333  0.1663
 5198SOL    HW120441   0.226   8.049   7.831 -0.3014  1.5558  2.5364
 5198SOL    HW220442   0.234   8.156   7.724  0.4954 -0.0725  0.9223
 5199SOL     OW20443   2.914   9.287   6.565 -0.1535 -0.4086 -0.1722
 5199SOL    HW120444   2.986   9.225   6.553 -1.0945 -1.3724 -0.9187
 5199SOL    HW220445   2.886   9.275   6.656  1.6628  1.1185  0.6220
 5200SOL     OW20446   0.911   9.632   8.567  0.1819  0.2269 -0.5767
 5200SOL    HW120447   0.974   9.647   8.636 -1.0879  1.5440  0.3216
 5200SOL    HW220448   0.878   9.544   8.583  0.9518 -0.0193 -0.3596
 5201SOL     OW20449   1.207   6.835   7.991  0.2892  0.5892  0.1328
 5201SOL    HW120450   1.227   6.921   7.953  0.1611  0.6968  0.3069
 5201SOL    HW220451   1.248   6.837   8.077  2.1883 -0.3678 -0.7377
 5202SOL     OW20452   9.878   9.528   8.949 -0.5244 -0.1400  0.1995
 5202SOL    HW120453   9.963   9.555   8.914 -0.4591 -1.0211 -0.3575
 5202SOL    HW220454   9.900   9.462   9.015 -0.8171 -1.1793 -0.7290
 5203SOL     OW20455   1.392   0.018   8.973  0.6040  0.8645 -0.7159
 5203SOL    HW120456   1.414   0.102   8.932 -2.9964  0.2485 -4.2781
 5203SOL    HW220457   1.438  -0.047   8.920 -0.9073  0.3004 -1.3767
 5204SOL     OW20458   9.866   7.554   7.863  0.5378  0.2238  0.5520
 5204SOL    HW120459   9.776   7.531   7.883  0.5339  0.6909  1.0882
 5204SOL    HW220460   9.905   7.574   7.948  0.7112  1.5769  0.1646
 5205SOL     OW20461   2.997   6.222   0.407 -0.4337  0.4184 -0.5492
 5205SOL    HW120462   3.081   6.252   0.372 -1.4333  2.2598 -1.3951
 5205SOL    HW220463   3.011   6.128   0.422  0.8786  0.0957 -3.3708
 5206SOL     OW20464   1.441   7.369   6.956 -0.1280 -0.2314 -0.8029
 5206SOL    HW120465   1.513   7.411   6.909 -0.6059  1.1322 -0.3189
 5206SOL    HW220466   1.410   7.436   7.017 -1.0596 -1.2039 -0.2085
 5207SOL     OW20467   2.635   8.218   9.464 -0.0799  0.2062  0.2025
 5207SOL    HW120468   2.601   8.265   9.540 -0.8300  0.2419 -0.1592
 5207SOL    HW220469   2.648   8.285   9.397  0.3585  0.1387  0.2149
 5208SOL     OW20470   0.548   9.589   0.368 -0.5082 -0.3804 -0.8238
 5208SOL    HW120471   0.569   9.667   0.318 -1.8015 -0.1282 -1.0080
 5208SOL    HW220472   0.607   9.591   0.443  0.9311 -0.3684 -1.9460
 5209SOL     OW20473   0.349   8.550   9.551  0.7255 -0.1363 -0.1314
 5209SOL    HW120474   0.378   8.503   9.473 -0.4556  2.0318 -1.9120
 5209SOL    HW220475   0.265   8.510   9.573  0.2612  0.3570 -0.9783
 5210SOL     OW20476   0.242   8.932   7.958 -0.0174  0.1845  0.1372
 5210SOL    HW120477   0.165   8.885   7.928  1.5653 -0.9868 -2.2615
 5210SOL    HW220478   0.312   8.903   7.899  2.0485  1.9011  1.6726
 5211SOL     OW20479   0.282   7.865   6.128 -0.0839  0.1510 -0.4138
 5211SOL    HW120480   0.193   7.865   6.162 -0.2539  0.5695 -0.8543
 5211SOL    HW220481   0.272   7.879   6.034  0.4090 -0.4724 -0.5623
 5212SOL     OW20482   2.010   8.699   8.234 -0.0925  0.2224 -0.1053
 5212SOL    HW120483   1.921   8.697   8.200 -0.0137 -0.1346 -0.2905
 5212SOL    HW220484   2.028   8.792   8.249 -0.4603  0.3017 -0.1645
 5213SOL     OW20485   0.151   7.743   9.099  0.4568  0.2837  0.2741
 5213SOL    HW120486   0.084   7.806   9.128 -2.0147 -1.3591 -1.6114
 5213SOL    HW220487   0.130   7.664   9.148  2.1504  0.2548  0.9583
 5214SOL     OW20488   0.627   7.177   6.863 -0.1045 -0.1673  0.0861
 5214SOL    HW120489   0.608   7.169   6.956  0.8128  1.6985  0.4482
 5214SOL    HW220490   0.554   7.228   6.827  1.6296  2.7077  0.5666
 5215SOL     OW20491   0.980   8.965   7.820 -0.5844  0.3995 -0.0309
 5215SOL    HW120492   0.956   9.058   7.819  1.8851  1.0593  0.6190
 5215SOL    HW220493   1.048   8.957   7.754  0.4657 -0.6102  1.1502
 5216SOL     OW20494   1.485   9.851   8.376  0.0933  1.1721  0.6186
 5216SOL    HW120495   1.523   9.927   8.333  0.9220  0.8671  0.8078
 5216SOL    HW220496   1.487   9.782   8.310 -2.0541  1.7221 -0.0488
 5217SOL     OW20497   0.383   9.234   8.286  0.1400  0.0015 -0.3153
 5217SOL    HW120498   0.394   9.151   8.333 -2.3264  0.6837  1.5949
 5217SOL    HW220499   0.344   9.209   8.202  0.5609 -0.8594 -0.2699
 5218SOL     OW20500   0.143   9.610   8.332 -0.2807 -0.0736 -0.2210
 5218SOL    HW120501   0.174   9.527   8.368  0.9904  0.8697  0.9177
 5218SOL    HW220502   0.155   9.673   8.403 -0.9663  1.1521 -1.1614
 5219SOL     OW20503   0.852   8.223   6.914  0.2420 -0.6373 -0.0379
 5219SOL    HW120504   0.826   8.301   6.865  0.5029 -1.7976 -2.0941
 5219SOL    HW220505   0.823   8.240   7.003  0.4231  1.8668 -0.4180
 5220SOL     OW20506   1.250   9.098   9.144  0.1811  0.1335  0.2429
 5220SOL    HW120507   1.282   9.187   9.126 -1.6567  1.0251  1.2791
 5220SOL    HW220508   1.242   9.058   9.057 -0.8637  1.6514 -0.3702
 5221SOL     OW20509   9.245   7.311   7.363 -0.1865 -0.1338  0.4478
 5221SOL    HW120510   9.259   7.263   7.282 -1.2950 -1.6024  1.1143
 5221SOL    HW220511   9.190   7.386   7.337  0.0037 -0.2408 -0.2603
 5222SOL     OW20512   1.619   7.536   8.352 -0.4728  0.4122 -0.5263
 5222SOL    HW120513   1.584   7.518   8.440 -1.6893 -0.6403 -1.2029
 5222SOL    HW220514   1.668   7.618   8.362  0.8538 -0.5995  1.5104
 5223SOL     OW20515   0.816   6.388   8.961 -0.2129 -0.1919 -0.2037
 5223SOL    HW120516   0.735   6.362   9.004  0.4989  0.2809  1.4570
 5223SOL    HW220517   0.885   6.365   9.023  0.9150 -0.2974 -1.4597
 5224SOL     OW20518   0.330   7.367   8.608  0.4237 -0.6592  0.2581
 5224SOL    HW120519   0.301   7.378   8.699 -0.7789 -0.1499 -0.1777
 5224SOL    HW220520   0.262   7.410   8.556  3.1147  2.6207 -0.6873
 5225SOL     OW20521   0.910   9.848   7.943 -0.1347 -0.3180  0.1529
 5225SOL    HW120522   0.936   9.850   7.851 -0.7789 -0.2261 -0.0316
 5225SOL    HW220523   0.910   9.756   7.967  0.6465 -0.2966  0.2399
 5226SOL     OW20524   1.728   7.786   8.303  0.3376 -0.4957 -0.0378
 5226SOL    HW120525   1.671   7.862   8.297  1.9793  0.6333 -2.1375
 5226SOL    HW220526   1.808   7.819   8.344  1.1730 -0.9692 -1.2364
 5227SOL     OW20527   0.730   8.888   6.819  0.0328  0.1274  0.1232
 5227SOL    HW120528   0.796   8.850   6.761  1.0603 -0.1681  1.4730
 5227SOL    HW220529   0.678   8.813   6.848  0.5523  0.0517  0.8764
 5228SOL     OW20530   0.617   8.667   7.866  0.2818  0.0367  0.0345
 5228SOL    HW120531   0.619   8.626   7.780 -0.9184 -0.9813  0.4803
 5228SOL    HW220532   0.550   8.735   7.858  0.6108  0.3576 -0.0117
 5229SOL     OW20533   0.890   6.835   7.076 -0.1429  0.4282  0.1709
 5229SOL    HW120534   0.911   6.805   7.165 -0.6923  1.0751  0.5198
 5229SOL    HW220535   0.971   6.822   7.027  0.5892  1.3847  1.1088
 5230SOL     OW20536   1.279   8.206   7.362  0.0285 -0.0413  0.4385
 5230SOL    HW120537   1.287   8.197   7.267  0.9288  1.7463  0.3083
 5230SOL    HW220538   1.364   8.179   7.396  0.0683  0.3288  0.6405
 5231SOL     OW20539   0.688   7.457   1.641  0.2116  0.7430 -0.2775
 5231SOL    HW120540   0.684   7.553   1.635  0.1341  0.6215 -2.3478
 5231SOL    HW220541   0.630   7.426   1.572 -0.4770 -0.8199  0.9777
 5232SOL     OW20542   0.625   9.288   0.170 -0.0384 -0.0164  0.3714
 5232SOL    HW120543   0.566   9.362   0.158 -0.2671 -0.4219 -1.0161
 5232SOL    HW220544   0.609   9.260   0.261 -1.6743  0.1374  0.1535
 5233SOL     OW20545   1.799   0.370   0.359 -0.2701 -0.2841  0.4335
 5233SOL    HW120546   1.837   0.449   0.398 -0.6983  0.1529 -0.0345
 5233SOL    HW220547   1.786   0.392   0.267  0.7693 -1.3200  0.0181
 5234SOL     OW20548   0.276   6.789   7.115  0.1470 -0.2068  0.2134
 5234SOL    HW120549   0.205   6.770   7.054  1.5684 -1.5385 -1.0618
 5234SOL    HW220550   0.320   6.866   7.079 -0.9316  0.9129  1.2636
 5235SOL     OW20551   2.566   9.218   0.057 -0.5048 -0.1936 -0.0705
 5235SOL    HW120552   2.606   9.295   0.016  1.3421 -1.3499 -0.5194
 5235SOL    HW220553   2.631   9.187   0.120 -2.0733 -0.2110  1.5743
 5236SOL     OW20554   0.497   7.679   8.166 -0.1346 -0.2990  0.0484
 5236SOL    HW120555   0.585   7.645   8.151 -0.3967 -1.9520  2.0240
 5236SOL    HW220556   0.445   7.603   8.192 -2.2372  0.6008 -1.3497
 5237SOL     OW20557   0.378   8.823   9.869 -0.3184 -1.1035 -0.0359
 5237SOL    HW120558   0.464   8.793   9.899  0.8463  0.9515 -1.1917
 5237SOL    HW220559   0.343   8.873   9.942 -0.7058 -2.2518  0.5731
 5238SOL     OW20560   0.451   6.982   8.196 -0.1235  0.0963 -0.1713
 5238SOL    HW120561   0.376   6.924   8.211 -0.9201  0.8075 -1.3370
 5238SOL    HW220562   0.472   7.017   8.282 -0.7215 -0.5920  0.2677
 5239SOL     OW20563   0.640   8.957   7.585 -0.1358  0.5754  0.4258
 5239SOL    HW120564   0.705   9.006   7.534 -0.1637  0.6267  0.4391
 5239SOL    HW220565   0.583   8.916   7.520  0.7250 -0.5863  0.3897
 5240SOL     OW20566   1.795   9.302   8.992  0.0567  0.1217  0.1776
 5240SOL    HW120567   1.712   9.289   9.038 -0.3880 -2.5283 -1.2325
 5240SOL    HW220568   1.857   9.246   9.039  0.5529  0.4893 -0.0314
 5241SOL     OW20569   7.908   8.661   9.696  0.1005  0.0677  0.0986
 5241SOL    HW120570   7.922   8.580   9.746 -0.9635 -0.8272 -1.0241
 5241SOL    HW220571   7.950   8.645   9.612 -0.7304  0.3955 -0.3901
 5242SOL     OW20572   8.619   9.018   7.771 -0.0450 -0.4978 -0.2192
 5242SOL    HW120573   8.707   9.037   7.805  0.4889 -0.4724 -1.5798
 5242SOL    HW220574   8.579   9.105   7.759 -0.5554 -0.5340  1.1382
 5243SOL     OW20575   1.482   8.610   8.394 -0.0429  0.1724 -0.2259
 5243SOL    HW120576   1.474   8.629   8.488 -0.3790 -0.9450 -0.0232
 5243SOL    HW220577   1.393   8.616   8.360  0.3171  2.4234 -0.8488
 5244SOL     OW20578   1.050   8.163   8.191  0.2096  0.5317  0.3514
 5244SOL    HW120579   1.061   8.166   8.286 -1.0390 -1.9517  0.6175
 5244SOL    HW220580   1.008   8.247   8.169  0.7485  1.2332  1.9312
 5245SOL     OW20581   2.085   8.253   8.216  0.5934 -0.2423  0.3153
 5245SOL    HW120582   2.043   8.320   8.270  0.1334  2.3342 -3.0753
 5245SOL    HW220583   2.025   8.241   8.142  1.0356 -3.9214  0.4602
 5246SOL     OW20584   0.849   8.640   7.683  0.5245  0.1965  0.4466
 5246SOL    HW120585   0.857   8.706   7.614 -1.0730  1.8694  1.8019
 5246SOL    HW220586   0.776   8.585   7.655  2.2122 -1.4134 -0.9620
 5247SOL     OW20587   0.638   8.076   9.430 -0.1877 -0.3143  0.2387
 5247SOL    HW120588   0.607   8.145   9.371  2.3653 -0.3479 -1.1984
 5247SOL    HW220589   0.601   8.100   9.515 -1.1386  1.6122 -0.6636
 5248SOL     OW20590   1.511   7.706   7.670 -0.4205 -0.8167 -0.0251
 5248SOL    HW120591   1.545   7.622   7.699 -2.7509 -1.6765  0.3104
 5248SOL    HW220592   1.486   7.751   7.751 -2.0782 -1.0944 -0.3575
 5249SOL     OW20593   1.844   8.786   0.160 -0.3386 -0.6388  0.1363
 5249SOL    HW120594   1.906   8.855   0.137 -0.8778 -0.2869 -0.2784
 5249SOL    HW220595   1.865   8.764   0.251  0.3508 -0.4833  0.0183
 5250SOL     OW20596   9.037   9.760   7.469  0.6670  0.0015  0.2879
 5250SOL    HW120597   8.990   9.792   7.392 -0.4584 -2.0499  0.0836
 5250SOL    HW220598   9.086   9.835   7.500 -2.7457  2.2610  0.5060
 5251SOL     OW20599   1.521   7.837   8.622  0.3358  0.2113 -0.1157
 5251SOL    HW120600   1.426   7.849   8.629  0.5591  1.4977  1.0172
 5251SOL    HW220601   1.556   7.925   8.610  1.3561 -0.3038 -1.0174
 5252SOL     OW20602   1.548   8.129   7.785  0.2470 -0.1192 -0.3187
 5252SOL    HW120603   1.589   8.044   7.772 -0.1562 -0.3969  0.2087
 5252SOL    HW220604   1.511   8.125   7.873  0.9328  0.8936  0.0319
 5253SOL     OW20605   0.906   8.399   9.407 -0.4027  0.2375  0.2313
 5253SOL    HW120606   0.915   8.469   9.472  1.3947  0.8351 -0.6179
 5253SOL    HW220607   0.993   8.393   9.367 -1.0796 -1.1599 -1.0567
 5254SOL     OW20608   1.115   8.132   8.792  0.0780 -0.1064 -0.3418
 5254SOL    HW120609   1.076   8.066   8.849 -2.4694  1.2527 -0.4489
 5254SOL    HW220610   1.123   8.088   8.707 -1.7505 -0.2254 -0.4551
 5255SOL     OW20611   1.065   8.120   8.483 -0.0585 -0.2051  0.3940
 5255SOL    HW120612   1.118   8.041   8.493  0.0222 -0.2503 -0.3412
 5255SOL    HW220613   1.125   8.192   8.500  0.4420 -0.2297 -1.2140
 5256SOL     OW20614   0.500   9.003   8.463  0.3488  0.3179  0.0072
 5256SOL    HW120615   0.574   8.972   8.411  1.3303 -0.1513  1.6244
 5256SOL    HW220616   0.540   9.042   8.541 -1.0774  0.9880  0.4331
 5257SOL     OW20617   2.468   7.455   8.286  0.2130  0.2703 -0.2862
 5257SOL    HW120618   2.556   7.462   8.250 -0.3186 -0.0623 -1.6663
 5257SOL    HW220619   2.465   7.369   8.328  0.6053  0.3655 -0.0626
 5258SOL     OW20620   1.424   7.620   8.183  0.1793  0.3898 -0.3054
 5258SOL    HW120621   1.496   7.584   8.234  0.1515  0.1183 -0.4564
 5258SOL    HW220622   1.432   7.715   8.194 -0.2225  0.3128  0.7408
 5259SOL     OW20623   1.176   8.130   7.935  0.2738  0.4717  0.1816
 5259SOL    HW120624   1.143   8.157   8.020  0.3287 -1.0556  0.7029
 5259SOL    HW220625   1.269   8.112   7.950  0.3633  0.5275 -0.2807
 5260SOL     OW20626   3.213   9.983   9.296 -0.0046  0.3867  0.6351
 5260SOL    HW120627   3.233  10.077   9.297 -2.0984  0.9015 -1.7186
 5260SOL    HW220628   3.185   9.964   9.385  1.7931  1.6668  1.5135
 5261SOL     OW20629   1.134   7.836   9.150  0.3035  0.0181  0.0371
 5261SOL    HW120630   1.161   7.878   9.068  2.0141 -1.0690  0.0094
 5261SOL    HW220631   1.050   7.876   9.171  0.5196  1.3419 -1.5045
 5262SOL     OW20632   2.059   7.585   6.705 -0.1182 -0.1200  0.1435
 5262SOL    HW120633   1.979   7.633   6.688 -0.9272 -1.5646 -0.2295
 5262SOL    HW220634   2.086   7.553   6.619 -1.1482 -2.6975  0.7217
 5263SOL     OW20635   1.098   8.469   6.732 -0.4987  0.2951 -0.3206
 5263SOL    HW120636   1.024   8.519   6.697 -2.3718 -0.9650  1.7005
 5263SOL    HW220637   1.078   8.458   6.825  1.2858 -1.7203 -0.1361
 5264SOL     OW20638   9.222   8.640   8.900  0.4550  0.2248  0.1010
 5264SOL    HW120639   9.315   8.640   8.879  0.3950 -1.8066 -0.2211
 5264SOL    HW220640   9.216   8.596   8.984 -0.3178 -0.7026 -0.4277
 5265SOL     OW20641   9.983   7.809   0.448 -0.3612 -0.1813  0.1082
 5265SOL    HW120642   9.937   7.800   0.532 -1.1900  0.1837 -0.2953
 5265SOL    HW220643  10.075   7.813   0.472 -0.5856 -0.1268  1.0057
 5266SOL     OW20644   1.848   7.524   9.814  0.3063  0.0278  0.1020
 5266SOL    HW120645   1.765   7.513   9.859 -0.2511  0.6793 -0.7540
 5266SOL    HW220646   1.896   7.588   9.866  1.1309 -1.8418  1.7422
 5267SOL     OW20647   1.986   8.358   8.743  0.3492 -0.3151 -0.0971
 5267SOL    HW120648   2.008   8.444   8.706 -1.4300 -0.3034 -1.1512
 5267SOL    HW220649   1.909   8.373   8.797  2.2190 -0.5616  2.7939
 5268SOL     OW20650   1.410   7.095   6.946  0.3636  0.1167 -0.0321
 5268SOL    HW120651   1.412   7.115   6.852  0.8469  0.5845  0.0805
 5268SOL    HW220652   1.428   7.179   6.989  0.2072 -0.1123  0.4771
 5269SOL     OW20653   8.900   7.579   8.185 -0.1275  0.5971  0.5081
 5269SOL    HW120654   8.977   7.634   8.197  0.8591 -0.5617 -0.3485
 5269SOL    HW220655   8.853   7.619   8.112  1.7038 -0.8482 -1.5402
 5270SOL     OW20656   0.086   9.037   8.790 -0.0724 -0.7101 -0.3712
 5270SOL    HW120657   0.049   8.969   8.846 -1.8289  1.7624  1.5635
 5270SOL    HW220658   0.037   9.029   8.708 -2.8675  0.5638  1.1125
 5271SOL     OW20659   0.914   9.236   9.761 -0.1438  0.3180  0.0078
 5271SOL    HW120660   0.876   9.309   9.810 -2.6224 -0.8642 -0.0446
 5271SOL    HW220661   0.847   9.214   9.696  0.5179 -2.0325  0.0761
 5272SOL     OW20662   0.897   7.497   7.022 -0.2141  0.8691  0.1855
 5272SOL    HW120663   0.854   7.413   7.036 -0.7417  1.1799  0.4638
 5272SOL    HW220664   0.980   7.475   6.981  0.1759  0.1243  1.3510
 5273SOL     OW20665   0.621   0.109   9.208  0.1490 -0.3979 -0.6325
 5273SOL    HW120666   0.593   0.020   9.184  0.4104 -0.2373 -1.5348
 5273SOL    HW220667   0.675   0.138   9.135 -0.5320  0.7935 -0.6776
 5274SOL     OW20668   1.326   8.658   9.244 -0.1189  0.2174 -0.1827
 5274SOL    HW120669   1.409   8.705   9.235  0.3491 -0.5853 -0.0543
 5274SOL    HW220670   1.298   8.640   9.155 -0.2395  0.6334 -0.2296
 5275SOL     OW20671   1.516   9.091   0.662  0.4763 -0.1044  0.5393
 5275SOL    HW120672   1.573   9.068   0.735  1.6763 -0.5788 -0.5271
 5275SOL    HW220673   1.567   9.154   0.610  1.1270 -2.4783 -1.8301
 5276SOL     OW20674   0.576   8.099   7.707 -0.3020  0.3061  0.4001
 5276SOL    HW120675   0.511   8.149   7.658 -1.4130 -0.3410  1.2025
 5276SOL    HW220676   0.559   8.120   7.799  2.1401  1.9734  0.5399
 5277SOL     OW20677   0.582   7.981   8.503  0.1183 -0.5885  0.1537
 5277SOL    HW120678   0.658   8.032   8.529  0.9627 -1.5865 -0.3048
 5277SOL    HW220679   0.514   8.003   8.567  1.1666 -0.5995  1.2742
 5278SOL     OW20680   2.074   8.462   9.370 -0.6816  0.0851 -0.3798
 5278SOL    HW120681   2.066   8.496   9.281  1.3335  0.5458 -0.4258
 5278SOL    HW220682   2.166   8.434   9.376 -0.5843  0.7738  1.7985
 5279SOL     OW20683   2.176   8.216   5.840  0.0464 -0.0721 -0.3986
 5279SOL    HW120684   2.176   8.195   5.747 -0.3296 -1.6793 -0.0542
 5279SOL    HW220685   2.094   8.180   5.873 -1.2198  3.0648  0.0142
 5280SOL     OW20686   1.126   9.455   9.834 -0.2105 -0.3108  0.3743
 5280SOL    HW120687   1.129   9.378   9.891  1.1035 -0.5801 -0.0480
 5280SOL    HW220688   1.193   9.514   9.870  0.2243 -0.2374 -0.5285
 5281SOL     OW20689   9.927   8.671   8.592  0.0581 -0.6970 -0.4713
 5281SOL    HW120690   9.950   8.595   8.539 -0.5394  0.5491 -2.5853
 5281SOL    HW220691   9.929   8.745   8.531 -1.1137  0.7196  1.1406
 5282SOL     OW20692   1.231   0.656   0.918 -0.4556 -0.5893 -0.4790
 5282SOL    HW120693   1.195   0.712   0.849  0.5341 -0.3747 -0.8327
 5282SOL    HW220694   1.155   0.626   0.968 -0.8993  2.3571  0.7046
 5283SOL     OW20695   1.752   8.180   9.108 -0.2884 -0.5345 -0.8106
 5283SOL    HW120696   1.730   8.193   9.016  0.1788  0.3360 -0.7992
 5283SOL    HW220697   1.714   8.255   9.153  2.4115  0.8315 -0.7397
 5284SOL     OW20698   1.132   9.557   7.077  0.4516 -1.0029  0.2783
 5284SOL    HW120699   1.054   9.612   7.084  1.3267  0.2298  0.2594
 5284SOL    HW220700   1.097   9.468   7.073 -0.8675 -0.6522  2.9227
 5285SOL     OW20701   8.974   8.531   1.194  1.1010  0.4128 -0.0441
 5285SOL    HW120702   8.978   8.576   1.279  0.8350  1.8974 -0.8130
 5285SOL    HW220703   8.957   8.601   1.131 -0.5368 -0.9323 -1.1157
 5286SOL     OW20704   1.036   8.471   7.589  0.1261  0.1161  0.0057
 5286SOL    HW120705   0.982   8.536   7.634 -1.6638 -1.8005  0.6865
 5286SOL    HW220706   1.124   8.510   7.588 -0.4499  1.5753  2.3628
 5287SOL     OW20707   0.204   8.127   8.479 -0.3878  0.5709 -0.1050
 5287SOL    HW120708   0.159   8.201   8.520 -1.3819  0.5448 -1.1296
 5287SOL    HW220709   0.285   8.164   8.444 -0.8548  1.1668 -0.5664
 5288SOL     OW20710   0.834   8.267   9.665 -0.2318  0.2191 -0.4563
 5288SOL    HW120711   0.927   8.263   9.689 -0.7011  1.1767  1.7192
 5288SOL    HW220712   0.833   8.308   9.579  1.3356  1.2624 -0.0147
 5289SOL     OW20713   2.346   8.618   8.202 -0.1663  0.8481 -0.1044
 5289SOL    HW120714   2.362   8.646   8.292 -2.5136 -0.6814  0.8419
 5289SOL    HW220715   2.434   8.604   8.166  0.8308  2.3706  1.6272
 5290SOL     OW20716   1.184   8.951   8.898  0.1466  0.0164  0.0418
 5290SOL    HW120717   1.188   8.861   8.864  2.6686  0.5723 -1.2214
 5290SOL    HW220718   1.090   8.969   8.905 -0.4054 -2.7543  0.4508
 5291SOL     OW20719   1.050   8.539   9.167 -0.1004 -0.1908 -0.3565
 5291SOL    HW120720   1.027   8.611   9.226  1.8438  0.5212 -0.4220
 5291SOL    HW220721   1.103   8.480   9.220 -0.7339 -1.0142 -0.6190
 5292SOL     OW20722   2.051   7.866   7.310 -0.0789 -0.0891 -0.1119
 5292SOL    HW120723   2.144   7.843   7.318 -0.3566 -0.7248  1.4679
 5292SOL    HW220724   2.012   7.791   7.263  0.1241 -0.0489 -0.3419
 5293SOL     OW20725   1.797   8.548   8.907 -0.2329  0.2150  0.4944
 5293SOL    HW120726   1.727   8.490   8.934  0.1834 -0.1789  0.7457
 5293SOL    HW220727   1.788   8.556   8.813 -0.6333  0.1903  0.5324
 5294SOL     OW20728   0.610   6.912   6.737  1.0798 -0.0231  0.1124
 5294SOL    HW120729   0.654   6.994   6.714 -2.6055  2.0215 -0.0354
 5294SOL    HW220730   0.579   6.925   6.826 -1.5702 -0.2788 -0.7255
 5295SOL     OW20731   1.105   8.887   9.289 -0.6103  0.5205 -0.0381
 5295SOL    HW120732   1.167   8.945   9.244  0.7735  0.4682  1.7444
 5295SOL    HW220733   1.161   8.821   9.330 -1.9755 -0.3708  0.3956
 5296SOL     OW20734   0.352   8.964   9.013 -0.3931 -0.0873 -0.0698
 5296SOL    HW120735   0.280   9.008   8.968 -0.4461 -0.4528 -0.3457
 5296SOL    HW220736   0.312   8.926   9.091 -0.1350  1.2686  0.7437
 5297SOL     OW20737   1.406   8.660   8.920 -0.8827 -0.0622 -0.2831
 5297SOL    HW120738   1.386   8.667   8.827 -0.8564  0.7727 -0.2386
 5297SOL    HW220739   1.440   8.747   8.943 -0.1132 -0.5248  0.3229
 5298SOL     OW20740   1.159   9.131   8.199 -0.3141  0.0122 -0.1854
 5298SOL    HW120741   1.206   9.100   8.276 -1.7151  0.4576  0.8580
 5298SOL    HW220742   1.145   9.052   8.146 -1.6287 -0.7506  1.2534
 5299SOL     OW20743   0.310   9.537   6.499  0.1637  1.0779  0.0965
 5299SOL    HW120744   0.400   9.506   6.504  0.1214  0.7927 -0.7802
 5299SOL    HW220745   0.315   9.619   6.448 -0.1745  0.5760 -0.7636
 5300SOL     OW20746   2.982   7.993   0.745 -0.3639 -0.3096 -0.7153
 5300SOL    HW120747   3.010   8.051   0.816 -0.6058  0.1314 -0.9744
 5300SOL    HW220748   2.899   8.030   0.716  0.4617  0.4013 -2.2336
 5301SOL     OW20749   2.111   8.177   7.788  0.7104  0.0443 -0.1979
 5301SOL    HW120750   2.104   8.116   7.714  0.1306 -1.1749  0.8525
 5301SOL    HW220751   2.025   8.174   7.830  0.8238  1.2502  0.1418
 5302SOL     OW20752   0.271   7.934   8.675 -1.0142 -0.2855 -0.3010
 5302SOL    HW120753   0.222   7.987   8.613 -0.0074  0.1916 -0.7043
 5302SOL    HW220754   0.321   7.997   8.727  0.3004 -0.8166 -0.8771
 5303SOL     OW20755   9.684   8.778   8.640  0.1105 -0.2905  0.3284
 5303SOL    HW120756   9.702   8.871   8.651 -0.8261 -0.0046 -0.4362
 5303SOL    HW220757   9.770   8.737   8.632  0.4888  0.8872 -2.0661
 5304SOL     OW20758   0.140   0.068   8.908  0.2058  0.5319  0.4122
 5304SOL    HW120759   0.107   0.059   8.819  0.3212  0.6817  0.3527
 5304SOL    HW220760   0.184   0.153   8.909  1.3848 -0.0618  0.2357
 5305SOL     OW20761   3.926   7.121   9.216 -0.6468  0.2067 -0.1222
 5305SOL    HW120762   3.837   7.149   9.236 -0.7702 -0.8454  0.8466
 5305SOL    HW220763   3.917   7.060   9.143 -0.6035  0.9334 -0.7407
 5306SOL     OW20764   3.136   7.039   8.231 -0.5312  0.0368  0.2421
 5306SOL    HW120765   3.120   7.133   8.232 -1.0800 -0.0616  0.8625
 5306SOL    HW220766   3.196   7.026   8.157 -1.1715  0.7553 -0.4137
 5307SOL     OW20767   2.789   9.761   6.923  0.4159  0.8125  0.1076
 5307SOL    HW120768   2.851   9.714   6.979  0.5886  0.6028 -0.2573
 5307SOL    HW220769   2.746   9.824   6.981  1.5664  1.5394  0.1877
 5308SOL     OW20770   1.465   9.264   6.350 -0.1500  0.2977 -0.1224
 5308SOL    HW120771   1.399   9.259   6.281 -1.3673  0.8497  0.9882
 5308SOL    HW220772   1.544   9.297   6.306 -0.9824  0.8594 -1.2003
 5309SOL     OW20773   9.818   0.174   9.012 -0.0174  0.0478 -0.1063
 5309SOL    HW120774   9.875   0.201   8.940 -0.3980 -1.0729 -0.8481
 5309SOL    HW220775   9.879   0.147   9.081  0.3615  2.8721  0.7081
 5310SOL     OW20776   1.943   8.921   9.375 -0.3654 -0.5605  0.2546
 5310SOL    HW120777   1.902   8.835   9.365  2.0866 -1.7630  0.1094
 5310SOL    HW220778   1.953   8.932   9.470 -1.3258 -0.0887  0.3124
 5311SOL     OW20779   0.067   8.358   8.566  0.2570 -0.2584 -0.0988
 5311SOL    HW120780   0.085   8.418   8.494  0.8736 -0.8328 -0.4200
 5311SOL    HW220781   0.131   8.380   8.633  1.0763 -1.1517 -0.5721
 5312SOL     OW20782   1.250   9.950   8.489 -0.7461  0.0397 -0.6830
 5312SOL    HW120783   1.341   9.940   8.461 -0.5937 -2.4493  0.5613
 5312SOL    HW220784   1.204   9.880   8.442 -1.7293  0.2672 -0.0590
 5313SOL     OW20785   1.556   7.232   7.925 -0.2074 -0.0715  0.8096
 5313SOL    HW120786   1.569   7.310   7.871  1.3805 -0.6221  0.3646
 5313SOL    HW220787   1.532   7.266   8.012 -0.1379  0.8842  0.4554
 5314SOL     OW20788   1.123   6.557   9.431  0.0909 -0.4230  0.3037
 5314SOL    HW120789   1.187   6.498   9.471  0.4306 -1.0905 -1.1798
 5314SOL    HW220790   1.145   6.644   9.466  0.0815 -1.0528  1.8922
 5315SOL     OW20791   0.460   8.117   9.001  0.0702  0.1816 -0.5732
 5315SOL    HW120792   0.516   8.116   9.078 -0.9650  0.7359  0.2040
 5315SOL    HW220793   0.413   8.200   9.006 -0.0740  0.1797 -1.7453
 5316SOL     OW20794   2.239   8.662   0.090  0.3112 -0.2133 -0.8278
 5316SOL    HW120795   2.201   8.725   0.151  0.3555 -1.2958  0.3356
 5316SOL    HW220796   2.327   8.695   0.073 -0.1872  0.8451 -1.4132
 5317SOL     OW20797   2.135   7.804   6.893 -0.2710 -0.0432  0.4632
 5317SOL    HW120798   2.113   7.769   6.980 -1.5744 -1.9407 -0.5865
 5317SOL    HW220799   2.052   7.805   6.846  0.7320 -0.9439 -1.3956
 5318SOL     OW20800   7.796   1.545   8.831  0.0038  0.3025  0.4153
 5318SOL    HW120801   7.822   1.483   8.763  1.7349  1.9166 -0.4186
 5318SOL    HW220802   7.755   1.618   8.784 -0.3308  0.6570  1.2365
 5319SOL     OW20803   2.038   8.475   8.390  0.3835 -0.5838 -0.1587
 5319SOL    HW120804   2.067   8.532   8.462 -1.0273 -0.8482  0.6248
 5319SOL    HW220805   2.038   8.532   8.313  2.2015 -0.3689 -0.0387
 5320SOL     OW20806   0.667   9.971   0.254  0.0929 -0.4672  0.6620
 5320SOL    HW120807   0.717  10.009   0.182 -2.1731  4.6693  1.5695
 5320SOL    HW220808   0.725   9.979   0.330 -0.5392  1.9035  0.9486
 5321SOL     OW20809   8.898   7.770   8.709 -0.4777 -0.2547  0.5009
 5321SOL    HW120810   8.883   7.804   8.621 -1.6408  0.4266  0.9481
 5321SOL    HW220811   8.868   7.679   8.704 -0.5083 -0.2294  0.1795
 5322SOL     OW20812   0.862   8.148   7.763 -0.2317 -0.5405 -0.3763
 5322SOL    HW120813   0.786   8.121   7.712  0.6852  0.8648 -2.5191
 5322SOL    HW220814   0.828   8.213   7.825 -1.6304 -3.3552  1.9582
 5323SOL     OW20815   0.922   0.260   9.257 -0.1447 -0.3458  0.5050
 5323SOL    HW120816   0.967   0.179   9.232 -1.4501 -1.3011  1.1905
 5323SOL    HW220817   0.898   0.300   9.174 -0.6488 -1.3262  0.1669
 5324SOL     OW20818   8.674   7.899   7.736 -0.5937  0.9691  0.0581
 5324SOL    HW120819   8.761   7.939   7.732  0.1038 -0.5065  0.0074
 5324SOL    HW220820   8.623   7.944   7.669  1.3449 -0.9520 -2.8271
 5325SOL     OW20821   1.452   8.320   9.641  0.4360 -0.1030 -0.5105
 5325SOL    HW120822   1.434   8.362   9.558 -1.0510  0.5273  0.1120
 5325SOL    HW220823   1.532   8.362   9.673  0.4819  0.3156 -1.1683
 5326SOL     OW20824   9.090   7.925   0.690 -0.8513 -0.1632  0.0858
 5326SOL    HW120825   9.158   7.968   0.742 -1.7974  2.3930 -0.7488
 5326SOL    HW220826   9.100   7.832   0.711  1.5651  0.3726  1.5357
 5327SOL     OW20827   0.925   8.563   9.658  0.6823  0.7623 -0.1598
 5327SOL    HW120828   0.910   8.509   9.736  1.0842  1.0035  0.0864
 5327SOL    HW220829   0.843   8.611   9.646  0.2288 -0.0935 -0.5348
 5328SOL     OW20830   0.598   9.096   9.013 -1.0800 -0.2295 -0.2478
 5328SOL    HW120831   0.511   9.057   9.016 -1.6418  0.9597 -1.2168
 5328SOL    HW220832   0.595   9.168   9.076 -0.8296 -0.1244 -0.3543
 5329SOL     OW20833   0.265   9.477   9.377  0.3288 -0.3877 -0.7468
 5329SOL    HW120834   0.192   9.538   9.367  2.1587  1.6052 -2.3180
 5329SOL    HW220835   0.255   9.414   9.306 -0.0941 -0.3717 -0.7000
 5330SOL     OW20836   1.245   6.783   6.119 -0.3369 -0.1635  0.3119
 5330SOL    HW120837   1.221   6.699   6.079  1.0347 -0.1193 -0.6271
 5330SOL    HW220838   1.234   6.769   6.213  0.7599 -1.6793  0.2342
 5331SOL     OW20839   0.184   7.530   8.468  0.0808  0.7516 -0.5057
 5331SOL    HW120840   0.095   7.502   8.489 -0.0976  1.1059 -0.7977
 5331SOL    HW220841   0.185   7.624   8.484  0.9394  0.4459  1.3476
 5332SOL     OW20842   1.215   9.153   7.500 -0.1489  0.1050 -0.1472
 5332SOL    HW120843   1.286   9.214   7.484 -0.5067  0.1378 -1.6905
 5332SOL    HW220844   1.145   9.180   7.441 -0.8497 -0.9156  0.1818
 5333SOL     OW20845   3.129   7.198   6.481  0.1611  0.2849  0.2007
 5333SOL    HW120846   3.069   7.244   6.421  2.1188  1.8327 -0.6218
 5333SOL    HW220847   3.148   7.115   6.437  1.8273  1.5371 -1.5318
 5334SOL     OW20848   1.769   8.553   8.601  0.2822 -0.2802 -0.1776
 5334SOL    HW120849   1.698   8.603   8.641  0.4764 -1.4427  1.6873
 5334SOL    HW220850   1.838   8.617   8.585 -0.2405  0.4107  0.2994
 5335SOL     OW20851   1.415   8.051   9.713  0.1240  0.2100  0.2752
 5335SOL    HW120852   1.503   8.016   9.695 -0.7026 -1.1890 -1.1719
 5335SOL    HW220853   1.423   8.145   9.693  1.0705 -0.0628 -0.7350
 5336SOL     OW20854   0.183   9.676   0.206  0.0057 -0.4728 -0.2220
 5336SOL    HW120855   0.220   9.631   0.282  0.6248  1.7922  0.8658
 5336SOL    HW220856   0.103   9.717   0.239  1.2115  2.0438 -0.2507
 5337SOL     OW20857   8.803   9.547   0.761 -0.2745  0.2812  0.2307
 5337SOL    HW120858   8.806   9.591   0.675 -0.6927  0.9138  0.5354
 5337SOL    HW220859   8.747   9.604   0.814 -0.1358 -0.1951  0.8784
 5338SOL     OW20860   0.840   9.685   9.913 -0.5795  0.1785  0.0935
 5338SOL    HW120861   0.927   9.669   9.878 -0.6986  0.4726 -0.3414
 5338SOL    HW220862   0.810   9.600   9.945 -0.8561 -0.3024 -1.4015
 5339SOL     OW20863   8.842   8.443   8.568  0.2321 -0.0689 -0.6329
 5339SOL    HW120864   8.926   8.489   8.560  0.2438  0.3602  1.4215
 5339SOL    HW220865   8.814   8.462   8.658 -1.6412 -0.9348 -1.0134
 5340SOL     OW20866   1.323   0.856   9.734  0.1326  0.5499 -0.3242
 5340SOL    HW120867   1.369   0.775   9.755  0.7851  0.8544 -0.5481
 5340SOL    HW220868   1.278   0.837   9.652  1.2365  0.7655 -1.0005
 5341SOL     OW20869   9.269   9.965   0.287  0.4814 -0.4193 -0.4027
 5341SOL    HW120870   9.216  10.007   0.219  0.5247  0.7201  0.2573
 5341SOL    HW220871   9.322   9.901   0.240 -0.1309 -0.2613 -1.3211
 5342SOL     OW20872   2.709   7.929   9.771 -0.2093  0.1364 -0.3457
 5342SOL    HW120873   2.637   7.991   9.775  1.1712  1.7212  0.3880
 5342SOL    HW220874   2.751   7.935   9.857  0.8293 -0.7190 -0.7733
 5343SOL     OW20875   2.422   8.392   9.871 -0.2455 -0.3549 -0.2746
 5343SOL    HW120876   2.331   8.367   9.886 -0.7395  1.6261  0.2766
 5343SOL    HW220877   2.458   8.402   9.959  0.0471  0.3864 -0.4767
 5344SOL     OW20878   1.187   0.477   8.724 -0.4803  0.4465  0.3676
 5344SOL    HW120879   1.202   0.419   8.650  0.8242 -0.8251  1.5956
 5344SOL    HW220880   1.206   0.565   8.691  1.1419 -0.2200 -0.5244
 5345SOL     OW20881   0.343   8.153   9.874  0.0591  0.4900 -0.3095
 5345SOL    HW120882   0.343   8.248   9.868  0.4356  0.7052  2.5499
 5345SOL    HW220883   0.430   8.126   9.845 -0.2370  0.9418 -1.6658
 5346SOL     OW20884   0.885   9.036   9.034 -1.0587 -0.1124 -0.2292
 5346SOL    HW120885   0.932   9.111   9.071 -2.3745  0.4755  0.2778
 5346SOL    HW220886   0.798   9.069   9.015 -1.3216 -1.2359 -1.0267
 5347SOL     OW20887   1.005   9.276   9.146  0.3758  0.0972 -0.0293
 5347SOL    HW120888   1.040   9.276   9.235 -0.5523  0.1211  0.3447
 5347SOL    HW220889   0.978   9.367   9.130 -1.7109 -0.3795  0.5879
 5348SOL     OW20890   2.688   9.011   9.184  0.6851  0.1615  0.0638
 5348SOL    HW120891   2.620   9.061   9.139 -0.3402 -0.8568  0.4547
 5348SOL    HW220892   2.755   8.995   9.117 -0.0280  0.1165 -0.6378
 5349SOL     OW20893   1.747   7.306   0.285  0.2720  0.1569 -0.3312
 5349SOL    HW120894   1.788   7.384   0.249  1.2805 -1.6822 -3.3852
 5349SOL    HW220895   1.751   7.318   0.380  2.3618  2.7883 -0.7044
 5350SOL     OW20896   1.896   8.715   2.218  0.1343  0.3765 -0.6149
 5350SOL    HW120897   1.827   8.780   2.207 -0.3288 -0.2825 -1.6908
 5350SOL    HW220898   1.864   8.638   2.172  0.6383 -0.6563  0.7222
 5351SOL     OW20899   9.479   8.251   0.224 -0.0375  0.0305 -0.4958
 5351SOL    HW120900   9.469   8.166   0.267 -0.0541  1.1408  1.7449
 5351SOL    HW220901   9.568   8.278   0.243 -0.6989  1.4801  0.6160
 5352SOL     OW20902   2.157   9.944   9.014  0.7057 -0.5109 -0.4646
 5352SOL    HW120903   2.114   9.969   8.932  0.2860  0.6505  0.0967
 5352SOL    HW220904   2.250   9.956   8.996  0.6427 -0.5890 -0.8690
 5353SOL     OW20905   1.059   8.261   0.267  0.2156 -0.2324  0.0334
 5353SOL    HW120906   1.087   8.313   0.192  0.5847  1.1176  1.0919
 5353SOL    HW220907   0.981   8.214   0.236 -0.4144  1.3234 -0.7816
 5354SOL     OW20908   1.357   9.002   9.385  0.6001 -0.1527 -0.0128
 5354SOL    HW120909   1.429   9.063   9.401  0.3925  0.2749 -0.6818
 5354SOL    HW220910   1.300   9.047   9.323 -2.6917  1.4058  3.9235
 5355SOL     OW20911   0.756   0.575   1.206  0.4266  0.8986 -0.0525
 5355SOL    HW120912   0.715   0.658   1.230 -2.7147 -0.2871 -0.9789
 5355SOL    HW220913   0.732   0.515   1.277 -0.2809 -0.0508 -1.0662
 5356SOL     OW20914   1.304   9.370   9.390  0.7751  0.4258  0.1425
 5356SOL    HW120915   1.302   9.380   9.295  0.7905  0.6308  0.1629
 5356SOL    HW220916   1.379   9.423   9.417  0.9386  0.1441  0.2412
 5357SOL     OW20917   0.058   7.649   8.171  0.1141  0.4758 -0.6951
 5357SOL    HW120918  -0.029   7.633   8.208 -0.1525  0.0323 -1.4970
 5357SOL    HW220919   0.114   7.666   8.247 -0.6188  0.5122 -0.1585
 5358SOL     OW20920   0.170   9.314   0.509 -0.6699  0.6035  0.1138
 5358SOL    HW120921   0.111   9.346   0.440 -1.3296 -2.4724 -0.8017
 5358SOL    HW220922   0.236   9.383   0.518 -0.4605  1.0024 -3.7267
 5359SOL     OW20923   3.453   9.519   0.531 -0.4028  0.1474 -0.6526
 5359SOL    HW120924   3.445   9.489   0.441 -2.0084  0.2001 -0.5419
 5359SOL    HW220925   3.377   9.482   0.576  0.2412  0.3231  0.6232
 5360SOL     OW20926   1.477   7.399   9.508 -0.2056  0.1090 -0.4004
 5360SOL    HW120927   1.496   7.333   9.441  0.1597  0.4817 -0.6647
 5360SOL    HW220928   1.381   7.400   9.514 -0.2220 -0.2808 -0.5582
 5361SOL     OW20929   0.984   7.247   8.835 -0.7395  0.2654  0.1344
 5361SOL    HW120930   0.991   7.170   8.891 -1.5401  1.1411  1.4662
 5361SOL    HW220931   0.974   7.212   8.746  1.0625 -1.1304  0.4589
 5362SOL     OW20932   9.525   7.417   8.458 -0.2676 -0.0053  0.3689
 5362SOL    HW120933   9.592   7.362   8.416 -0.1762  0.7999 -0.5621
 5362SOL    HW220934   9.476   7.357   8.514  1.1054 -0.6493  0.9035
 5363SOL     OW20935   8.875   6.871   8.706 -0.6073  0.1146 -0.5010
 5363SOL    HW120936   8.853   6.962   8.725  1.5360  0.9029 -1.5969
 5363SOL    HW220937   8.958   6.857   8.750  0.5260 -0.3904 -2.7132
 5364SOL     OW20938   2.139   8.650   9.578  0.2043 -0.0129 -0.0082
 5364SOL    HW120939   2.229   8.684   9.576  0.1916  0.0035 -0.3674
 5364SOL    HW220940   2.133   8.597   9.498 -0.6044  1.2508 -0.8055
 5365SOL     OW20941   0.236   7.991   8.054  0.4819 -0.2812  0.3265
 5365SOL    HW120942   0.280   7.924   8.106  0.9172 -1.1680 -1.1679
 5365SOL    HW220943   0.251   8.072   8.103  0.6455 -1.1382  1.7212
 5366SOL     OW20944   9.900   9.051   2.175  0.6732 -0.1429  0.4159
 5366SOL    HW120945   9.927   9.136   2.210 -0.1004  0.0507  0.5440
 5366SOL    HW220946   9.907   9.061   2.080  3.3531 -0.8565  0.4896
 5367SOL     OW20947   1.987   0.341   9.936  0.2263  0.0802  0.9550
 5367SOL    HW120948   2.010   0.330   9.843 -0.0825  0.4842  0.8328
 5367SOL    HW220949   2.072   0.350   9.980  0.4056 -0.7082  0.7915
 5368SOL     OW20950   0.062   8.018   9.207 -0.0931  0.0522  0.1174
 5368SOL    HW120951   0.070   8.064   9.124 -0.0731  0.6167  0.4306
 5368SOL    HW220952   0.135   8.050   9.260 -0.3328 -0.0115  0.4900
 5369SOL     OW20953   0.806   8.133   8.430  0.3278  0.3277  0.2769
 5369SOL    HW120954   0.900   8.150   8.442  0.4811 -0.1801 -0.1930
 5369SOL    HW220955   0.774   8.210   8.384  0.5272  0.4744  0.3809
 5370SOL     OW20956   2.878   8.833   9.516 -0.0584 -0.7585 -0.2394
 5370SOL    HW120957   2.870   8.926   9.537 -0.7116 -0.9742  0.5142
 5370SOL    HW220958   2.803   8.814   9.460  0.0281 -0.8485 -0.3229
 5371SOL     OW20959   0.402   7.909   8.287  0.0773 -0.2163  0.0783
 5371SOL    HW120960   0.453   7.932   8.365  0.5748  1.0512 -0.5928
 5371SOL    HW220961   0.432   7.822   8.263  1.1341  0.0684  0.3458
 5372SOL     OW20962   9.674   8.421   0.899  0.4493 -0.0814  0.7425
 5372SOL    HW120963   9.586   8.409   0.861  0.2375 -0.3802  1.3266
 5372SOL    HW220964   9.728   8.450   0.825  0.4813 -2.5509 -0.2604
 5373SOL     OW20965   0.264   8.639   8.661 -0.2021 -0.4311 -0.4155
 5373SOL    HW120966   0.322   8.575   8.620  0.4271 -0.6017  0.7083
 5373SOL    HW220967   0.260   8.611   8.753 -0.9987  0.3599 -0.2064
 5374SOL     OW20968   9.062   9.820   0.845  0.4229  0.5930 -0.4062
 5374SOL    HW120969   9.125   9.844   0.913  1.5664 -0.9166 -0.9277
 5374SOL    HW220970   8.995   9.770   0.892  0.5851  0.5783 -0.1872
 5375SOL     OW20971   1.574   9.945   9.914 -0.0291  0.0913 -0.0422
 5375SOL    HW120972   1.561   9.914  10.004  0.4570  0.9708  0.3322
 5375SOL    HW220973   1.663   9.920   9.892 -0.6065 -1.3778 -0.7942
 5376SOL     OW20974   1.097   6.944   0.366  0.1681  0.2424 -0.2723
 5376SOL    HW120975   1.019   6.924   0.417  0.2293  2.2674  0.6514
 5376SOL    HW220976   1.081   7.031   0.329  1.6294  0.3387 -0.7428
 5377SOL     OW20977   1.003   8.456   8.134  0.1324 -0.2832 -0.2206
 5377SOL    HW120978   1.001   8.425   8.044 -0.0218  0.6774 -0.5537
 5377SOL    HW220979   1.072   8.521   8.136  1.2986 -1.5225  0.7732
 5378SOL     OW20980   0.273   7.533   0.526  0.5869 -0.4684 -0.5146
 5378SOL    HW120981   0.262   7.536   0.621  2.2506  1.1933 -0.3428
 5378SOL    HW220982   0.328   7.456   0.511 -0.2774 -1.1592 -0.2227
 5379SOL     OW20983   1.017   7.893   8.905 -0.6916 -0.0154  0.3433
 5379SOL    HW120984   0.935   7.851   8.931 -1.3513  0.6702 -0.6233
 5379SOL    HW220985   1.077   7.820   8.888 -1.4427 -0.5381 -0.0774
 5380SOL     OW20986   2.688   8.221   8.454 -0.5206 -0.3916  0.2300
 5380SOL    HW120987   2.760   8.223   8.517  0.2193  0.2181 -0.6301
 5380SOL    HW220988   2.696   8.303   8.406 -1.1035 -0.8333 -0.6331
 5381SOL     OW20989   0.828   8.472   0.843  0.2666  0.3665  0.0540
 5381SOL    HW120990   0.743   8.516   0.841 -0.9493 -1.9508 -0.7514
 5381SOL    HW220991   0.876   8.508   0.769 -0.3186  1.0609  0.0064
 5382SOL     OW20992   1.194   8.484   0.930  0.5174  0.0689 -0.3778
 5382SOL    HW120993   1.139   8.560   0.950 -1.3157 -1.3858  0.3249
 5382SOL    HW220994   1.226   8.455   1.015 -0.8115 -1.3909 -0.3487
 5383SOL     OW20995   9.929   9.152   0.077 -0.1530 -0.6382  0.4288
 5383SOL    HW120996   9.971   9.118  -0.002 -0.6988 -0.7935  0.2079
 5383SOL    HW220997   9.990   9.217   0.110  0.2212 -0.7952  0.0520
 5384SOL     OW20998   0.489   8.774   8.797 -0.3551  0.0832  0.3655
 5384SOL    HW120999   0.458   8.684   8.802  0.2588 -0.1522  0.0540
 5384SOL    HW221000   0.417   8.827   8.831 -0.5725 -0.5579  0.9088
 5385SOL     OW21001   0.961   9.119   8.741 -0.2229 -0.2897 -0.0879
 5385SOL    HW121002   0.894   9.072   8.789  1.1426 -1.7704  0.4244
 5385SOL    HW221003   0.946   9.098   8.650 -0.8277 -0.1254 -0.0233
 5386SOL     OW21004   0.667   8.867   9.917 -0.0444 -0.3224  0.0515
 5386SOL    HW121005   0.698   8.941   9.969  2.4426 -0.3615 -1.3187
 5386SOL    HW221006   0.666   8.900   9.827 -0.3494 -1.5252 -0.3945
 5387SOL     OW21007   0.751   8.713   1.124 -0.0375 -0.0893 -0.7573
 5387SOL    HW121008   0.760   8.732   1.030 -0.7358  2.1125 -0.4043
 5387SOL    HW221009   0.778   8.621   1.132  1.7153  0.1825 -2.8588
 5388SOL     OW21010   0.802   9.160   0.536  0.5100  0.4841 -0.5481
 5388SOL    HW121011   0.827   9.139   0.445 -1.3001 -0.0476 -0.9422
 5388SOL    HW221012   0.879   9.203   0.572  1.0278  1.3069 -2.5496
 5389SOL     OW21013   1.209   8.612   8.338 -0.3858 -0.2722  0.1703
 5389SOL    HW121014   1.137   8.589   8.397 -0.5904  1.4331  0.6233
 5389SOL    HW221015   1.169   8.670   8.273  0.4509  0.2271  0.0903
 5390SOL     OW21016   1.949   0.261   9.275  0.2527  0.1415  0.2980
 5390SOL    HW121017   2.027   0.222   9.312 -0.3706  0.6401  2.1956
 5390SOL    HW221018   1.940   0.345   9.320 -0.3444  0.9297 -1.2361
 5391SOL     OW21019   9.610   9.422   9.252 -0.3574  0.1814  0.6093
 5391SOL    HW121020   9.532   9.368   9.266 -0.8215  0.6294 -0.2095
 5391SOL    HW221021   9.597   9.498   9.309 -0.3776  0.1077  0.7010
 5392SOL     OW21022   1.375   8.690   2.051  0.0770 -0.1259 -0.0901
 5392SOL    HW121023   1.317   8.617   2.076 -1.2286  0.5843 -0.9602
 5392SOL    HW221024   1.461   8.664   2.083 -0.8226 -0.9458  1.8066
 5393SOL     OW21025   0.698   0.904   9.158 -0.3097  0.1500 -0.8317
 5393SOL    HW121026   0.767   0.878   9.097  0.9877 -0.1461  0.7351
 5393SOL    HW221027   0.701   0.838   9.227 -0.6474  1.4119  0.4009
 5394SOL     OW21028   0.387   7.808   7.714 -0.2422  0.0415  0.1139
 5394SOL    HW121029   0.445   7.777   7.644 -0.9313 -2.6819  0.6667
 5394SOL    HW221030   0.446   7.836   7.784  0.4220  0.0849 -0.4588
 5395SOL     OW21031   0.486   8.070   7.411 -0.7198  0.0704  0.0152
 5395SOL    HW121032   0.537   8.145   7.379 -0.7067  0.5518  1.1392
 5395SOL    HW221033   0.436   8.105   7.484  1.2356 -1.6274  2.2208
 5396SOL     OW21034   2.362   7.748   9.755 -0.3871  0.3092  0.1590
 5396SOL    HW121035   2.269   7.770   9.763 -0.3796  0.6836 -0.7187
 5396SOL    HW221036   2.408   7.823   9.792 -0.4650 -1.3073  3.7257
 5397SOL     OW21037   1.107   7.251   1.135  0.2234 -0.1522 -0.0957
 5397SOL    HW121038   1.146   7.335   1.159 -1.7320  0.5314  0.7802
 5397SOL    HW221039   1.112   7.199   1.215  0.2869 -0.4255 -0.2784
 5398SOL     OW21040   0.614   9.851   9.847 -0.3776  0.4857 -0.2541
 5398SOL    HW121041   0.642   9.939   9.820 -0.7567  0.7151  0.1105
 5398SOL    HW221042   0.696   9.803   9.859 -0.1656  0.8484 -0.2463
 5399SOL     OW21043   1.582   9.138   9.466  0.5974  0.4936 -0.2715
 5399SOL    HW121044   1.540   9.205   9.521  1.3812  2.8689 -2.4581
 5399SOL    HW221045   1.676   9.154   9.476  0.8313 -1.0077  0.0376
 5400SOL     OW21046   0.715   8.876   8.685 -0.0125 -0.0231  0.2342
 5400SOL    HW121047   0.633   8.832   8.709 -0.8674  1.9591  1.0411
 5400SOL    HW221048   0.733   8.846   8.596 -2.4962  0.7806 -0.5640
 5401SOL     OW21049   9.300   7.750   9.922 -0.5532  0.4525 -0.1194
 5401SOL    HW121050   9.346   7.738   9.839 -0.9372  0.1610 -0.2919
 5401SOL    HW221051   9.328   7.836   9.953  0.7049 -0.0430  0.1668
 5402SOL     OW21052   0.922   7.650   1.484  0.7111  0.3613  0.2912
 5402SOL    HW121053   0.853   7.584   1.500  1.2793  0.2951  2.6153
 5402SOL    HW221054   0.897   7.690   1.400 -3.6755  2.2021  2.2975
 5403SOL     OW21055   1.188   8.858   8.493 -0.1206  0.3402  0.3365
 5403SOL    HW121056   1.116   8.863   8.556  0.1521 -1.0451  0.7781
 5403SOL    HW221057   1.145   8.862   8.407 -0.6423  0.5403  0.6047
 5404SOL     OW21058   0.846   7.877   0.213  0.0933  0.3875  0.1848
 5404SOL    HW121059   0.860   7.968   0.185 -0.4153  0.5137  0.3367
 5404SOL    HW221060   0.848   7.882   0.309  2.7631 -0.1835  0.1978
 5405SOL     OW21061   0.604   9.212   9.693  0.4530  0.8057 -0.4638
 5405SOL    HW121062   0.547   9.237   9.620 -0.8620 -0.9154 -0.0845
 5405SOL    HW221063   0.623   9.119   9.677  1.2241  0.7584  0.6743
 5406SOL     OW21064   1.503   9.657   9.139 -0.2197  0.4457  0.0824
 5406SOL    HW121065   1.588   9.683   9.173  0.8321 -1.3461 -1.1269
 5406SOL    HW221066   1.486   9.718   9.067  0.8783 -0.2996 -0.8294
 5407SOL     OW21067   0.620   8.704   1.410 -0.0040  0.2761 -0.1308
 5407SOL    HW121068   0.675   8.668   1.341 -0.2990 -0.7293  0.1578
 5407SOL    HW221069   0.678   8.712   1.486 -0.5441 -1.9686  0.5471
 5408SOL     OW21070   8.464   8.609   9.429 -0.9186  0.3529 -0.1817
 5408SOL    HW121071   8.444   8.701   9.445 -1.1262 -0.0937  2.2096
 5408SOL    HW221072   8.558   8.608   9.411 -0.6729  0.8696  1.0689
 5409SOL     OW21073   3.236   9.604   8.722  0.8260  0.1048  0.0566
 5409SOL    HW121074   3.269   9.516   8.707  2.0644  0.6686 -0.5148
 5409SOL    HW221075   3.260   9.623   8.813 -1.1468 -0.8690  0.8276
 5410SOL     OW21076   0.669   8.051   2.592  0.0158  0.0416  0.5089
 5410SOL    HW121077   0.662   8.110   2.517  1.1447 -1.7775 -1.1009
 5410SOL    HW221078   0.604   7.983   2.575  0.9985 -0.9456  0.6046
 5411SOL     OW21079   0.509   0.125   1.963 -0.5386 -0.5557 -0.0589
 5411SOL    HW121080   0.493   0.098   1.872 -0.7053 -1.0236  0.1055
 5411SOL    HW221081   0.518   0.042   2.010  0.9318 -0.3069  0.1079
 5412SOL     OW21082   0.751   7.585   2.960  0.5572  0.0454 -0.5190
 5412SOL    HW121083   0.820   7.564   3.023  0.9160  3.3084  0.2765
 5412SOL    HW221084   0.793   7.580   2.874  1.4837  0.8264 -0.1139
 5413SOL     OW21085   0.183   0.296   0.995  0.1047  0.1272 -0.2732
 5413SOL    HW121086   0.223   0.286   1.081 -1.4250  1.4883  0.6346
 5413SOL    HW221087   0.209   0.384   0.966 -0.3166  0.1146 -0.6975
 5414SOL     OW21088   0.086   9.596   1.489  0.4904  0.7723 -0.1638
 5414SOL    HW121089   0.094   9.518   1.434  1.4106  0.3916  0.5046
 5414SOL    HW221090   0.064   9.666   1.427  0.7521  0.1982 -0.9226
 5415SOL     OW21091   1.481   0.301   3.938  0.3678 -0.1243  0.2113
 5415SOL    HW121092   1.467   0.243   3.864  1.0061 -0.4519  0.3419
 5415SOL    HW221093   1.396   0.305   3.982 -0.3224  0.9503 -1.1564
 5416SOL     OW21094   0.379   9.765   1.425  0.0205  0.2028  0.3307
 5416SOL    HW121095   0.308   9.822   1.397  0.3375  0.9906  1.1154
 5416SOL    HW221096   0.435   9.821   1.480  1.3474 -0.3424 -0.4259
 5417SOL     OW21097   3.166   8.373   1.940 -0.0963 -0.3482 -0.5071
 5417SOL    HW121098   3.149   8.365   1.846 -0.5177  0.8734 -0.5327
 5417SOL    HW221099   3.128   8.457   1.965 -1.0468 -1.2013  0.9948
 5418SOL     OW21100   2.775   0.469   1.404 -0.3917 -0.2922 -0.0986
 5418SOL    HW121101   2.810   0.390   1.444 -0.3366 -0.6161 -0.7803
 5418SOL    HW221102   2.774   0.533   1.475  1.0597 -0.4353  0.0628
 5419SOL     OW21103   1.347   9.875   0.913 -0.6019  0.8739  0.0432
 5419SOL    HW121104   1.335   9.922   0.996 -1.5623 -0.3280  0.6034
 5419SOL    HW221105   1.262   9.881   0.870 -0.0971  1.5072 -0.8626
 5420SOL     OW21106   1.000   9.255   0.745  0.2284  0.0828  0.9549
 5420SOL    HW121107   1.096   9.255   0.744  0.2289 -0.1350  0.8718
 5420SOL    HW221108   0.977   9.290   0.831  0.3901 -0.4526  1.2184
 5421SOL     OW21109   9.637   2.492   1.048 -0.2817 -0.6826 -0.2293
 5421SOL    HW121110   9.714   2.436   1.033  0.4301  0.1703  0.2337
 5421SOL    HW221111   9.673   2.576   1.075 -1.4365 -0.9602  2.3083
 5422SOL     OW21112   2.789   9.677   1.271 -0.1689  0.1536 -0.6557
 5422SOL    HW121113   2.839   9.737   1.217  0.4260 -1.0049 -1.4069
 5422SOL    HW221114   2.719   9.731   1.308  0.3155  1.2840 -1.3561
 5423SOL     OW21115   2.408   0.191   1.437  0.0735  0.5027  0.1847
 5423SOL    HW121116   2.347   0.210   1.366  0.2937 -0.7651 -0.3594
 5423SOL    HW221117   2.405   0.095   1.446  0.7311  0.5771  1.2649
 5424SOL     OW21118   0.204   8.460   1.583  0.1945 -0.1424 -0.1810
 5424SOL    HW121119   0.192   8.555   1.582  0.0151 -0.1685 -0.9354
 5424SOL    HW221120   0.117   8.425   1.599  0.6139 -0.1336  2.2117
 5425SOL     OW21121   0.071   9.676   1.113  0.2628  0.0854 -0.6131
 5425SOL    HW121122   0.048   9.729   1.190 -1.6062  0.6143 -1.5155
 5425SOL    HW221123   0.117   9.600   1.150 -0.5879  0.3399  1.0362
 5426SOL     OW21124   9.650   0.395   0.519  0.1772 -0.7749 -0.4744
 5426SOL    HW121125   9.689   0.465   0.573  0.1223 -1.4340  0.4310
 5426SOL    HW221126   9.688   0.408   0.432  0.5517  0.0851 -0.1883
 5427SOL     OW21127   1.412   8.678   0.466  0.0258 -0.2192  0.3630
 5427SOL    HW121128   1.383   8.602   0.517  1.6755 -1.0003  0.1982
 5427SOL    HW221129   1.393   8.654   0.375 -0.7869  0.1846  0.4273
 5428SOL     OW21130   3.320   9.223   1.730  0.4299 -0.3792 -0.1036
 5428SOL    HW121131   3.292   9.282   1.800  0.9310  1.0641 -1.0947
 5428SOL    HW221132   3.282   9.260   1.650  2.5899 -0.1020 -1.0503
 5429SOL     OW21133   1.109   8.991   1.447 -0.4574 -0.3447 -0.2641
 5429SOL    HW121134   1.152   9.069   1.413  1.1025 -1.4608 -0.8983
 5429SOL    HW221135   1.111   9.002   1.542 -0.6993  0.6200 -0.3694
 5430SOL     OW21136   9.332   0.922   3.140  0.2093 -0.0288 -0.3154
 5430SOL    HW121137   9.278   0.897   3.215 -2.8219  1.7294 -1.8159
 5430SOL    HW221138   9.390   0.990   3.174 -0.4249  0.0150  0.7022
 5431SOL     OW21139   0.218   7.907   2.503  0.4648  0.3930  0.3933
 5431SOL    HW121140   0.257   7.866   2.426 -1.5692  1.6944 -1.4139
 5431SOL    HW221141   0.156   7.842   2.536 -0.1642  0.5990 -0.3427
 5432SOL     OW21142   1.469   9.753   0.183 -0.0456 -0.7516 -0.3272
 5432SOL    HW121143   1.563   9.743   0.169 -0.0692 -2.4737  0.6270
 5432SOL    HW221144   1.457   9.739   0.277 -1.0996  0.8461 -0.1913
 5433SOL     OW21145   0.067   0.718   0.626  0.6540  0.0170 -0.1904
 5433SOL    HW121146  -0.001   0.774   0.663 -0.1213 -1.1281  0.1453
 5433SOL    HW221147   0.035   0.696   0.539 -0.3362 -2.0509  0.6603
 5434SOL     OW21148   0.677   0.516   0.931  0.7009 -0.0021  0.0234
 5434SOL    HW121149   0.637   0.432   0.951 -2.0885  1.7555  2.1903
 5434SOL    HW221150   0.723   0.541   1.011  0.6813  0.9892 -0.2602
 5435SOL     OW21151   1.881   8.470   1.676  0.4635  0.3305 -0.5703
 5435SOL    HW121152   1.944   8.429   1.616  0.4651  1.9954 -1.7386
 5435SOL    HW221153   1.810   8.406   1.683  2.6540 -1.9857  1.4955
 5436SOL     OW21154   1.708   9.733   8.942  0.5902 -0.0945  0.3142
 5436SOL    HW121155   1.741   9.699   8.859  0.3879  0.2918  0.0725
 5436SOL    HW221156   1.693   9.826   8.925 -1.2948 -0.4011  0.2007
 5437SOL     OW21157   1.462   9.645   2.173 -0.2190  0.1618  0.0991
 5437SOL    HW121158   1.498   9.702   2.106  0.1560 -0.4319 -0.2074
 5437SOL    HW221159   1.370   9.636   2.150 -0.1095  0.0235 -0.2914
 5438SOL     OW21160   0.652   9.716   1.242  0.1345  0.2481  0.2934
 5438SOL    HW121161   0.730   9.772   1.246  0.8512 -0.8176  1.7132
 5438SOL    HW221162   0.626   9.706   1.334 -0.9451 -0.4317 -0.0860
 5439SOL     OW21163   0.480   9.823   0.148  0.1883 -0.2265 -0.1738
 5439SOL    HW121164   0.555   9.870   0.182  0.1766 -0.1197 -0.2923
 5439SOL    HW221165   0.422   9.892   0.115  0.3399 -0.3428 -0.6911
 5440SOL     OW21166   1.971   8.882   0.713  0.2994 -1.1608 -0.0546
 5440SOL    HW121167   2.048   8.928   0.748 -0.4363 -1.7930  2.4849
 5440SOL    HW221168   1.898   8.940   0.732 -0.1615 -1.6707 -0.2736
 5441SOL     OW21169   1.929   9.746   1.643 -0.2574  0.5696 -0.3341
 5441SOL    HW121170   2.000   9.703   1.595 -1.3432 -0.8712 -0.6702
 5441SOL    HW221171   1.918   9.693   1.722 -1.0554  0.7219 -0.3395
 5442SOL     OW21172   1.005   8.670   0.985  0.1090 -0.8582  0.6019
 5442SOL    HW121173   0.943   8.621   0.931  1.2610 -1.4944 -0.1643
 5442SOL    HW221174   0.960   8.752   1.005 -1.0816 -1.4288  0.2760
 5443SOL     OW21175   1.820   0.120   0.010 -0.2544 -0.1187  0.7581
 5443SOL    HW121176   1.883   0.190  -0.008 -0.3330  0.0378  1.0747
 5443SOL    HW221177   1.874   0.043   0.028 -0.1999 -0.7462 -1.9537
 5444SOL     OW21178   2.256   9.819   1.390 -0.0852  0.5410  0.0347
 5444SOL    HW121179   2.298   9.839   1.307  0.5996 -1.6781 -0.1803
 5444SOL    HW221180   2.210   9.899   1.414  1.3579  1.8477 -1.4855
 5445SOL     OW21181   2.412   7.945   1.588  0.0838 -0.4342  0.2660
 5445SOL    HW121182   2.323   7.969   1.615  0.1838  0.5604 -0.2717
 5445SOL    HW221183   2.462   8.026   1.593  0.4259 -0.5029 -1.5431
 5446SOL     OW21184   1.024   9.058   0.138 -0.2084  0.6028  0.0529
 5446SOL    HW121185   0.953   9.100   0.089 -0.5490 -0.9625 -0.8233
 5446SOL    HW221186   0.985   8.978   0.174  0.8110  0.3062  0.5282
 5447SOL     OW21187   9.026   9.171   1.604 -0.1646 -0.0877  0.1856
 5447SOL    HW121188   9.101   9.155   1.546  0.0856  2.0704 -0.1292
 5447SOL    HW221189   8.949   9.162   1.548 -0.1228 -1.4250  0.3148
 5448SOL     OW21190   9.021   8.734   0.306 -0.1182  0.5369 -0.3592
 5448SOL    HW121191   8.987   8.812   0.350  0.9742 -0.0819  1.6088
 5448SOL    HW221192   8.989   8.660   0.358 -0.0304 -0.2894 -1.4454
 5449SOL     OW21193   9.061   1.483   1.258 -0.2684 -0.0700 -0.0109
 5449SOL    HW121194   8.996   1.458   1.192 -0.0802  0.9954 -0.6183
 5449SOL    HW221195   9.137   1.428   1.238 -0.8994 -1.1841  0.5860
 5450SOL     OW21196   2.502   9.838   0.641 -0.4861  0.0738 -0.5610
 5450SOL    HW121197   2.468   9.921   0.678 -0.2834  0.2744 -0.8264
 5450SOL    HW221198   2.439   9.815   0.573 -0.2614  0.2787 -0.8379
 5451SOL     OW21199   1.841   1.011   8.880  0.1174 -0.4676 -0.1512
 5451SOL    HW121200   1.931   0.993   8.853 -0.3687 -2.1441 -0.7686
 5451SOL    HW221201   1.818   1.091   8.834  1.1415 -0.2891 -0.3747
 5452SOL     OW21202   1.013   8.667   0.659 -0.5737 -0.4065 -0.3848
 5452SOL    HW121203   1.009   8.751   0.705  0.9031 -0.2328 -0.5620
 5452SOL    HW221204   0.925   8.657   0.621 -0.3921  1.6696 -1.4234
 5453SOL     OW21205   0.356   8.400   2.267 -0.0263 -0.2106 -0.2526
 5453SOL    HW121206   0.363   8.306   2.248  1.1825  0.0665 -1.2427
 5453SOL    HW221207   0.264   8.421   2.252 -0.3147 -1.2451  0.0206
 5454SOL     OW21208   1.063   9.816   1.834  0.0786  0.1452  0.4603
 5454SOL    HW121209   1.013   9.804   1.753 -0.9587  1.4083  0.9053
 5454SOL    HW221210   1.024   9.753   1.895  1.3491 -1.3313 -0.2227
 5455SOL     OW21211   9.589   9.751   1.836  0.2143 -0.8260 -0.1470
 5455SOL    HW121212   9.585   9.833   1.786 -2.7666 -0.8802 -0.1366
 5455SOL    HW221213   9.652   9.697   1.789  2.5422  1.5951  0.0713
 5456SOL     OW21214   8.967   1.152   1.239 -0.3734  0.5034 -0.3984
 5456SOL    HW121215   8.941   1.166   1.148 -0.1011  1.0390 -0.3968
 5456SOL    HW221216   8.989   1.059   1.244 -1.2981  0.2681 -0.6510
 5457SOL     OW21217   1.427   8.892   8.385  0.0976 -0.0756  0.4654
 5457SOL    HW121218   1.443   8.799   8.403 -0.4447 -0.1038  0.8339
 5457SOL    HW221219   1.346   8.911   8.433  0.7650  0.8490  1.2310
 5458SOL     OW21220   0.654   9.496   1.706 -0.0765  0.1269 -0.2189
 5458SOL    HW121221   0.560   9.503   1.690 -0.0413  1.2565  0.0414
 5458SOL    HW221222   0.672   9.402   1.704 -1.5270 -0.2005  1.5700
 5459SOL     OW21223   3.460   9.508   1.445  0.3151 -0.0279  0.1042
 5459SOL    HW121224   3.465   9.601   1.424  1.8653 -0.5829 -2.1240
 5459SOL    HW221225   3.371   9.483   1.420  0.0541  0.7404  0.2445
 5460SOL     OW21226   0.487   9.500   9.516 -0.1405  0.7855 -0.1391
 5460SOL    HW121227   0.541   9.529   9.442 -0.5566  3.6865  0.6504
 5460SOL    HW221228   0.399   9.493   9.480  0.5881 -3.8961 -1.4135
 5461SOL     OW21229   1.332   0.859   0.541 -0.1629 -0.1671 -0.2062
 5461SOL    HW121230   1.302   0.822   0.458  0.6614  0.0790 -0.6192
 5461SOL    HW221231   1.285   0.810   0.608 -0.3965 -0.7595 -0.8059
 5462SOL     OW21232   1.356   8.698   3.963  0.6386  0.2123  0.2468
 5462SOL    HW121233   1.379   8.658   3.879 -0.6040  0.8211 -0.3885
 5462SOL    HW221234   1.379   8.790   3.952 -0.2534  0.4444  0.2997
 5463SOL     OW21235   9.979   1.045   0.706  0.0343 -0.1803  0.4144
 5463SOL    HW121236  10.065   1.042   0.748  0.3756 -1.9962 -0.3503
 5463SOL    HW221237   9.918   1.013   0.773  0.2553 -0.8568  0.2979
 5464SOL     OW21238   0.446   9.317   0.787 -0.0438  0.5421  0.2253
 5464SOL    HW121239   0.463   9.339   0.879 -0.0419  0.5890  0.2134
 5464SOL    HW221240   0.519   9.354   0.739 -0.5874  1.4414  0.0861
 5465SOL     OW21241   1.549   8.411   8.975  0.1290  0.0636  0.1125
 5465SOL    HW121242   1.507   8.346   8.918  0.1060 -0.1248  0.3386
 5465SOL    HW221243   1.499   8.491   8.962  0.6634  0.2571 -0.7877
 5466SOL     OW21244   0.062   9.807   0.598  0.5184 -0.3147  0.2521
 5466SOL    HW121245   0.073   9.902   0.596 -0.7870 -0.1619 -0.1775
 5466SOL    HW221246   0.147   9.774   0.626  1.2278  0.9315 -0.3639
 5467SOL     OW21247   8.951   0.456   0.700  0.5443  0.8223 -0.7971
 5467SOL    HW121248   9.010   0.388   0.668 -1.4160 -1.4957  0.4611
 5467SOL    HW221249   9.010   0.530   0.719  2.8500 -0.9040 -0.9683
 5468SOL     OW21250   9.559   0.178   0.664 -0.1196 -0.4138 -0.1738
 5468SOL    HW121251   9.629   0.184   0.729 -2.0337 -0.8938  1.9614
 5468SOL    HW221252   9.587   0.237   0.594  1.4618  0.9467  1.5522
 5469SOL     OW21253   9.691   9.771   2.623  0.0474 -0.2825  0.1071
 5469SOL    HW121254   9.614   9.801   2.574 -0.3143 -1.2857  0.0626
 5469SOL    HW221255   9.667   9.684   2.655 -0.0877  0.7325  2.9072
 5470SOL     OW21256   0.685   8.971   0.756 -0.1980 -0.6160 -1.0694
 5470SOL    HW121257   0.684   9.033   0.829  0.8357 -0.0924 -1.4996
 5470SOL    HW221258   0.733   9.015   0.687 -0.5052 -1.4228 -1.8091
 5471SOL     OW21259   1.905   9.505   0.956  0.5193  0.1263 -0.0084
 5471SOL    HW121260   1.859   9.465   1.029 -0.1801  0.4110 -0.2858
 5471SOL    HW221261   1.917   9.596   0.982  2.1933 -0.2723  0.6622
 5472SOL     OW21262   0.438   0.343   0.712  0.1766 -0.1047 -0.5277
 5472SOL    HW121263   0.528   0.362   0.688 -0.1837  2.3969 -0.0237
 5472SOL    HW221264   0.446   0.280   0.784  1.5110 -0.2023 -0.7441
 5473SOL     OW21265   3.166   0.253   1.870  0.0570 -0.4788 -0.1361
 5473SOL    HW121266   3.250   0.235   1.914 -0.0625  1.0853  0.7540
 5473SOL    HW221267   3.191   0.297   1.789  0.2133 -2.2686 -1.0794
 5474SOL     OW21268   9.938   8.958   9.515  0.3378  0.1929  0.1778
 5474SOL    HW121269   9.957   8.945   9.422  2.7913  0.6264  0.5782
 5474SOL    HW221270   9.982   9.040   9.537  0.6380 -0.4300  1.9598
 5475SOL     OW21271   0.948   8.349   2.938  0.0650 -0.3861  0.0018
 5475SOL    HW121272   0.854   8.335   2.950  0.3560 -0.7160  2.0307
 5475SOL    HW221273   0.960   8.444   2.944 -0.3809 -0.1332 -2.3609
 5476SOL     OW21274   1.629   0.638   1.018 -0.1923  0.5242 -0.7247
 5476SOL    HW121275   1.627   0.726   0.980 -0.2465  0.9483  0.2486
 5476SOL    HW221276   1.717   0.605   0.997  0.8729  1.9133  1.3288
 5477SOL     OW21277   1.379   9.061   0.412  0.1419 -0.0483  0.4783
 5477SOL    HW121278   1.430   8.980   0.422  0.0524  0.0033  1.4022
 5477SOL    HW221279   1.412   9.118   0.481  0.1589  0.6864 -0.1366
 5478SOL     OW21280   1.874   9.195   1.374 -0.3925  0.2116 -0.1768
 5478SOL    HW121281   1.930   9.192   1.452 -1.0027  0.5092  0.2736
 5478SOL    HW221282   1.804   9.256   1.397 -2.3661 -2.1531  0.2248
 5479SOL     OW21283   1.521   8.929   1.772  0.1036  0.2351  0.1603
 5479SOL    HW121284   1.534   8.942   1.678  0.0669  2.1169  0.4131
 5479SOL    HW221285   1.467   8.850   1.777 -0.2994  0.3883 -1.4123
 5480SOL     OW21286   0.700   8.942   3.404  0.4330  0.0999 -0.2629
 5480SOL    HW121287   0.665   8.859   3.372  1.3003 -0.4659  0.2389
 5480SOL    HW221288   0.624   9.000   3.409 -0.0700 -0.4646 -1.2352
 5481SOL     OW21289   0.591   8.303   2.407 -0.2738  0.4652 -0.2458
 5481SOL    HW121290   0.545   8.322   2.489 -1.5367 -0.8764 -0.6383
 5481SOL    HW221291   0.550   8.360   2.343 -0.6531  0.0496 -0.3708
 5482SOL     OW21292   2.835   8.320   1.998 -0.1818 -0.3250  0.4630
 5482SOL    HW121293   2.758   8.294   1.947 -1.5842 -0.6431  2.6831
 5482SOL    HW221294   2.830   8.416   2.001  0.0746 -0.2838 -0.2218
 5483SOL     OW21295   1.227   9.926   3.694 -0.1211 -0.4855  0.3299
 5483SOL    HW121296   1.256   9.891   3.778 -1.5307 -2.2218  0.1260
 5483SOL    HW221297   1.263   9.864   3.629 -0.8740 -0.3832 -0.1896
 5484SOL     OW21298   5.220   8.219   1.815  0.1481  0.2372  0.1154
 5484SOL    HW121299   5.149   8.209   1.752 -1.3691 -1.9531  2.0720
 5484SOL    HW221300   5.285   8.155   1.788  0.0224  0.1131  0.1049
 5485SOL     OW21301   0.547   9.876   2.026 -0.0006  0.6756  0.4298
 5485SOL    HW121302   0.464   9.838   1.998  0.8626 -0.6176 -0.3961
 5485SOL    HW221303   0.614   9.816   1.994  1.1353 -0.0789  3.9829
 5486SOL     OW21304   0.187   8.844   2.202 -0.3335 -0.1761  0.0523
 5486SOL    HW121305   0.220   8.792   2.275 -0.9585 -1.9640 -0.9030
 5486SOL    HW221306   0.102   8.876   2.231  0.3390  0.8894  0.8914
 5487SOL     OW21307   9.908   8.227   2.636 -0.3043 -0.3146  0.3140
 5487SOL    HW121308   9.991   8.258   2.598  1.0232  0.3543  3.6229
 5487SOL    HW221309   9.901   8.137   2.606  1.2972 -0.1803 -0.5371
 5488SOL     OW21310   1.291   8.470   4.370 -0.1179 -0.3207  0.0608
 5488SOL    HW121311   1.244   8.551   4.392 -1.4622 -1.1689  0.3631
 5488SOL    HW221312   1.309   8.478   4.277  1.1348  1.0200  0.3965
 5489SOL     OW21313   2.028   9.474   0.709  0.2590  0.0023 -0.0605
 5489SOL    HW121314   2.067   9.560   0.694 -0.5899  0.1248 -1.6527
 5489SOL    HW221315   1.966   9.488   0.781 -0.9393  1.0714 -1.2686
 5490SOL     OW21316   0.515   9.142   3.547 -0.0032  0.3138  0.1768
 5490SOL    HW121317   0.428   9.169   3.576 -0.0787  0.0440  0.2059
 5490SOL    HW221318   0.568   9.222   3.550 -0.0434  0.3192  0.9241
 5491SOL     OW21319   1.589   9.878   4.771  0.6289 -0.5136 -0.3692
 5491SOL    HW121320   1.677   9.902   4.801 -0.6909  0.6723  2.7515
 5491SOL    HW221321   1.582   9.784   4.790  0.7965 -0.3559  0.4651
 5492SOL     OW21322   0.466   9.446   1.997  0.2567 -0.4753  0.2874
 5492SOL    HW121323   0.520   9.368   1.988 -0.8018 -1.5434  2.5625
 5492SOL    HW221324   0.528   9.518   2.003  1.3149 -1.3492 -0.0186
 5493SOL     OW21325   9.449   9.561   2.295 -0.3075  0.0672 -0.2006
 5493SOL    HW121326   9.368   9.512   2.310  0.0591 -0.2130  0.9554
 5493SOL    HW221327   9.445   9.633   2.358  0.9291 -0.6870  0.7674
 5494SOL     OW21328   1.428   8.871   4.277  0.3580  0.4168 -0.2042
 5494SOL    HW121329   1.407   8.920   4.198  0.2259 -1.7188 -1.5305
 5494SOL    HW221330   1.502   8.918   4.316  0.2276  1.6508 -1.4395
 5495SOL     OW21331   1.065   7.904   4.594  0.2293 -0.5422 -0.4248
 5495SOL    HW121332   1.091   7.911   4.502  1.3763  0.3713 -0.0380
 5495SOL    HW221333   0.970   7.911   4.592  0.2035 -1.0903 -1.5980
 5496SOL     OW21334   2.932   9.623   2.640 -0.4315  0.3827  0.8466
 5496SOL    HW121335   2.962   9.532   2.638 -2.9859 -0.4874 -0.8908
 5496SOL    HW221336   2.905   9.637   2.730 -1.8720 -1.2677  0.7146
 5497SOL     OW21337   3.208   8.084   5.666  0.3415 -0.4236  0.3809
 5497SOL    HW121338   3.128   8.042   5.698 -1.0456 -0.1632 -2.5574
 5497SOL    HW221339   3.275   8.016   5.673 -1.2583 -2.3038 -1.7347
 5498SOL     OW21340   1.281   0.105   3.968 -0.4005  0.0994  0.3043
 5498SOL    HW121341   1.186   0.110   3.977 -0.3281  2.1982  0.1717
 5498SOL    HW221342   1.312   0.086   4.057 -0.9399 -0.4849  0.3672
 5499SOL     OW21343   8.575   9.852   2.600 -0.1960 -0.4598 -0.1474
 5499SOL    HW121344   8.490   9.823   2.633 -0.5285 -1.0514 -1.4953
 5499SOL    HW221345   8.583   9.942   2.631 -0.7848 -0.7895  0.9811
 5500SOL     OW21346   0.615   9.992   2.602  0.0462  0.0830  0.5824
 5500SOL    HW121347   0.587  10.059   2.540  3.9410  2.5478  1.3028
 5500SOL    HW221348   0.634   9.916   2.548 -0.8926  0.7289 -0.6975
 5501SOL     OW21349   9.198   9.276   2.243  0.6580 -0.2955 -0.3992
 5501SOL    HW121350   9.129   9.336   2.215 -0.2740 -1.0380  0.2470
 5501SOL    HW221351   9.206   9.292   2.337  1.5386 -0.0499 -0.5161
 5502SOL     OW21352   0.286   9.776   1.961  0.1519  0.3127 -0.0518
 5502SOL    HW121353   0.250   9.748   1.877  0.2481  2.8645 -0.9993
 5502SOL    HW221354   0.209   9.788   2.017 -0.0790  0.4725 -0.3988
 5503SOL     OW21355   0.310   9.871   4.029 -0.1170 -0.7689 -0.2104
 5503SOL    HW121356   0.303   9.961   3.998 -1.4832 -0.3376  1.2397
 5503SOL    HW221357   0.254   9.821   3.970 -2.1826 -0.0614  1.0791
 5504SOL     OW21358   0.717   0.362   1.716  0.1485 -0.3734  0.2170
 5504SOL    HW121359   0.624   0.383   1.711 -0.1638 -1.6412  0.5618
 5504SOL    HW221360   0.730   0.331   1.806  1.0382  0.4440  0.3796
 5505SOL     OW21361   1.470   9.291   2.654  0.3104  0.3122  0.0925
 5505SOL    HW121362   1.507   9.206   2.681 -0.3081  0.6958  2.2722
 5505SOL    HW221363   1.388   9.269   2.611  0.2906 -0.2175  0.3924
 5506SOL     OW21364   9.984   8.899   2.643 -0.1923  0.0474 -0.1795
 5506SOL    HW121365   9.906   8.947   2.616 -0.7023 -0.4069  0.5014
 5506SOL    HW221366  10.002   8.929   2.732 -0.1566 -0.5797  0.0252
 5507SOL     OW21367   1.879   0.195   2.573  0.8476  0.0565  0.6719
 5507SOL    HW121368   1.884   0.106   2.539 -1.4195  0.4612 -0.8492
 5507SOL    HW221369   1.791   0.201   2.611  1.0264  1.6036  0.8640
 5508SOL     OW21370   0.238   9.524   2.778 -0.2933  0.9025  0.2456
 5508SOL    HW121371   0.227   9.581   2.854 -0.6182  0.8842  0.2134
 5508SOL    HW221372   0.290   9.576   2.716  2.1587  0.0011  1.4685
 5509SOL     OW21373   0.024   9.517   5.005 -0.3294 -0.5553 -0.0590
 5509SOL    HW121374   0.040   9.470   4.923 -1.1197 -0.8414 -0.0455
 5509SOL    HW221375   0.111   9.525   5.045  0.0525 -0.4437 -0.9053
 5510SOL     OW21376   1.776   9.968   1.908 -0.3211  0.1485 -0.4107
 5510SOL    HW121377   1.730   9.884   1.904  0.4413 -0.3908  1.3406
 5510SOL    HW221378   1.718  10.025   1.958  0.7334 -0.4680  1.6116
 5511SOL     OW21379   2.660   9.531   3.719  0.4707  0.1594 -0.2691
 5511SOL    HW121380   2.615   9.586   3.655  0.7973 -0.7525 -1.3079
 5511SOL    HW221381   2.695   9.592   3.783  0.0193  1.0834 -0.8947
 5512SOL     OW21382   0.871   9.911   3.769  0.2582 -0.6601  0.3515
 5512SOL    HW121383   0.804   9.858   3.726 -0.0879 -0.1324  0.2396
 5512SOL    HW221384   0.889   9.866   3.852 -1.5393  0.1834  1.2127
 5513SOL     OW21385   1.765   8.476   3.156  0.3917 -0.1002  0.0211
 5513SOL    HW121386   1.785   8.385   3.178  0.6379 -0.5579 -1.9967
 5513SOL    HW221387   1.670   8.482   3.161  0.3553 -0.5472 -0.1201
 5514SOL     OW21388   1.772   9.418   1.167  0.1658  0.0542  1.1605
 5514SOL    HW121389   1.679   9.430   1.186 -0.2860 -0.4897 -0.6336
 5514SOL    HW221390   1.814   9.413   1.253 -1.1337  2.7334  2.0139
 5515SOL     OW21391   1.315   9.230   2.060 -0.0935  0.5706 -0.2217
 5515SOL    HW121392   1.304   9.162   2.127  0.6548  0.5033 -0.1614
 5515SOL    HW221393   1.401   9.268   2.079 -1.2474  2.7502  0.8564
 5516SOL     OW21394   0.165   8.388   2.758  0.0309 -0.1213  0.3613
 5516SOL    HW121395   0.151   8.447   2.831  3.4117  0.8192  0.3296
 5516SOL    HW221396   0.185   8.303   2.799  2.0871  0.4423  0.5671
 5517SOL     OW21397   1.765   9.759   1.340  0.7242  0.4419  0.3953
 5517SOL    HW121398   1.739   9.763   1.432  0.5963 -1.0767  0.4316
 5517SOL    HW221399   1.703   9.819   1.296  0.4771  0.8018  1.2165
 5518SOL     OW21400   2.970   9.128   1.343  0.1649  0.0046 -0.4166
 5518SOL    HW121401   2.957   9.152   1.435 -1.6872 -0.5448 -0.5111
 5518SOL    HW221402   2.891   9.160   1.299 -0.4502 -2.5515 -1.2559
 5519SOL     OW21403   9.480   0.183   3.248  0.2032  0.1606  0.0473
 5519SOL    HW121404   9.472   0.092   3.278 -1.1333 -0.5025 -2.1759
 5519SOL    HW221405   9.567   0.210   3.276  0.2513 -1.4762  1.5963
 5520SOL     OW21406   0.909   9.195   2.751 -0.4370 -0.0747 -0.6769
 5520SOL    HW121407   0.955   9.198   2.667  0.5289 -3.2216 -0.3335
 5520SOL    HW221408   0.826   9.152   2.733 -1.4734  1.7860 -0.5009
 5521SOL     OW21409   0.116   8.990   3.469 -0.3273 -0.2397 -0.5338
 5521SOL    HW121410   0.176   9.049   3.423  1.2440  0.2540  2.0678
 5521SOL    HW221411   0.086   9.041   3.544 -2.5101 -1.1876 -0.7440
 5522SOL     OW21412   0.020   1.031   3.228  0.3420 -0.4895 -0.0979
 5522SOL    HW121413  -0.023   1.095   3.285 -1.1700  0.0244 -1.7430
 5522SOL    HW221414   0.113   1.042   3.246  0.1405  2.2939 -0.4097
 5523SOL     OW21415   9.949   8.632   2.669  0.0122  0.0425  0.7025
 5523SOL    HW121416   9.855   8.619   2.657  0.0937 -1.4665  1.6007
 5523SOL    HW221417   9.959   8.727   2.677 -1.3788  0.2448  0.2222
 5524SOL     OW21418   0.658   8.281   4.155  0.0851  0.0966  0.1727
 5524SOL    HW121419   0.630   8.372   4.156  0.7325  0.2964  0.1399
 5524SOL    HW221420   0.705   8.269   4.238  0.8245  0.0570 -0.2490
 5525SOL     OW21421   2.393   6.431   1.204 -0.3227 -0.2826 -0.0935
 5525SOL    HW121422   2.371   6.414   1.296  0.5409  1.0440  0.3587
 5525SOL    HW221423   2.411   6.525   1.200 -0.8752 -0.2241 -1.7339
 5526SOL     OW21424   1.752   8.811   2.649 -0.3965  0.1833 -0.3741
 5526SOL    HW121425   1.726   8.897   2.681 -0.7176  0.2979 -0.9363
 5526SOL    HW221426   1.748   8.754   2.725  0.5159  0.8205  0.1582
 5527SOL     OW21427   9.529   8.233   2.180 -0.2040  0.4467 -0.3345
 5527SOL    HW121428   9.556   8.288   2.106 -2.0064  1.6108 -0.1712
 5527SOL    HW221429   9.606   8.229   2.236  1.4955 -1.2281 -2.7035
 5528SOL     OW21430   1.393   9.756   2.945 -0.0112 -0.9847 -0.4401
 5528SOL    HW121431   1.438   9.707   3.014  1.5187  0.6719 -0.2223
 5528SOL    HW221432   1.459   9.768   2.877  0.6031  3.1778  0.7122
 5529SOL     OW21433   0.602   9.465   3.889  0.2274 -0.6629 -0.0940
 5529SOL    HW121434   0.586   9.517   3.810  0.9312 -0.2723  0.0140
 5529SOL    HW221435   0.698   9.466   3.899  0.0807  0.0653  1.2890
 5530SOL     OW21436   1.771   8.864   5.454 -0.5081 -0.2802  0.4005
 5530SOL    HW121437   1.681   8.850   5.424 -1.5776  0.7232  3.0263
 5530SOL    HW221438   1.798   8.945   5.411 -1.2282 -0.0169  0.4333
 5531SOL     OW21439   1.328   0.289   2.098 -0.2983 -0.2795  0.2426
 5531SOL    HW121440   1.237   0.317   2.106 -0.3746 -0.2764 -0.6257
 5531SOL    HW221441   1.356   0.322   2.012  0.1817 -1.2290  0.0311
 5532SOL     OW21442   9.712   9.941   2.266 -0.2052  0.4663 -0.5262
 5532SOL    HW121443   9.646   9.886   2.309  0.8398 -0.5279 -0.2026
 5532SOL    HW221444   9.705  10.025   2.312  0.0090 -0.1966  0.7617
 5533SOL     OW21445   2.116   0.297   3.796 -0.2110  0.2766  0.7950
 5533SOL    HW121446   2.132   0.218   3.847 -1.8996  1.1204  2.7236
 5533SOL    HW221447   2.069   0.267   3.719  0.1525 -0.7462  0.9671
 5534SOL     OW21448   1.028   7.409   9.884 -0.1503 -0.6417 -0.0956
 5534SOL    HW121449   0.980   7.392   9.802 -1.3570  1.8203  0.0572
 5534SOL    HW221450   0.966   7.457   9.938  2.3271  2.2413  0.2758
 5535SOL     OW21451   0.567   8.444   3.866 -0.1621 -0.0392 -0.5369
 5535SOL    HW121452   0.550   8.449   3.960 -1.0941 -2.7522 -0.4998
 5535SOL    HW221453   0.483   8.418   3.828  0.2471  0.8607 -2.0894
 5536SOL     OW21454   1.724   9.394   1.900 -0.0862 -0.2300  0.6588
 5536SOL    HW121455   1.786   9.358   1.837  1.4300 -0.2534  2.1355
 5536SOL    HW221456   1.639   9.361   1.871  0.1438  2.2186 -3.1157
 5537SOL     OW21457   1.817   9.904   3.813  0.6434  0.9624  0.2545
 5537SOL    HW121458   1.827   9.952   3.731 -2.3877  4.4816  1.7880
 5537SOL    HW221459   1.740   9.850   3.800  2.4802 -1.5289 -0.5304
 5538SOL     OW21460   0.668   0.493   2.742 -0.2441 -0.5637  0.1187
 5538SOL    HW121461   0.590   0.504   2.796  0.1427 -0.5329  0.6871
 5538SOL    HW221462   0.649   0.418   2.686 -0.9306 -0.1498 -0.2068
 5539SOL     OW21463   0.958   9.647   3.599  0.4425  0.1936 -0.0520
 5539SOL    HW121464   0.896   9.710   3.636  3.1739  3.0003 -0.1118
 5539SOL    HW221465   0.969   9.675   3.508  2.7654  0.4974  0.3067
 5540SOL     OW21466   1.126   9.485   2.943  0.4850  0.4728  0.4553
 5540SOL    HW121467   1.214   9.489   2.904 -0.2444 -1.7036 -1.5443
 5540SOL    HW221468   1.068   9.520   2.875 -0.6147 -1.7435  0.1943
 5541SOL     OW21469   0.315   1.139   2.423 -0.2226 -0.2679  0.2474
 5541SOL    HW121470   0.366   1.149   2.503  1.8303 -0.5475 -0.9814
 5541SOL    HW221471   0.312   1.045   2.408 -0.7595 -0.2282  0.1047
 5542SOL     OW21472   3.009   9.541   1.741  0.0499 -0.3396  0.3127
 5542SOL    HW121473   2.989   9.581   1.826 -0.6085 -1.5127  0.7254
 5542SOL    HW221474   2.997   9.447   1.756 -1.0892 -0.4788 -1.3565
 5543SOL     OW21475   1.723   9.520   3.096 -0.0862 -0.1736 -0.0019
 5543SOL    HW121476   1.701   9.438   3.050 -0.2567 -1.7518  2.7565
 5543SOL    HW221477   1.640   9.552   3.130 -0.0141  1.1561 -1.0551
 5544SOL     OW21478   9.904   9.971   5.507  0.1011 -0.7050 -0.4368
 5544SOL    HW121479   9.986   9.922   5.503 -0.1466 -1.2729  1.1916
 5544SOL    HW221480   9.842   9.916   5.459  0.5468 -0.5066 -1.2534
 5545SOL     OW21481   9.460   0.229   5.070  0.0916  0.0221 -0.1099
 5545SOL    HW121482   9.508   0.245   4.989  2.0123 -1.9004  0.5931
 5545SOL    HW221483   9.368   0.228   5.044  0.6500 -0.1473 -2.1834
 5546SOL     OW21484   0.453   0.400   3.883 -0.8156 -0.7093 -0.0387
 5546SOL    HW121485   0.399   0.322   3.871 -1.6399  0.1087 -1.9900
 5546SOL    HW221486   0.395   0.473   3.859  0.6307  0.3085 -0.5265
 5547SOL     OW21487   1.926   0.609   2.917 -0.0677  1.0115 -0.1314
 5547SOL    HW121488   1.915   0.580   2.826  0.3900  1.2823 -0.2745
 5547SOL    HW221489   1.839   0.599   2.956 -0.1593  0.4512 -0.4717
 5548SOL     OW21490   1.317   8.754   7.022 -0.4224 -0.4069 -0.0144
 5548SOL    HW121491   1.279   8.668   7.038 -2.1020  0.2090 -0.5679
 5548SOL    HW221492   1.245   8.805   6.984  1.3915  0.3449 -2.5114
 5549SOL     OW21493   0.550   8.960   4.252  0.5793 -0.4178 -0.3590
 5549SOL    HW121494   0.600   8.880   4.234  2.5771  0.3404  1.6356
 5549SOL    HW221495   0.594   9.000   4.327 -0.9188  2.1222 -0.7707
 5550SOL     OW21496   9.827   8.991   5.567 -0.6547 -0.2483  0.3004
 5550SOL    HW121497   9.902   9.033   5.610 -1.1445 -0.6980  1.6338
 5550SOL    HW221498   9.775   8.957   5.640 -1.4686 -1.0911 -0.6733
 5551SOL     OW21499   1.698   0.057   5.968  0.0141 -0.0808  0.0611
 5551SOL    HW121500   1.739   0.052   5.881 -0.4013  1.0061 -0.2073
 5551SOL    HW221501   1.678   0.150   5.980  0.2961 -0.1867  1.4321
 5552SOL     OW21502   1.826   1.378   4.195 -0.4241  0.7996 -0.7144
 5552SOL    HW121503   1.892   1.323   4.238 -3.4144 -1.3048  1.4516
 5552SOL    HW221504   1.840   1.362   4.102  1.2368 -0.6624 -0.2608
 5553SOL     OW21505   8.211   0.469   3.881 -0.5101 -0.2597  0.2898
 5553SOL    HW121506   8.188   0.418   3.804  0.2988 -1.0051  0.5427
 5553SOL    HW221507   8.289   0.427   3.917  0.0630  1.0356  0.6117
 5554SOL     OW21508   0.861   0.175   4.416 -0.3569  0.1655 -0.2165
 5554SOL    HW121509   0.783   0.131   4.383 -0.7182 -1.2533  2.4094
 5554SOL    HW221510   0.915   0.104   4.450  1.0233  1.3801  0.1674
 5555SOL     OW21511   1.116   0.238   5.121 -0.0598 -1.1887  0.0664
 5555SOL    HW121512   1.129   0.149   5.155 -0.0730 -0.9556  0.6921
 5555SOL    HW221513   1.022   0.252   5.127  0.0910 -0.6233  1.2793
 5556SOL     OW21514   1.262   0.283   4.347  0.1683 -0.9419 -0.3683
 5556SOL    HW121515   1.315   0.331   4.411  1.1977 -0.4826 -1.5329
 5556SOL    HW221516   1.205   0.228   4.399 -0.0238  0.4985  0.9817
 5557SOL     OW21517   1.654   1.006   4.666  0.1803  0.6750 -0.4226
 5557SOL    HW121518   1.645   1.025   4.759 -1.8041  0.7749 -0.6166
 5557SOL    HW221519   1.566   1.013   4.631  0.6774 -0.7404 -2.0570
 5558SOL     OW21520   3.122   0.268   3.388  0.0255  0.2772 -0.2551
 5558SOL    HW121521   3.083   0.346   3.428  0.4738  0.7066 -0.6425
 5558SOL    HW221522   3.134   0.292   3.296 -1.4323 -0.8584 -0.7598
 5559SOL     OW21523   1.011   9.527   5.813  0.7261  0.6635 -0.3424
 5559SOL    HW121524   0.990   9.465   5.883 -1.0431  0.4564 -1.0328
 5559SOL    HW221525   1.106   9.537   5.818  0.6210  0.7774  2.1849
 5560SOL     OW21526   0.235   9.097   3.094  0.1315  0.4789  0.0240
 5560SOL    HW121527   0.283   9.175   3.065 -1.5330  1.3247 -0.4984
 5560SOL    HW221528   0.281   9.070   3.174  2.0145  0.7455 -0.9532
 5561SOL     OW21529   1.017   8.498   5.685  0.2706 -0.1776  0.0598
 5561SOL    HW121530   0.987   8.438   5.617 -1.4971  0.1045  0.5632
 5561SOL    HW221531   1.080   8.555   5.641  0.6211 -1.2510 -0.8469
 5562SOL     OW21532   1.103   9.297   6.350 -0.2446  0.4243 -0.0697
 5562SOL    HW121533   1.027   9.266   6.300 -0.8050  1.2266  0.2708
 5562SOL    HW221534   1.177   9.283   6.292 -0.8365  0.9344 -0.9584
 5563SOL     OW21535   1.534   9.699   5.838 -0.2168 -0.3837  0.0545
 5563SOL    HW121536   1.532   9.652   5.922  0.3261 -2.4391 -1.0495
 5563SOL    HW221537   1.501   9.786   5.859 -1.7485 -1.3947  2.0749
 5564SOL     OW21538   0.600   0.077   4.492  0.1459  0.5563 -0.0234
 5564SOL    HW121539   0.515   0.116   4.473  0.0820  0.1692 -0.5697
 5564SOL    HW221540   0.591   0.038   4.579 -0.1349  0.7923  0.0499
 5565SOL     OW21541   0.088   8.824   4.173  1.1662 -0.2743 -0.8198
 5565SOL    HW121542   0.140   8.893   4.215  1.6406 -1.3219  0.3476
 5565SOL    HW221543   0.059   8.769   4.245  0.2974 -0.9660 -1.6920
 5566SOL     OW21544   1.720   8.477   4.378  0.1274 -0.1004  0.1117
 5566SOL    HW121545   1.665   8.473   4.456 -0.7336 -1.7295 -0.5450
 5566SOL    HW221546   1.678   8.541   4.321 -1.4316 -1.7034 -0.6026
 5567SOL     OW21547   1.622   9.745   6.303  0.2709  0.3180 -0.5322
 5567SOL    HW121548   1.683   9.781   6.238 -1.0483  3.1637 -0.2549
 5567SOL    HW221549   1.627   9.805   6.377 -0.7818 -1.0027  0.6387
 5568SOL     OW21550   1.192   0.871   3.982 -0.5547 -0.5121  0.7916
 5568SOL    HW121551   1.099   0.870   4.004 -0.6429  2.1387  0.6944
 5568SOL    HW221552   1.201   0.942   3.919  1.9188  0.9734  2.7158
 5569SOL     OW21553   0.248   8.973   4.331  0.0536  0.3204 -0.3134
 5569SOL    HW121554   0.285   8.948   4.415 -1.2342  0.4813  0.3136
 5569SOL    HW221555   0.323   8.997   4.277  0.8331  0.8355  0.9941
 5570SOL     OW21556   0.541   8.315   3.173 -0.0190  0.5440  0.0271
 5570SOL    HW121557   0.566   8.258   3.246  0.8863  0.5032 -0.3118
 5570SOL    HW221558   0.503   8.392   3.215  0.1827  0.3755  0.5331
 5571SOL     OW21559   2.459   9.373   4.251 -0.1724 -0.4133  0.1400
 5571SOL    HW121560   2.465   9.279   4.266 -1.4042 -0.6225 -0.6529
 5571SOL    HW221561   2.462   9.382   4.156  1.0601  0.4420  0.2447
 5572SOL     OW21562   1.150   9.797   4.760 -0.3281 -0.0689 -0.0316
 5572SOL    HW121563   1.183   9.885   4.747 -0.8875  0.1031 -0.2752
 5572SOL    HW221564   1.229   9.741   4.757  0.2053  0.5570  1.5890
 5573SOL     OW21565   0.043   9.807   3.918  0.4875  0.0062  0.4356
 5573SOL    HW121566   0.014   9.868   3.851  0.7978  0.7749  0.9915
 5573SOL    HW221567   0.003   9.723   3.894  1.4668  0.0247 -1.2987
 5574SOL     OW21568   1.213   0.046   4.847 -0.5526  0.3656  0.4128
 5574SOL    HW121569   1.235   0.126   4.800 -1.5940  0.6397  0.3863
 5574SOL    HW221570   1.226   0.068   4.940  2.4114 -0.4563  0.2436
 5575SOL     OW21571   8.982   0.096   4.796 -0.4780  0.1239 -1.1408
 5575SOL    HW121572   8.901   0.103   4.745 -0.8740 -2.7712 -0.9635
 5575SOL    HW221573   8.968   0.022   4.854  2.6835 -1.1326 -1.8483
 5576SOL     OW21574   0.899   8.614   3.906 -0.1645 -0.2877  0.6755
 5576SOL    HW121575   0.961   8.548   3.875 -0.4218  0.0672 -0.6402
 5576SOL    HW221576   0.953   8.679   3.951  0.3655 -0.2708  0.0343
 5577SOL     OW21577   1.401   0.136   2.935  0.1473  0.2087 -0.0053
 5577SOL    HW121578   1.318   0.154   2.891  1.0231 -0.0910 -1.8617
 5577SOL    HW221579   1.404   0.041   2.942 -0.2716  0.2880  1.2989
 5578SOL     OW21580   0.211   9.767   7.051  0.1123  0.0293  0.2079
 5578SOL    HW121581   0.154   9.767   7.128  0.5847 -1.6073  0.5679
 5578SOL    HW221582   0.244   9.678   7.046  1.3295  0.5420 -0.9784
 5579SOL     OW21583   9.341   7.879   6.225  0.3314 -0.0182  0.0735
 5579SOL    HW121584   9.252   7.861   6.256  0.2590 -0.0280 -0.1369
 5579SOL    HW221585   9.329   7.943   6.154  0.5300  0.3234  0.3494
 5580SOL     OW21586   1.275   9.571   5.882  0.5342 -0.1408 -0.4189
 5580SOL    HW121587   1.229   9.633   5.939 -0.5329 -0.6550 -0.6873
 5580SOL    HW221588   1.357   9.613   5.860 -0.1205  1.1214 -0.4840
 5581SOL     OW21589   0.519   9.677   4.526  0.5244 -0.3879  0.2534
 5581SOL    HW121590   0.442   9.636   4.486  0.1544 -0.4792  1.0529
 5581SOL    HW221591   0.483   9.738   4.590  1.1003  0.3699 -0.1300
 5582SOL     OW21592   2.172   0.057   3.933  0.5224  0.2962  0.1703
 5582SOL    HW121593   2.144  -0.031   3.959  2.1511 -0.4431 -0.4915
 5582SOL    HW221594   2.190   0.049   3.839  0.4054  1.4166  0.0504
 5583SOL     OW21595   1.555   0.049   5.600  0.0038 -0.1561 -0.1388
 5583SOL    HW121596   1.505  -0.032   5.594 -0.1914 -0.3825  3.5507
 5583SOL    HW221597   1.643   0.022   5.625  0.2518  0.6905 -0.0565
 5584SOL     OW21598   1.836   0.965   5.769 -0.4145 -0.7508 -0.2722
 5584SOL    HW121599   1.792   0.963   5.684 -1.9869 -1.6310  0.5374
 5584SOL    HW221600   1.802   1.044   5.811  0.3510 -0.3260 -0.4343
 5585SOL     OW21601   0.247   9.322   5.924 -0.1689 -0.4457 -0.0174
 5585SOL    HW121602   0.327   9.287   5.961 -0.0241  0.2320  0.3116
 5585SOL    HW221603   0.177   9.291   5.983  0.0142  0.2734  0.5722
 5586SOL     OW21604   2.349   0.008   5.439 -0.6339 -0.5567 -0.1263
 5586SOL    HW121605   2.293   0.086   5.437  0.7753  0.5391  2.1321
 5586SOL    HW221606   2.295  -0.060   5.398 -2.1242  1.4075 -1.5655
 5587SOL     OW21607   0.267   0.343   5.269  0.3123  0.4701 -0.1770
 5587SOL    HW121608   0.256   0.249   5.255 -0.0589  0.6077 -0.8034
 5587SOL    HW221609   0.309   0.375   5.189 -0.4497  0.9969 -0.3701
 5588SOL     OW21610   9.602   1.286   4.480 -0.5981 -0.5272  0.3018
 5588SOL    HW121611   9.520   1.249   4.447 -0.0340 -1.0376 -0.5416
 5588SOL    HW221612   9.600   1.378   4.453  0.2907 -1.1624 -2.0064
 5589SOL     OW21613   1.615   0.591   5.690 -0.0873  0.3088 -0.3705
 5589SOL    HW121614   1.547   0.538   5.648 -0.6692  1.4220 -0.8508
 5589SOL    HW221615   1.607   0.571   5.783 -0.7959  0.1075 -0.4706
 5590SOL     OW21616   2.085   9.360   5.148 -0.3127  0.5625  0.2836
 5590SOL    HW121617   2.084   9.421   5.222  1.1252  1.0376 -0.0647
 5590SOL    HW221618   2.167   9.311   5.159 -1.6231 -1.5768  0.7620
 5591SOL     OW21619   3.491   7.699   4.031  0.6406 -0.1510  0.2255
 5591SOL    HW121620   3.529   7.667   4.113 -1.8721 -1.2197  1.0029
 5591SOL    HW221621   3.435   7.627   4.001  0.3008  0.8559 -1.6299
 5592SOL     OW21622   0.233   9.838   4.789  0.2532  0.6915  0.0367
 5592SOL    HW121623   0.227   9.873   4.878  0.1276  2.7313 -0.7550
 5592SOL    HW221624   0.326   9.845   4.767  0.3198 -0.0192  0.0728
 5593SOL     OW21625   1.105   9.489   4.956 -0.7242  0.2819  0.3872
 5593SOL    HW121626   1.143   9.459   5.039  1.4009 -0.1275 -0.6886
 5593SOL    HW221627   1.115   9.584   4.957  3.2910 -0.0414 -1.2078
 5594SOL     OW21628   2.265   8.111   4.505  0.1093 -0.0062 -0.4187
 5594SOL    HW121629   2.215   8.155   4.574  0.2860  0.9585 -0.9091
 5594SOL    HW221630   2.217   8.030   4.489 -0.2232  0.0163  0.4732
 5595SOL     OW21631   0.546   9.389   5.542 -0.0009  0.6767 -0.1625
 5595SOL    HW121632   0.499   9.444   5.605  0.9811 -0.3978  1.5476
 5595SOL    HW221633   0.563   9.446   5.468 -0.8604  2.0677  0.6948
 5596SOL     OW21634   1.992   8.389   3.980  0.1041 -0.2863  0.3286
 5596SOL    HW121635   1.932   8.315   3.976  1.5212 -1.6075  2.2573
 5596SOL    HW221636   2.079   8.350   3.977  0.8907  1.5245 -1.5296
 5597SOL     OW21637   0.688   9.701   3.666 -0.2961  0.1608 -0.1273
 5597SOL    HW121638   0.597   9.688   3.692  0.1602  0.3823  1.6526
 5597SOL    HW221639   0.693   9.669   3.575 -1.6266 -1.9019  0.5118
 5598SOL     OW21640   2.331   9.561   5.819 -0.2684 -0.4176  0.3490
 5598SOL    HW121641   2.299   9.637   5.771  0.6348  0.0730  0.5041
 5598SOL    HW221642   2.258   9.536   5.876 -1.3839 -1.0701 -1.3334
 5599SOL     OW21643   1.773   8.942   2.979 -0.4060  0.7374  0.3478
 5599SOL    HW121644   1.710   8.930   3.051 -0.9432  1.2798 -0.0208
 5599SOL    HW221645   1.815   9.026   2.997  1.4476 -0.4110  1.5056
 5600SOL     OW21646   1.240   9.160   6.153  0.0160 -0.0648  0.2753
 5600SOL    HW121647   1.276   9.083   6.199 -1.3109 -0.8933 -0.0578
 5600SOL    HW221648   1.220   9.128   6.065  0.8689  1.0713 -0.3470
 5601SOL     OW21649   0.280   9.683   3.039  0.0068 -0.1586 -0.0867
 5601SOL    HW121650   0.197   9.730   3.028 -0.9610 -1.7514  0.3197
 5601SOL    HW221651   0.263   9.621   3.110  1.8783  0.2352  0.7224
 5602SOL     OW21652   0.853   0.610   4.772 -0.9118 -0.1226  0.0297
 5602SOL    HW121653   0.875   0.570   4.855  1.2234  0.9047 -0.0081
 5602SOL    HW221654   0.875   0.545   4.706 -0.7898 -0.2126  0.1613
 5603SOL     OW21655   0.066   9.788   4.201 -0.1483  0.0773 -0.0390
 5603SOL    HW121656   0.086   9.776   4.108 -1.5212 -1.1828 -0.1981
 5603SOL    HW221657   0.055   9.699   4.235  0.7566  0.5012  1.4392
 5604SOL     OW21658   1.774   9.413   5.650 -0.2825 -0.0412  0.3637
 5604SOL    HW121659   1.835   9.405   5.576  0.7995 -0.3240  1.2691
 5604SOL    HW221660   1.726   9.330   5.651  0.2292 -0.3382  0.4302
 5605SOL     OW21661   2.188   9.594   4.916  0.9026  0.2008 -0.1832
 5605SOL    HW121662   2.215   9.593   4.824 -2.4023 -0.5732 -1.2162
 5605SOL    HW221663   2.195   9.502   4.944  0.3405  0.1532 -0.1837
 5606SOL     OW21664   1.018   8.885   6.200  0.2011 -0.0718  1.2235
 5606SOL    HW121665   1.020   8.801   6.247  1.3278 -0.1216  1.1049
 5606SOL    HW221666   1.105   8.923   6.216 -0.3526  1.1259  1.3792
 5607SOL     OW21667   1.686   9.024   6.105 -0.4160  0.0265 -0.1014
 5607SOL    HW121668   1.693   9.111   6.143  0.0139 -0.2943  0.5661
 5607SOL    HW221669   1.757   8.974   6.146 -1.4008 -0.9663  0.4120
 5608SOL     OW21670   2.116   1.392   5.163 -0.1689  0.8985 -0.0408
 5608SOL    HW121671   2.075   1.414   5.247 -2.2473 -0.5767 -0.6380
 5608SOL    HW221672   2.133   1.298   5.168  0.9807  1.0473 -0.7585
 5609SOL     OW21673   2.859   0.516   7.087 -0.1588  0.1108  0.3736
 5609SOL    HW121674   2.938   0.525   7.034 -0.8600 -1.0417 -0.9139
 5609SOL    HW221675   2.860   0.426   7.117  0.1308  0.7078  2.2071
 5610SOL     OW21676   1.988   0.106   6.679 -0.1325 -0.0489  0.2581
 5610SOL    HW121677   1.956   0.017   6.692  3.2908 -1.2934  0.6847
 5610SOL    HW221678   2.021   0.108   6.589  1.3527  0.2379  0.7860
 5611SOL     OW21679   0.351   8.029   5.686  0.6202  0.3074  0.1666
 5611SOL    HW121680   0.386   8.097   5.628 -2.4878  0.3766 -1.7578
 5611SOL    HW221681   0.341   7.952   5.630 -1.5142  0.0726  0.8243
 5612SOL     OW21682   9.908   9.943   5.797  0.3009  0.2036  0.5956
 5612SOL    HW121683   9.974  10.010   5.815 -0.5704  1.0887  0.4833
 5612SOL    HW221684   9.898   9.945   5.701 -2.1613  2.2476  0.8590
 5613SOL     OW21685   2.687   9.742   6.218  0.2801 -0.1404  0.3330
 5613SOL    HW121686   2.612   9.753   6.278 -0.2375 -1.2087 -0.0990
 5613SOL    HW221687   2.761   9.778   6.266 -0.3916  0.3584  1.0289
 5614SOL     OW21688   1.473   0.059   6.367 -0.3161  0.3919  0.4410
 5614SOL    HW121689   1.400   0.006   6.336 -0.6481 -0.0996  2.0498
 5614SOL    HW221690   1.435   0.146   6.380 -0.4359  0.3272  0.5270
 5615SOL     OW21691   0.829   9.461   7.603 -0.8429  0.3152 -0.0564
 5615SOL    HW121692   0.873   9.407   7.668  0.6318  0.2763 -1.0706
 5615SOL    HW221693   0.900   9.498   7.550 -1.8832  2.3129 -0.1099
 5616SOL     OW21694   9.856   0.569   6.709  0.0344  0.4834 -0.5357
 5616SOL    HW121695   9.793   0.539   6.775  0.2354  0.8522 -0.1756
 5616SOL    HW221696   9.808   0.634   6.657  0.4850  1.6488  0.4942
 5617SOL     OW21697   1.355   9.261   8.054  0.0996  0.3602 -0.2052
 5617SOL    HW121698   1.388   9.210   7.980 -1.3274 -0.0427 -0.5959
 5617SOL    HW221699   1.330   9.195   8.119 -1.0505  0.5636 -0.4145
 5618SOL     OW21700   1.024   9.324   7.027 -0.2206  0.0580  0.2178
 5618SOL    HW121701   1.065   9.274   6.957 -0.4660 -0.7044  0.6015
 5618SOL    HW221702   0.933   9.334   6.999  0.0567  1.1365 -0.3078
 5619SOL     OW21703   9.817   8.478   5.032 -0.2181 -0.1658 -0.8549
 5619SOL    HW121704   9.895   8.504   5.081  0.4880 -0.5008 -1.7924
 5619SOL    HW221705   9.747   8.475   5.098  0.3516  1.0523 -0.1855
 5620SOL     OW21706   8.136   0.209   4.315 -0.5705  0.2251  0.0507
 5620SOL    HW121707   8.050   0.176   4.342 -0.0010 -0.9971  0.4259
 5620SOL    HW221708   8.177   0.238   4.396 -0.2129 -0.2106  0.0290
 5621SOL     OW21709   0.839   9.103   6.234 -0.2533  0.2522  0.2022
 5621SOL    HW121710   0.845   9.120   6.140 -2.4422 -0.8212 -0.1480
 5621SOL    HW221711   0.864   9.012   6.244  4.5734  1.5348  1.2779
 5622SOL     OW21712   2.878   0.340   7.496  0.3889 -0.1907  0.5268
 5622SOL    HW121713   2.918   0.340   7.410  0.8177 -0.1425  0.7249
 5622SOL    HW221714   2.876   0.248   7.522  1.5387 -0.0871  1.0491
 5623SOL     OW21715   0.731   9.406   7.983 -0.2501  0.1513  0.2894
 5623SOL    HW121716   0.674   9.446   7.917 -1.4858  1.1579  1.9303
 5623SOL    HW221717   0.687   9.326   8.008 -0.6576  0.6304  1.1260
 5624SOL     OW21718   0.389   9.822   7.681  0.5970 -0.5633 -0.1805
 5624SOL    HW121719   0.349   9.881   7.617 -1.3328 -0.0258  1.5077
 5624SOL    HW221720   0.463   9.872   7.716 -0.3204  0.4273  0.3823
 5625SOL     OW21721   0.291   9.745   8.147  0.0047 -0.5302 -0.0251
 5625SOL    HW121722   0.369   9.694   8.124  0.6251  0.1720  0.4807
 5625SOL    HW221723   0.252   9.698   8.220  0.6733 -0.1923  0.5540
 5626SOL     OW21724   0.689   9.855   6.086 -0.3105  1.0796  0.0146
 5626SOL    HW121725   0.619   9.913   6.118 -1.1900  0.3856 -0.6504
 5626SOL    HW221726   0.655   9.767   6.097  1.2726  0.6369  1.5858
 5627SOL     OW21727   2.501   9.962   7.792  0.0620 -0.0206 -0.6366
 5627SOL    HW121728   2.590   9.957   7.827  0.0415  0.5466 -0.4996
 5627SOL    HW221729   2.501   9.899   7.719  0.7216  0.3449 -0.9638
 5628SOL     OW21730   0.549   8.509   7.673 -0.1527  0.6324 -0.4716
 5628SOL    HW121731   0.468   8.458   7.678 -0.2221  0.7122 -0.7470
 5628SOL    HW221732   0.562   8.524   7.579  0.1916  0.6023 -0.4283
 5629SOL     OW21733   1.117   0.248   8.254  0.0408 -0.2418  0.0305
 5629SOL    HW121734   1.082   0.265   8.166 -1.5817  1.0882  0.8882
 5629SOL    HW221735   1.151   0.333   8.282  0.9059 -0.7581  0.5419
 5630SOL     OW21736   0.937   0.032   6.737  0.4305  0.3255  0.0265
 5630SOL    HW121737   0.846   0.021   6.711  0.5066 -0.4542  0.0784
 5630SOL    HW221738   0.941   0.120   6.775  0.0836  1.0375 -1.5590
 5631SOL     OW21739   0.643   9.540   5.322 -0.3073  0.0212  0.4978
 5631SOL    HW121740   0.621   9.610   5.261 -0.9823 -1.4341 -0.9972
 5631SOL    HW221741   0.716   9.574   5.373  0.4551  1.1867 -1.3224
 5632SOL     OW21742   9.441   8.735   5.678  0.1285 -0.0171 -0.2991
 5632SOL    HW121743   9.369   8.673   5.688  0.2051  0.0107  0.4323
 5632SOL    HW221744   9.471   8.721   5.588 -0.4967 -0.3414 -0.4627
 5633SOL     OW21745   1.177   0.895   6.509  0.0535  0.0757 -0.0629
 5633SOL    HW121746   1.088   0.898   6.473  0.7867  0.9705 -1.8394
 5633SOL    HW221747   1.187   0.805   6.539 -1.0204 -0.3718 -0.9907
 5634SOL     OW21748   0.446   1.646   7.335 -0.1153 -0.1853  0.0151
 5634SOL    HW121749   0.454   1.582   7.406  3.0511  0.0278 -0.0841
 5634SOL    HW221750   0.498   1.609   7.264  0.3245  1.6791 -0.6588
 5635SOL     OW21751   1.089   9.198   5.670 -0.5433 -0.0957 -0.4460
 5635SOL    HW121752   1.060   9.284   5.638 -1.8785 -0.7722 -1.1191
 5635SOL    HW221753   1.063   9.137   5.601  1.4127 -0.9131 -0.4924
 5636SOL     OW21754   0.868   9.905   8.250 -0.2511  0.3547  0.5946
 5636SOL    HW121755   0.910   9.932   8.332  0.3164 -1.2755  0.8456
 5636SOL    HW221756   0.835   9.817   8.267  1.2134 -0.6100 -1.3949
 5637SOL     OW21757   8.975   0.402   7.499 -0.7467  0.5934 -0.1576
 5637SOL    HW121758   8.991   0.490   7.464  1.8146  0.7147  1.2797
 5637SOL    HW221759   9.006   0.405   7.589 -3.1285 -1.0451  0.7835
 5638SOL     OW21760   0.798   7.266   7.171 -0.1899 -0.6983  0.3676
 5638SOL    HW121761   0.786   7.328   7.243  0.0867 -0.2293  0.0094
 5638SOL    HW221762   0.709   7.236   7.150 -0.2774 -0.7908  0.8609
 5639SOL     OW21763   1.128   0.006   7.179 -0.0198  0.3983 -0.3519
 5639SOL    HW121764   1.123  -0.017   7.272 -0.5157 -2.4254 -1.0374
 5639SOL    HW221765   1.046   0.052   7.161 -0.8294 -0.8223  0.1596
 5640SOL     OW21766   0.464   0.008   7.280 -0.5145  0.6946  0.4617
 5640SOL    HW121767   0.401  -0.003   7.352 -1.9730 -0.2174 -0.9338
 5640SOL    HW221768   0.426   0.077   7.226  1.1295  2.1684  1.0953
 5641SOL     OW21769   1.408   9.811   5.594  0.1416  0.7618 -1.2788
 5641SOL    HW121770   1.322   9.769   5.593 -0.3075  1.5357  1.3957
 5641SOL    HW221771   1.467   9.742   5.625 -0.1431  1.2697  0.4402
 5642SOL     OW21772   0.111   8.562   8.386 -0.1038  0.5576  0.6204
 5642SOL    HW121773   0.063   8.613   8.321  0.5230 -0.1265 -0.3939
 5642SOL    HW221774   0.186   8.616   8.409  0.1367  0.4358  0.1309
 5643SOL     OW21775   9.907   9.305   6.357  0.2041 -0.0957  0.2745
 5643SOL    HW121776   9.924   9.225   6.407  1.0985  0.4272  0.8113
 5643SOL    HW221777   9.823   9.289   6.314  0.7208 -1.6164 -0.1981
 5644SOL     OW21778   2.048   0.725   5.767 -0.1998 -0.4281  0.1078
 5644SOL    HW121779   1.965   0.701   5.725  0.0729 -1.0388 -0.0771
 5644SOL    HW221780   2.076   0.803   5.721 -2.4746  1.9273  2.4954
 5645SOL     OW21781   0.796   9.656   5.539  0.2283  0.6412  0.0905
 5645SOL    HW121782   0.739   9.716   5.587 -1.5263 -1.0417  0.1444
 5645SOL    HW221783   0.821   9.589   5.603 -1.7391 -1.3481 -1.1481
 5646SOL     OW21784   0.978   8.386   7.875  0.4800  0.0625  0.3779
 5646SOL    HW121785   0.887   8.398   7.849  1.2313  2.9578 -1.1297
 5646SOL    HW221786   1.014   8.325   7.811 -0.4397 -1.3034  1.1393
 5647SOL     OW21787   1.721   0.187   7.669  0.4582 -0.0030  0.6281
 5647SOL    HW121788   1.681   0.113   7.713  0.8582  0.5632  1.9637
 5647SOL    HW221789   1.659   0.211   7.600 -1.0874  0.3314  2.1296
 5648SOL     OW21790   0.708   9.157   8.165  0.2216 -0.4888  0.5481
 5648SOL    HW121791   0.721   9.069   8.201 -2.1868 -0.1864  2.2094
 5648SOL    HW221792   0.641   9.197   8.220  0.0591  1.8082 -1.2223
 5649SOL     OW21793   0.771   1.015   5.287 -0.0960 -0.0920  0.3983
 5649SOL    HW121794   0.800   0.950   5.223 -2.6833  1.3353 -2.3203
 5649SOL    HW221795   0.789   0.974   5.372  1.2802 -2.9909 -1.2100
 5650SOL     OW21796   2.135   9.682   6.478 -0.0405 -0.1971 -0.1025
 5650SOL    HW121797   2.047   9.715   6.495 -0.2271  0.3252 -1.9265
 5650SOL    HW221798   2.169   9.656   6.564 -0.9784  2.0495  0.9903
 5651SOL     OW21799   0.782   7.922   6.623  0.2092  0.3247  0.2124
 5651SOL    HW121800   0.728   7.971   6.561 -0.4064 -0.4767  0.1079
 5651SOL    HW221801   0.839   7.988   6.663 -0.2758  1.0423 -0.2772
 5652SOL     OW21802   1.158   7.899   4.880 -0.6377 -0.0531  0.0742
 5652SOL    HW121803   1.129   7.906   4.789 -3.2394  1.3600  0.9485
 5652SOL    HW221804   1.080   7.917   4.932  0.6241 -1.5884  2.6185
 5653SOL     OW21805   9.289   0.316   5.990  0.1736 -0.5678 -0.2273
 5653SOL    HW121806   9.332   0.330   6.074 -0.8898  0.9282  0.0857
 5653SOL    HW221807   9.198   0.299   6.012  0.3079 -2.3247 -0.9680
 5654SOL     OW21808   0.508   8.549   6.403 -0.5135  0.0771 -0.5933
 5654SOL    HW121809   0.563   8.626   6.393 -1.1049  0.5504 -0.2173
 5654SOL    HW221810   0.541   8.505   6.482 -0.2822  0.0292 -0.7166
 5655SOL     OW21811   1.507   0.303   7.178  0.4161  0.0074 -0.0349
 5655SOL    HW121812   1.561   0.229   7.153  1.9621  0.7874  0.9061
 5655SOL    HW221813   1.554   0.380   7.145 -1.3762  0.5683 -1.3833
 5656SOL     OW21814   0.803   9.557   7.231 -0.4996  0.1710  0.1836
 5656SOL    HW121815   0.791   9.651   7.219 -1.0964 -0.1762 -2.3167
 5656SOL    HW221816   0.737   9.532   7.296  0.0382  1.5451  1.2774
 5657SOL     OW21817   0.409   1.159   6.577 -0.2088 -0.0138 -0.7514
 5657SOL    HW121818   0.335   1.213   6.548 -0.1923  0.1314 -0.5219
 5657SOL    HW221819   0.483   1.189   6.526  0.1210  1.1675  0.4075
 5658SOL     OW21820   0.057   9.424   6.924  0.3331 -0.2744  0.4793
 5658SOL    HW121821   0.118   9.468   6.983  1.5343 -0.0203 -0.9313
 5658SOL    HW221822   0.090   9.443   6.836 -1.3558 -0.7513 -0.2844
 5659SOL     OW21823   0.305   9.043   5.724  0.1300  0.2819 -0.2112
 5659SOL    HW121824   0.286   9.053   5.631  1.4140 -1.3308 -0.6552
 5659SOL    HW221825   0.222   9.066   5.767 -0.0481  2.4582 -1.6561
 5660SOL     OW21826   1.135   9.742   6.068 -0.3658  0.0098  0.1396
 5660SOL    HW121827   1.074   9.812   6.091  0.7086  1.3058 -0.8982
 5660SOL    HW221828   1.194   9.736   6.144  1.2184  2.1268 -0.8544
 5661SOL     OW21829   1.654   9.766   7.788  0.1761  0.3732 -0.7288
 5661SOL    HW121830   1.674   9.838   7.848 -1.8023 -0.1268  0.5872
 5661SOL    HW221831   1.596   9.805   7.723  0.6379  0.4145 -1.1181
 5662SOL     OW21832   1.334   9.715   6.533  0.4804 -0.2971 -0.1226
 5662SOL    HW121833   1.413   9.734   6.583 -0.5573  1.9871  0.7062
 5662SOL    HW221834   1.268   9.774   6.568 -1.6371 -2.1728 -0.7816
 5663SOL     OW21835   8.861   9.443   6.973 -0.5199 -0.1139  0.1699
 5663SOL    HW121836   8.927   9.375   6.983 -0.3405  0.2529  1.5341
 5663SOL    HW221837   8.780   9.396   6.957 -0.1691 -0.6032 -0.2007
 5664SOL     OW21838   1.215   8.075   6.717  0.1804 -0.0097 -0.0860
 5664SOL    HW121839   1.270   8.006   6.755  1.4017  1.4772  0.9156
 5664SOL    HW221840   1.172   8.116   6.792  0.4800  1.1518 -0.5314
 5665SOL     OW21841   1.773   8.603   5.947  0.1279  0.1015  0.1271
 5665SOL    HW121842   1.728   8.687   5.934  0.9412  0.3446 -1.1639
 5665SOL    HW221843   1.845   8.604   5.884 -0.8676 -2.2987 -1.1083
 5666SOL     OW21844   1.611   9.934   7.537 -0.3307 -0.2200  0.2048
 5666SOL    HW121845   1.561   9.998   7.486 -0.0823 -1.0860 -1.1322
 5666SOL    HW221846   1.699   9.936   7.500 -0.1178 -0.7629  0.6702
 5667SOL     OW21847   9.046   8.990   6.061 -0.8523  0.3667 -0.2777
 5667SOL    HW121848   9.110   9.021   6.124  0.1208 -0.6173 -0.7599
 5667SOL    HW221849   8.967   8.974   6.112 -0.8340  1.9705  0.2530
 5668SOL     OW21850   2.189   9.707   5.612 -0.2659 -0.0045  0.1244
 5668SOL    HW121851   2.107   9.671   5.645 -0.5653  1.3387  0.9002
 5668SOL    HW221852   2.164   9.790   5.570  0.4755 -0.4081 -1.1221
 5669SOL     OW21853   0.438   9.582   7.542  0.3117  0.1493  0.0461
 5669SOL    HW121854   0.353   9.546   7.569 -0.4917  0.7472 -1.6585
 5669SOL    HW221855   0.446   9.663   7.592  0.6547 -0.7358  1.4627
 5670SOL     OW21856   0.645   8.329   5.631  0.2571 -0.4552 -0.0032
 5670SOL    HW121857   0.677   8.418   5.641 -0.3783  0.0684 -2.3069
 5670SOL    HW221858   0.644   8.293   5.720  1.1412  1.6033  0.8558
 5671SOL     OW21859   3.392   8.526   6.900 -0.2186  0.5934  0.1976
 5671SOL    HW121860   3.416   8.537   6.992  0.2462 -0.1720  0.1726
 5671SOL    HW221861   3.388   8.615   6.865  0.5750  0.8316  0.7137
 5672SOL     OW21862   1.465   9.919   5.992 -0.8211  0.2856 -0.6886
 5672SOL    HW121863   1.476   9.881   6.079 -0.7554 -1.6397 -1.5159
 5672SOL    HW221864   1.535   9.984   5.985  0.7757 -1.3404 -0.2390
 5673SOL     OW21865   2.830   8.798   4.714 -0.0243 -0.3954 -0.0585
 5673SOL    HW121866   2.784   8.784   4.632 -0.2474 -0.7324  0.1247
 5673SOL    HW221867   2.779   8.750   4.779 -1.2463  1.8890  0.7148
 5674SOL     OW21868   0.775   9.526   4.961 -0.3487  0.2304  0.3420
 5674SOL    HW121869   0.760   9.458   5.027 -1.5980 -0.4441 -0.5980
 5674SOL    HW221870   0.869   9.523   4.944 -0.4834 -1.7057 -0.1418
 5675SOL     OW21871   0.737   8.254   6.221 -0.3453 -0.7916 -0.7338
 5675SOL    HW121872   0.789   8.300   6.287  0.9685 -1.7941 -1.0532
 5675SOL    HW221873   0.712   8.323   6.159 -1.7859  0.1942  0.9174
 5676SOL     OW21874   3.258   9.767   6.390 -0.7499 -0.3264 -0.0571
 5676SOL    HW121875   3.287   9.858   6.396 -2.8063  0.3877 -0.5131
 5676SOL    HW221876   3.231   9.744   6.479  0.9301 -0.9069  0.3138
 5677SOL     OW21877   1.585   7.967   5.860  0.0332  0.5083 -0.3793
 5677SOL    HW121878   1.642   7.898   5.827  1.9803  0.9089  2.0171
 5677SOL    HW221879   1.595   8.039   5.797 -1.3298 -1.0420 -2.4025
 5678SOL     OW21880   1.350   8.727   6.070  0.3903  0.1865  0.1764
 5678SOL    HW121881   1.296   8.699   5.997  1.1610  0.6468 -0.5783
 5678SOL    HW221882   1.414   8.787   6.031  1.2178 -0.0775  1.1124
 5679SOL     OW21883   3.366   8.829   6.176  0.0747  0.3712  0.0492
 5679SOL    HW121884   3.371   8.742   6.137  1.4579  0.6982 -0.5307
 5679SOL    HW221885   3.388   8.815   6.268 -1.7204 -0.1810  0.4001
 5680SOL     OW21886   1.070   9.827   6.886  0.6482  0.0121 -0.4493
 5680SOL    HW121887   0.991   9.807   6.937  1.3233  3.0747  1.9905
 5680SOL    HW221888   1.042   9.894   6.824  1.4901  1.9691  1.2058
 5681SOL     OW21889   0.785   0.245   8.116  0.3938  0.5279  0.2929
 5681SOL    HW121890   0.877   0.266   8.103 -0.2279  1.9886 -1.9144
 5681SOL    HW221891   0.750   0.318   8.168  0.0865  0.8664 -0.3855
 5682SOL     OW21892   9.483   0.393   8.804 -0.3275  0.0660 -0.2085
 5682SOL    HW121893   9.522   0.309   8.826  0.4487  0.2707 -0.7871
 5682SOL    HW221894   9.421   0.374   8.735 -0.6887 -0.1457  0.1743
 5683SOL     OW21895   2.856   0.081   7.564  0.2038  0.1052  0.2417
 5683SOL    HW121896   2.940   0.055   7.525  0.4737  0.9948  0.2141
 5683SOL    HW221897   2.855   0.039   7.650  0.4149 -0.3939 -0.0013
 5684SOL     OW21898   1.858   9.745   9.582  0.0716 -0.3630 -0.7690
 5684SOL    HW121899   1.911   9.782   9.512  0.4570 -0.2856 -0.4381
 5684SOL    HW221900   1.900   9.661   9.602 -1.1102 -1.2480 -1.8862
 5685SOL     OW21901   2.364   9.349   7.159 -0.2070 -0.1111  0.0192
 5685SOL    HW121902   2.402   9.375   7.075 -0.0028 -1.2059 -0.2358
 5685SOL    HW221903   2.358   9.430   7.208  2.7161  0.1020  0.1442
 5686SOL     OW21904   1.853   0.186   9.678  0.4534 -0.7412 -0.6388
 5686SOL    HW121905   1.942   0.208   9.704 -0.2227  0.1280  1.0390
 5686SOL    HW221906   1.849   0.091   9.681  0.9311 -0.7258  0.6374
 5687SOL     OW21907   0.566   9.512   7.054  0.1809 -0.1412  0.8066
 5687SOL    HW121908   0.583   9.488   7.145  1.3480 -0.7690  0.4402
 5687SOL    HW221909   0.649   9.548   7.023 -0.6457  1.4779  0.4276
 5688SOL     OW21910   9.971   0.885   8.856 -0.1720 -0.1510  0.1923
 5688SOL    HW121911  10.062   0.886   8.887 -0.4586 -1.1972  1.1083
 5688SOL    HW221912   9.927   0.822   8.914 -1.6809  1.0172  0.3423
 5689SOL     OW21913   8.901   9.093   8.544 -0.6651 -0.8839 -0.0045
 5689SOL    HW121914   8.879   9.132   8.629 -2.0704 -1.0012 -0.3185
 5689SOL    HW221915   8.834   9.027   8.529 -1.0335 -0.1529 -1.7009
 5690SOL     OW21916   1.282   9.257   8.448 -0.0090  0.0499 -0.2120
 5690SOL    HW121917   1.332   9.300   8.517 -0.3381  1.7299 -1.0019
 5690SOL    HW221918   1.348   9.222   8.388  0.2557 -0.0795  0.1563
 5691SOL     OW21919   9.621   0.334   9.744  0.1832  0.5455  0.2144
 5691SOL    HW121920   9.547   0.389   9.771  0.0096  0.7294 -0.6225
 5691SOL    HW221921   9.694   0.396   9.737  0.0707  0.6051 -0.3894
 5692SOL     OW21922   2.248   9.422   9.515  0.1014 -0.0128 -0.5270
 5692SOL    HW121923   2.327   9.409   9.462  1.2197  1.1364  0.8312
 5692SOL    HW221924   2.252   9.514   9.541 -1.6053  0.0084 -0.2941
 5693SOL     OW21925   1.818   9.962   7.336  0.3272 -0.0363 -0.3586
 5693SOL    HW121926   1.771   9.946   7.254  0.7897 -2.6075 -0.1719
 5693SOL    HW221927   1.876  10.035   7.316 -1.1345  0.8066 -1.6571
 5694SOL     OW21928   8.547   0.988   9.322  0.7806  0.3732 -0.5476
 5694SOL    HW121929   8.486   1.002   9.395 -0.7347 -2.2747 -1.2511
 5694SOL    HW221930   8.504   1.028   9.247  0.2669 -0.7543 -0.8681
 5695SOL     OW21931   0.442   9.795   5.435 -0.1205  0.5044  1.1023
 5695SOL    HW121932   0.476   9.884   5.446  1.5280  0.1007 -0.5516
 5695SOL    HW221933   0.468   9.769   5.346 -1.1383 -1.3943  1.3199
 5696SOL     OW21934   0.109   0.071   6.584 -0.5005  0.0073 -0.2833
 5696SOL    HW121935   0.069   0.056   6.499 -0.2192  0.5394 -0.5106
 5696SOL    HW221936   0.132   0.164   6.584  0.5059 -0.2344 -0.0687
 5697SOL     OW21937   8.739   9.406   8.459  0.1764 -0.5522  0.5438
 5697SOL    HW121938   8.752   9.340   8.527 -0.0296  0.2243  1.3557
 5697SOL    HW221939   8.766   9.488   8.501  1.4637 -0.2705 -0.8095
 5698SOL     OW21940   9.292   0.220   0.477  0.2171  0.0878  0.1126
 5698SOL    HW121941   9.227   0.252   0.540  0.9767  0.1381  0.8764
 5698SOL    HW221942   9.291   0.284   0.407 -0.3010  0.2796  0.2943
 5699SOL     OW21943   2.215   9.973   6.827 -0.2725 -0.1891 -0.6874
 5699SOL    HW121944   2.194  10.052   6.777  1.1094  0.5830 -0.0627
 5699SOL    HW221945   2.140   9.962   6.886 -1.7102 -0.8580 -2.5678
 5700SOL     OW21946   1.058   0.521   9.256  0.5968 -0.1567 -0.7060
 5700SOL    HW121947   1.122   0.483   9.195  1.3830  1.2570 -0.7654
 5700SOL    HW221948   1.028   0.446   9.307  1.3842 -1.0447 -1.5129
 5701SOL     OW21949   1.373   0.715   7.114 -0.2178  0.2366 -0.0302
 5701SOL    HW121950   1.432   0.756   7.051  0.5290 -0.8619 -0.0783
 5701SOL    HW221951   1.430   0.662   7.169 -0.9641  0.5548  1.0613
 5702SOL     OW21952   9.658   9.331   8.962  0.1995 -0.1009 -0.1215
 5702SOL    HW121953   9.633   9.273   8.890 -0.0858  0.4217 -0.4547
 5702SOL    HW221954   9.619   9.292   9.040 -1.9378  0.8815 -0.6859
 5703SOL     OW21955   0.317   8.106   9.299  0.0431  0.4085  0.1189
 5703SOL    HW121956   0.389   8.047   9.278  0.0046  0.7727 -1.0821
 5703SOL    HW221957   0.352   8.193   9.279 -0.8379  0.5582 -0.7849
 5704SOL     OW21958   1.005   9.788   9.394  0.1413  0.0385  0.2963
 5704SOL    HW121959   1.039   9.848   9.460  1.1541 -1.5511  1.2715
 5704SOL    HW221960   1.083   9.743   9.361 -0.4445  0.2752 -1.4365
 5705SOL     OW21961   0.600   0.448   8.145  0.7260 -0.1863 -0.1859
 5705SOL    HW121962   0.562   0.361   8.153 -1.3757  0.6852 -0.3898
 5705SOL    HW221963   0.529   0.503   8.112  3.1968  0.7311 -4.3751
 5706SOL     OW21964   0.961   0.516   6.672  0.5937 -0.2027 -0.7654
 5706SOL    HW121965   1.005   0.573   6.736  0.6374 -2.2770  1.1494
 5706SOL    HW221966   1.032   0.465   6.633  0.4678  0.4275 -1.8230
 5707SOL     OW21967   2.288   9.312   8.580  0.5377  0.1313  0.0118
 5707SOL    HW121968   2.219   9.364   8.540 -0.3532 -0.6301  0.5394
 5707SOL    HW221969   2.248   9.226   8.596  1.7799 -0.5170 -0.2377
 5708SOL     OW21970   0.401   0.884   0.032 -0.5779  0.2014 -0.0394
 5708SOL    HW121971   0.402   0.809  -0.027 -1.8636  1.0085 -1.1046
 5708SOL    HW221972   0.347   0.949  -0.012 -0.4571  1.3191  1.4205
 5709SOL     OW21973   2.624   9.299   7.924 -0.0466 -0.5914 -0.4778
 5709SOL    HW121974   2.661   9.245   7.854 -0.2621 -1.4893  0.0866
 5709SOL    HW221975   2.580   9.370   7.878  0.7070 -0.5949 -1.2164
 5710SOL     OW21976   9.824   9.911   8.856  0.0388 -0.4160 -0.9213
 5710SOL    HW121977   9.853  10.002   8.863  1.9605 -1.0570 -0.0605
 5710SOL    HW221978   9.833   9.890   8.763  1.7060 -0.3680 -0.7873
 5711SOL     OW21979   8.891   9.793   9.554 -0.1742  0.0108  0.4805
 5711SOL    HW121980   8.886   9.887   9.536 -1.2343 -0.0095  0.6170
 5711SOL    HW221981   8.805   9.760   9.530  0.7966 -1.2586 -1.4042
 5712SOL     OW21982   9.445   9.885   9.515  0.4101 -0.0674 -0.7169
 5712SOL    HW121983   9.443   9.960   9.574  2.1305  0.5325 -1.4011
 5712SOL    HW221984   9.493   9.818   9.563  0.6379 -0.0358 -0.8971
 5713SOL     OW21985   0.941   9.896   9.135 -0.8751 -0.0214  0.1346
 5713SOL    HW121986   0.957   9.863   9.224 -1.8387 -1.4922 -0.2283
 5713SOL    HW221987   1.024   9.936   9.110 -0.7639  0.9297  1.9181
 5714SOL     OW21988   0.991   0.725   8.211 -0.0004  0.1706 -0.6170
 5714SOL    HW121989   1.054   0.796   8.200 -1.3452  1.3469 -0.8575
 5714SOL    HW221990   0.956   0.709   8.123 -0.8692  0.3210 -0.3099
 5715SOL     OW21991   0.667   0.035   6.721  0.1479 -0.2886 -0.0215
 5715SOL    HW121992   0.682   0.051   6.628 -0.4114 -0.6930 -0.1853
 5715SOL    HW221993   0.627  -0.052   6.725 -0.7366  0.1219  0.5126
 5716SOL     OW21994   0.416   8.754   8.382  0.5081  0.2098 -0.5160
 5716SOL    HW121995   0.473   8.684   8.413  0.2129 -0.0616 -0.5706
 5716SOL    HW221996   0.461   8.835   8.407  2.0026  0.0291 -2.5441
 5717SOL     OW21997   0.755   8.702   0.250  0.3359 -0.0126  0.2032
 5717SOL    HW121998   0.827   8.738   0.199  0.7369  1.3770  1.7044
 5717SOL    HW221999   0.704   8.779   0.277 -0.5064 -0.8131  0.9390
 5718SOL     OW22000   0.947   0.098   8.540  0.0300  0.3768 -0.4145
 5718SOL    HW122001   1.031   0.065   8.509 -0.0945 -0.2026 -0.1489
 5718SOL    HW222002   0.894   0.019   8.555 -0.0311  0.6637  0.9323
 5719SOL     OW22003   2.404   0.366   9.807 -0.2833 -0.1287 -0.1341
 5719SOL    HW122004   2.335   0.352   9.872 -0.6134  0.3067 -0.3829
 5719SOL    HW222005   2.375   0.443   9.758 -0.3775 -0.8681 -1.2545
 5720SOL     OW22006   1.797   8.172   1.529 -0.1591  0.0459 -0.4054
 5720SOL    HW122007   1.886   8.205   1.516 -0.0300 -0.3642 -0.5798
 5720SOL    HW222008   1.777   8.123   1.449  0.1531 -1.3892  0.3763
 5721SOL     OW22009   0.222   9.356   0.087 -0.3842 -0.2566  0.0435
 5721SOL    HW122010   0.186   9.411   0.156  0.3441  0.3176 -0.0276
 5721SOL    HW222011   0.306   9.397   0.065 -1.6727  0.9136 -2.8378
 5722SOL     OW22012   1.413   9.983   9.397 -0.0329 -0.2317 -0.1467
 5722SOL    HW122013   1.482   9.988   9.331  0.4467 -0.0898  0.3514
 5722SOL    HW222014   1.450  10.028   9.473 -1.7219  2.2807 -0.7481
 5723SOL     OW22015   0.214   8.884   8.540 -0.2139 -0.5199 -0.4674
 5723SOL    HW122016   0.211   8.799   8.585  1.9756  0.0637  0.7999
 5723SOL    HW222017   0.262   8.866   8.459  2.7767  0.0569  1.1132
 5724SOL     OW22018   0.276   9.880   9.324  0.3493  0.2421  0.6368
 5724SOL    HW122019   0.292   9.930   9.403  1.6249  1.0536 -0.1146
 5724SOL    HW222020   0.358   9.833   9.308 -0.1312 -0.4538  0.1765
 5725SOL     OW22021   1.223   0.254   9.822 -0.3186 -0.1944  0.3413
 5725SOL    HW122022   1.261   0.178   9.779 -1.1271  0.0893 -0.8969
 5725SOL    HW222023   1.295   0.292   9.872  0.8878 -0.0018 -1.5060
 5726SOL     OW22024   2.661   9.221   5.592 -0.3602 -0.4086  0.5155
 5726SOL    HW122025   2.565   9.215   5.596 -0.4473 -0.0207 -0.8432
 5726SOL    HW222026   2.692   9.145   5.641 -1.3905 -2.2324 -1.5712
 5727SOL     OW22027   0.887   8.795   7.475  0.1756 -0.8942  0.2814
 5727SOL    HW122028   0.868   8.889   7.467 -0.1670 -0.9545  0.4215
 5727SOL    HW222029   0.860   8.759   7.390 -1.7364 -1.2234  1.0088
 5728SOL     OW22030   0.990   0.794   9.331  0.0982  0.2368  0.6168
 5728SOL    HW122031   1.033   0.709   9.327  0.9867  0.5446  2.6692
 5728SOL    HW222032   0.937   0.790   9.410  0.6972  1.8240  1.1155
 5729SOL     OW22033   0.204   0.192   8.241  0.3151 -0.8152 -0.0485
 5729SOL    HW122034   0.187   0.133   8.168  1.1332 -0.8437 -0.2239
 5729SOL    HW222035   0.287   0.162   8.277  0.2641 -0.3615  0.4589
 5730SOL     OW22036   1.105   9.839   0.740  0.2137 -0.3720 -0.0370
 5730SOL    HW122037   1.060   9.763   0.776 -1.9085  0.6094 -0.5062
 5730SOL    HW222038   1.069   9.914   0.788 -0.9672  0.7314 -2.5431
 5731SOL     OW22039   0.133   9.650   9.911  0.4446  0.1721  0.1462
 5731SOL    HW122040   0.221   9.678   9.888  0.1094 -1.2618 -3.1019
 5731SOL    HW222041   0.134   9.644  10.007  3.9954 -0.3322  0.1393
 5732SOL     OW22042   1.349   9.714   8.859  0.0100 -0.0325 -0.0794
 5732SOL    HW122043   1.408   9.774   8.812 -1.4352  1.4390 -0.0814
 5732SOL    HW222044   1.393   9.629   8.856  0.8817  0.4611 -2.4022
 5733SOL     OW22045   9.704   0.634   9.261 -0.0455  0.1240  0.0995
 5733SOL    HW122046   9.759   0.650   9.184 -1.0937 -1.3184 -0.9596
 5733SOL    HW222047   9.630   0.694   9.251 -0.9091 -1.0646 -0.7721
 5734SOL     OW22048   9.440   9.670   7.696 -0.7682  0.2947  0.3120
 5734SOL    HW122049   9.450   9.760   7.729 -3.9204 -0.1417  2.6298
 5734SOL    HW222050   9.421   9.681   7.603 -0.9457  2.0229  0.5349
 5735SOL     OW22051   9.955   8.437   0.453 -0.1133 -0.6986  0.3527
 5735SOL    HW122052   9.887   8.461   0.391 -1.0629 -2.2297  0.7940
 5735SOL    HW222053  10.037   8.454   0.406 -0.7690  0.9418 -0.2545
 5736SOL     OW22054   0.746   9.456   9.973 -0.4730 -0.5974  0.9316
 5736SOL    HW122055   0.797   9.435  10.051  0.7027 -1.5710 -0.0774
 5736SOL    HW222056   0.658   9.476  10.006 -0.2689 -2.0700  2.3980
 5737SOL     OW22057   8.064   0.354   6.587 -0.3226 -0.1212  0.1964
 5737SOL    HW122058   8.097   0.439   6.616  0.5497 -0.6289  0.7002
 5737SOL    HW222059   7.970   0.357   6.604 -0.1243  0.3338  1.2062
 5738SOL     OW22060   0.975   8.608   8.521 -0.3620  0.0426  0.5224
 5738SOL    HW122061   0.916   8.665   8.473  1.8334  0.7212 -1.4306
 5738SOL    HW222062   1.009   8.662   8.592  2.2246  1.4828 -1.7087
 5739SOL     OW22063   2.297   9.997   8.684 -0.2607 -0.1425  0.4559
 5739SOL    HW122064   2.221  10.008   8.742  1.4187 -1.0497  2.9381
 5739SOL    HW222065   2.336   9.915   8.712  1.7607  0.4157 -0.6405
 5740SOL     OW22066   0.659   8.712   0.866  0.3609 -0.5497 -0.2091
 5740SOL    HW122067   0.564   8.706   0.859  0.3596 -2.4097  0.7887
 5740SOL    HW222068   0.682   8.793   0.822 -1.7592  0.2941  0.1665
 5741SOL     OW22069   9.346   0.610   6.580 -0.5547  0.2231 -0.3572
 5741SOL    HW122070   9.395   0.682   6.619 -0.4885 -0.2374  0.4167
 5741SOL    HW222071   9.386   0.531   6.616 -0.0043 -0.2443 -1.9136
 5742SOL     OW22072   8.083   9.408   9.250 -0.1575  0.3564  0.1674
 5742SOL    HW122073   8.106   9.393   9.158  0.2343  0.3887  0.2573
 5742SOL    HW222074   8.040   9.327   9.277  0.4301  0.0382  0.1705
 5743SOL     OW22075   1.259   0.455   9.089 -0.2286 -0.0073  0.2380
 5743SOL    HW122076   1.310   0.377   9.109  0.6216  0.2728 -0.7658
 5743SOL    HW222077   1.246   0.452   8.994 -1.2756  0.4202  0.3596
 5744SOL     OW22078   2.010   9.081   0.118 -0.0968 -0.5441  0.1596
 5744SOL    HW122079   2.076   9.150   0.108 -0.8018  0.1193  0.0299
 5744SOL    HW222080   1.945   9.119   0.177  0.4372 -1.7933  1.5789
 5745SOL     OW22081   0.854   9.890   0.076 -0.3283  0.2271  0.2125
 5745SOL    HW122082   0.943   9.917   0.050 -0.6263  0.4627 -0.5788
 5745SOL    HW222083   0.841   9.806   0.032 -0.4546  0.1407  0.4170
 5746SOL     OW22084   3.274   0.380   7.521  0.4844  0.1845  0.8253
 5746SOL    HW122085   3.313   0.466   7.509 -1.0627  0.5954 -1.5144
 5746SOL    HW222086   3.191   0.397   7.566 -0.7058  0.1537 -1.2884
 5747SOL     OW22087   1.095   9.993   0.313  0.0207 -0.4406  0.1411
 5747SOL    HW122088   1.064  10.083   0.322  0.7713 -0.2191  0.5162
 5747SOL    HW222089   1.093   9.976   0.219 -0.7795 -0.2665  0.1221
 5748SOL     OW22090   9.917   0.638   9.942  0.1428 -0.0643 -0.0548
 5748SOL    HW122091   9.932   0.548   9.972  0.4574  0.3272  1.0043
 5748SOL    HW222092  10.003   0.667   9.912  0.6465  0.7472  2.0509
 5749SOL     OW22093   0.647   8.592   8.544 -0.3534 -0.0097 -0.9697
 5749SOL    HW122094   0.695   8.568   8.622 -1.1641  2.3699  0.3234
 5749SOL    HW222095   0.699   8.662   8.504 -1.3854  0.7933 -0.9536
 5750SOL     OW22096   9.911   9.574   8.188 -0.6005  0.3395  0.0403
 5750SOL    HW122097   9.942   9.545   8.102 -0.8622 -2.0073  0.7097
 5750SOL    HW222098   9.989   9.579   8.242 -0.7320 -0.6752  0.3426
 5751SOL     OW22099   2.235   9.702   9.630 -0.4037 -0.3022  0.8393
 5751SOL    HW122100   2.321   9.672   9.602 -0.4511  0.0205  0.3391
 5751SOL    HW222101   2.242   9.712   9.725  1.5573  4.3241  0.3526
 5752SOL     OW22102   0.775   9.656   8.288  0.9727 -0.3697  0.2063
 5752SOL    HW122103   0.737   9.600   8.356  1.9269  1.9385  2.7607
 5752SOL    HW222104   0.837   9.600   8.243 -0.1638 -2.1531  0.8155
 5753SOL     OW22105   0.226   9.465   7.645 -0.0866 -0.0631 -0.0266
 5753SOL    HW122106   0.132   9.479   7.632  0.0208  0.9644  0.2715
 5753SOL    HW222107   0.231   9.398   7.713 -0.6007 -0.6486 -0.5551
 5754SOL     OW22108   0.853   0.873   0.194  0.0670 -0.3712  0.4423
 5754SOL    HW122109   0.913   0.856   0.121  0.9565 -1.6887  1.4640
 5754SOL    HW222110   0.887   0.953   0.234 -0.7578  0.6871 -0.9037
 5755SOL     OW22111   9.794   9.448   1.254  0.4249  0.9761 -0.4563
 5755SOL    HW122112   9.858   9.380   1.234  0.0518  0.5685 -0.2750
 5755SOL    HW222113   9.746   9.461   1.172 -1.5828 -1.2081  0.3097
 5756SOL     OW22114   2.957   8.053   2.061  0.0210 -0.1562 -0.1406
 5756SOL    HW122115   2.981   8.001   1.984  0.9644  0.6754 -0.4137
 5756SOL    HW222116   2.954   8.143   2.029  1.8281  0.3730  1.0932
 5757SOL     OW22117   2.074   8.059   9.654 -0.1910  0.1018  0.1179
 5757SOL    HW122118   2.088   7.964   9.650 -0.9016 -0.0392  0.9190
 5757SOL    HW222119   2.053   8.083   9.564  0.7353 -0.3767 -0.2397
 5758SOL     OW22120   0.014   9.027   9.238 -0.1870  0.5980  0.2080
 5758SOL    HW122121  -0.053   9.019   9.170 -0.0720  1.8520 -0.0658
 5758SOL    HW222122   0.020   9.121   9.254  0.7022  0.3991  1.0428
 5759SOL     OW22123   1.670   0.588   9.213 -0.3401  0.4202  0.5436
 5759SOL    HW122124   1.707   0.517   9.161  1.7378  0.8080  1.4359
 5759SOL    HW222125   1.737   0.656   9.212 -1.1440  1.2659  1.9760
 5760SOL     OW22126   1.907   9.581   9.020  0.0591 -0.1176 -0.1411
 5760SOL    HW122127   1.843   9.652   9.027 -0.5589 -0.2564 -3.5521
 5760SOL    HW222128   1.855   9.501   9.016  0.5191 -0.3709 -1.2508
 5761SOL     OW22129   2.006   9.521   9.678  0.3621 -0.3791  0.3422
 5761SOL    HW122130   2.099   9.543   9.670 -0.2511  2.6707  0.8438
 5761SOL    HW222131   1.982   9.552   9.766 -1.7909  1.7161 -0.9039
 5762SOL     OW22132   8.915   8.533   0.471 -0.1000 -0.4957  0.4250
 5762SOL    HW122133   8.847   8.499   0.529  0.8508 -0.2510  1.6831
 5762SOL    HW222134   8.950   8.456   0.428 -1.9152 -0.5285 -1.0717
 5763SOL     OW22135   9.599   0.520   9.972  0.0009 -0.7421  0.5180
 5763SOL    HW122136   9.642   0.547   9.891 -0.8372  1.0367  0.6319
 5763SOL    HW222137   9.518   0.571   9.974 -0.0840 -0.9090  2.3880
 5764SOL     OW22138   0.980   9.561   0.565 -0.1322  0.0380 -0.3229
 5764SOL    HW122139   1.047   9.550   0.497  1.4358  0.9754  1.0316
 5764SOL    HW222140   1.024   9.533   0.646 -1.5199  0.2793  0.5274
 5765SOL     OW22141   2.239   0.004   1.042  0.5056 -0.0064  0.1513
 5765SOL    HW122142   2.176  -0.015   1.112  1.3466 -0.8367  0.6850
 5765SOL    HW222143   2.202  -0.037   0.964 -1.3080  2.3765 -0.3039
 5766SOL     OW22144   0.479   9.503   0.118 -0.3212 -0.1348 -0.0199
 5766SOL    HW122145   0.485   9.526   0.210  2.0720 -0.0168 -0.1675
 5766SOL    HW222146   0.451   9.584   0.075 -3.4987 -0.7447  0.8056
 5767SOL     OW22147   1.803   9.475   9.440 -0.2101  0.1171 -0.0652
 5767SOL    HW122148   1.842   9.476   9.528  0.5756  1.2615 -0.4144
 5767SOL    HW222149   1.875   9.450   9.382 -0.6375 -0.2828 -0.4231
 5768SOL     OW22150   2.231   1.132   9.224 -0.7917 -0.0455  0.1531
 5768SOL    HW122151   2.325   1.142   9.208 -0.7331 -0.2768  0.3530
 5768SOL    HW222152   2.191   1.139   9.137 -0.7127  1.5182  0.2297
 5769SOL     OW22153   2.153   8.446   0.525  0.2943 -0.7759  0.2477
 5769SOL    HW122154   2.170   8.529   0.569  2.7503 -1.1158  0.0497
 5769SOL    HW222155   2.063   8.424   0.548  0.7704  0.1780  3.2391
 5770SOL     OW22156   0.571   8.083   0.508  0.2440  0.0116  0.2539
 5770SOL    HW122157   0.554   7.999   0.550 -1.9660  0.9975  1.4137
 5770SOL    HW222158   0.562   8.066   0.414 -1.9206 -0.6945  0.5697
 5771SOL     OW22159   1.253   9.857   8.161 -0.5002 -0.3111  0.3965
 5771SOL    HW122160   1.190   9.845   8.232  2.3818  0.1169  3.1364
 5771SOL    HW222161   1.300   9.774   8.156  0.2015  0.1134 -0.1601
 5772SOL     OW22162   2.193   0.332   8.916 -0.2464 -0.2290 -0.0261
 5772SOL    HW122163   2.274   0.334   8.967 -0.5009  0.9194  0.3351
 5772SOL    HW222164   2.124   0.317   8.980 -0.4277 -0.1489 -0.2000
 5773SOL     OW22165   0.948   2.377   9.172  0.0277  0.2557  0.2306
 5773SOL    HW122166   1.007   2.403   9.101  0.0551  0.9745  0.5223
 5773SOL    HW222167   0.883   2.322   9.129  1.3433 -1.1908  0.0345
 5774SOL     OW22168   1.386   8.866   8.094 -0.2134 -0.0537  0.4841
 5774SOL    HW122169   1.400   8.886   8.187  3.0993 -3.2061  0.7983
 5774SOL    HW222170   1.298   8.828   8.091  0.2044 -1.2820  2.6202
 5775SOL     OW22171   0.094   8.242   1.175 -0.0213 -0.1255 -0.4751
 5775SOL    HW122172   0.055   8.242   1.088  1.7114 -0.1920 -1.2766
 5775SOL    HW222173   0.106   8.335   1.196 -0.5053 -0.1062 -0.2663
 5776SOL     OW22174   0.919   9.684   1.088 -0.0389 -0.5043  0.6801
 5776SOL    HW122175   0.908   9.750   1.157 -2.2667 -0.3792  0.2422
 5776SOL    HW222176   0.876   9.606   1.124  1.2498 -1.2793  0.5628
 5777SOL     OW22177   0.461   8.656   0.140 -0.0625  0.0026 -0.2108
 5777SOL    HW122178   0.534   8.687   0.194  0.2058  1.3735 -1.3375
 5777SOL    HW222179   0.503   8.628   0.058 -0.8760  1.6699 -1.2214
 5778SOL     OW22180   0.679   0.167   8.630  0.2330  0.1965 -0.2900
 5778SOL    HW122181   0.769   0.143   8.608 -0.1463 -1.2445 -0.2687
 5778SOL    HW222182   0.659   0.239   8.570  0.3897 -1.4484 -2.3883
 5779SOL     OW22183   9.118   0.097   9.878  0.0170  0.4997 -0.0894
 5779SOL    HW122184   9.127   0.056   9.792 -0.3823 -0.8455  0.4920
 5779SOL    HW222185   9.050   0.046   9.922  0.0923  1.2841  0.9555
 5780SOL     OW22186   8.132   8.493   0.906  0.8178 -0.1363  0.9323
 5780SOL    HW122187   8.214   8.521   0.864  0.2615  0.6082  0.3052
 5780SOL    HW222188   8.159   8.441   0.981  1.8969  1.0862  1.4109
 5781SOL     OW22189   0.106   8.188   0.581 -0.1258 -0.3218 -0.3917
 5781SOL    HW122190   0.044   8.231   0.522 -1.1494 -1.3896 -0.0933
 5781SOL    HW222191   0.175   8.154   0.523  0.5336  1.4132 -0.6644
 5782SOL     OW22192   0.732   0.481   0.485  0.0947 -0.4123 -0.4137
 5782SOL    HW122193   0.660   0.425   0.456  0.9186 -0.6729 -2.0078
 5782SOL    HW222194   0.691   0.542   0.547 -1.5923 -0.2643 -1.6203
 5783SOL     OW22195   2.115   0.569   0.273 -0.0145 -0.3778 -0.4613
 5783SOL    HW122196   2.043   0.551   0.334 -0.4693 -0.2738 -0.9578
 5783SOL    HW222197   2.194   0.557   0.325 -0.3651 -1.4758 -0.1548
 5784SOL     OW22198   1.518   0.680   1.420  0.4107 -0.8527 -0.0490
 5784SOL    HW122199   1.541   0.617   1.352  1.0912 -1.1657  0.4718
 5784SOL    HW222200   1.585   0.748   1.413  0.1015 -0.5542 -0.1218
 5785SOL     OW22201   2.197   9.643   1.680 -0.6398 -0.3814  0.1197
 5785SOL    HW122202   2.241   9.726   1.698 -0.6870 -0.2106 -0.5452
 5785SOL    HW222203   2.148   9.624   1.760  0.6454 -0.5782  0.8657
 5786SOL     OW22204   3.165   0.895   0.738  0.3440  0.8832  0.4724
 5786SOL    HW122205   3.179   0.804   0.712  1.8775  1.4641 -0.8178
 5786SOL    HW222206   3.097   0.890   0.805 -2.8590 -0.7869 -2.7256
 5787SOL     OW22207   4.179   0.697   0.382 -0.4180 -0.4886  0.1368
 5787SOL    HW122208   4.229   0.762   0.332  0.3835 -0.7031  0.6555
 5787SOL    HW222209   4.243   0.658   0.442 -1.3588 -0.2922  1.2757
 5788SOL     OW22210   3.583   2.086   9.499 -0.4571  0.3580 -0.2297
 5788SOL    HW122211   3.533   2.139   9.561 -1.0411 -0.8240  0.3390
 5788SOL    HW222212   3.674   2.110   9.515 -0.7900  2.0831 -0.8476
 5789SOL     OW22213   3.094   0.072   0.743  0.2900  0.3814  0.1741
 5789SOL    HW122214   3.049   0.046   0.824  0.1348 -1.3364 -0.4278
 5789SOL    HW222215   3.025   0.113   0.690 -0.5786 -2.0504 -0.6587
 5790SOL     OW22216   3.235   0.016   0.467  0.0344  0.1186 -0.3159
 5790SOL    HW122217   3.201  -0.003   0.555 -1.2828  1.8109 -0.4462
 5790SOL    HW222218   3.309   0.075   0.483 -0.0536  0.2331 -0.3324
 5791SOL     OW22219   2.740   0.601   2.035 -0.1147  0.3966 -0.3560
 5791SOL    HW122220   2.684   0.586   1.959  0.0646 -2.5239  0.0259
 5791SOL    HW222221   2.828   0.578   2.005  0.2252  0.9499  0.2237
 5792SOL     OW22222   3.121   0.332   1.162 -0.6201  0.3499 -0.2093
 5792SOL    HW122223   3.208   0.309   1.130 -0.6658 -0.9406  0.5616
 5792SOL    HW222224   3.137   0.400   1.227 -0.5221  2.9427 -2.8539
 5793SOL     OW22225   2.477   3.461   0.936  0.1411  0.1521  0.4128
 5793SOL    HW122226   2.550   3.430   0.882 -0.0797  2.2295 -1.1744
 5793SOL    HW222227   2.508   3.451   1.026  1.6711 -0.6973 -0.1797
 5794SOL     OW22228   2.101   1.623   0.835  0.0387  0.0770  0.2307
 5794SOL    HW122229   2.104   1.659   0.923 -1.6880  0.4940  0.1364
 5794SOL    HW222230   2.040   1.680   0.788  2.5547  1.1862 -1.8596
 5795SOL     OW22231   3.876   0.123   9.030  0.1121  0.8125 -0.0920
 5795SOL    HW122232   3.857   0.215   9.047 -0.7576  1.2780 -3.1133
 5795SOL    HW222233   3.792   0.078   9.046  0.4034  0.6117  0.8911
 5796SOL     OW22234   1.136   1.502   1.597  0.4217 -0.1540  0.4127
 5796SOL    HW122235   1.196   1.434   1.568  1.1690  0.6929 -0.0574
 5796SOL    HW222236   1.049   1.471   1.571  0.7887 -0.7783 -0.0727
 5797SOL     OW22237   2.134   2.454   0.812  0.0582  0.2649 -0.1153
 5797SOL    HW122238   2.148   2.386   0.746  0.4913  0.0971  0.1529
 5797SOL    HW222239   2.094   2.408   0.886  1.2699  0.1192  0.4552
 5798SOL     OW22240   2.206   0.936   0.024  0.5722 -0.0469 -0.1482
 5798SOL    HW122241   2.271   0.901  -0.038  0.7959  1.6332 -0.8798
 5798SOL    HW222242   2.254   0.944   0.106  0.6654 -0.9673 -0.1128
 5799SOL     OW22243   2.658   1.156   1.886  0.2050 -0.3192 -0.0334
 5799SOL    HW122244   2.613   1.086   1.837 -0.0018 -0.1783 -0.0463
 5799SOL    HW222245   2.603   1.233   1.872 -1.6447 -0.9875  3.0422
 5800SOL     OW22246   1.203   2.199   2.038  0.2044 -0.5246 -0.1629
 5800SOL    HW122247   1.145   2.274   2.052 -0.1588 -0.8454  0.0667
 5800SOL    HW222248   1.222   2.167   2.126  0.4870 -0.6045 -0.2537
 5801SOL     OW22249   4.591   9.836   1.488  0.0713  0.6226 -0.1614
 5801SOL    HW122250   4.664   9.897   1.475 -0.4907  1.0475 -1.3936
 5801SOL    HW222251   4.531   9.854   1.415 -2.1161  1.4438  1.7998
 5802SOL     OW22252   4.530   2.328   1.116 -0.2084 -0.0150 -0.0948
 5802SOL    HW122253   4.508   2.326   1.022  2.7673 -0.0131 -0.8424
 5802SOL    HW222254   4.625   2.323   1.118 -0.1986  0.6178  2.9397
 5803SOL     OW22255   1.819   2.298   8.619 -0.3309  0.1098  0.4987
 5803SOL    HW122256   1.733   2.258   8.608 -0.1522 -0.1588  0.0529
 5803SOL    HW222257   1.878   2.224   8.635 -0.2281  0.3159  1.0683
 5804SOL     OW22258   3.982   1.503   0.613 -0.0133  0.0298 -0.3619
 5804SOL    HW122259   3.893   1.468   0.604 -0.4892  1.0535  0.2096
 5804SOL    HW222260   3.981   1.548   0.697  1.2367 -0.4839 -0.0734
 5805SOL     OW22261   1.912   1.572   1.814 -0.2933 -0.5460 -0.5201
 5805SOL    HW122262   1.939   1.500   1.872  1.2214  0.4359  0.0278
 5805SOL    HW222263   1.819   1.584   1.833  0.5259  0.8533  2.9676
 5806SOL     OW22264   1.691   1.368   1.206 -0.4730  0.0966  0.4619
 5806SOL    HW122265   1.697   1.452   1.160  0.8069  0.2559  0.9188
 5806SOL    HW222266   1.652   1.308   1.141 -1.4283  1.0388  0.1517
 5807SOL     OW22267   2.720   1.954   0.117 -0.5577  0.7973 -0.1584
 5807SOL    HW122268   2.746   1.897   0.045 -1.6642  1.5500 -1.1665
 5807SOL    HW222269   2.659   1.902   0.169  0.2111  0.2696  0.2260
 5808SOL     OW22270   2.038   9.963   1.231  0.4246  0.0396  0.3235
 5808SOL    HW122271   1.953  10.000   1.210 -0.1015 -1.1034  0.4201
 5808SOL    HW222272   2.065  10.009   1.311 -0.0143  0.5366  0.1863
 5809SOL     OW22273   2.401   1.694   1.025  0.2122  0.0332 -0.5507
 5809SOL    HW122274   2.401   1.599   1.035 -0.2187 -0.1710 -2.2950
 5809SOL    HW222275   2.374   1.709   0.934  0.5772  1.8110 -0.3951
 5810SOL     OW22276   2.801   0.514   0.603 -0.3145  0.0501 -0.2830
 5810SOL    HW122277   2.735   0.583   0.606 -0.4323 -0.1475  2.2827
 5810SOL    HW222278   2.774   0.451   0.671  2.0910 -0.4064  0.2898
 5811SOL     OW22279   2.143   1.738   1.962 -0.2307 -0.2972  0.0988
 5811SOL    HW122280   2.166   1.646   1.945  1.7780  0.4308 -1.3520
 5811SOL    HW222281   2.131   1.776   1.875  2.7924  1.7343  0.4977
 5812SOL     OW22282   1.264   0.581   1.498  0.3718 -0.4679  0.2220
 5812SOL    HW122283   1.340   0.626   1.462 -0.2707  1.6880  1.4998
 5812SOL    HW222284   1.255   0.616   1.586 -3.0680  0.4925 -0.4719
 5813SOL     OW22285   3.505   0.890   2.006 -0.1554  0.2376 -0.4448
 5813SOL    HW122286   3.545   0.912   1.922 -0.0468  1.6894 -0.0290
 5813SOL    HW222287   3.458   0.970   2.031  1.9139  0.7296  2.0980
 5814SOL     OW22288   3.569   1.814   9.639 -0.2065 -0.4916 -0.4332
 5814SOL    HW122289   3.556   1.886   9.702 -0.9537 -0.3910 -0.6899
 5814SOL    HW222290   3.501   1.751   9.661 -1.1419  0.0237 -1.8073
 5815SOL     OW22291   2.829   8.734   0.176 -0.2462  0.2846  0.0104
 5815SOL    HW122292   2.816   8.816   0.224 -1.2781  0.3280 -0.3280
 5815SOL    HW222293   2.783   8.747   0.093  1.3704  0.1395 -0.9284
 5816SOL     OW22294   1.501   1.706   0.809  0.2936 -0.1474  0.4951
 5816SOL    HW122295   1.439   1.778   0.823  0.3135 -0.5002  2.4948
 5816SOL    HW222296   1.465   1.633   0.860  0.1898 -1.6330 -1.6071
 5817SOL     OW22297   3.355   1.552   0.427 -0.0877  0.9467  0.1548
 5817SOL    HW122298   3.271   1.598   0.440  0.8420  2.3600  1.3372
 5817SOL    HW222299   3.368   1.503   0.508 -0.9085 -1.1924 -0.9786
 5818SOL     OW22300   1.835   1.275   1.423 -0.1429  0.0737  0.0913
 5818SOL    HW122301   1.806   1.300   1.335 -0.6880 -0.4121  0.1313
 5818SOL    HW222302   1.838   1.358   1.472  1.9267  0.6005 -0.8861
 5819SOL     OW22303   3.400   0.549   1.968 -0.4696  0.4986  0.4487
 5819SOL    HW122304   3.482   0.501   1.969 -0.5943  0.2529 -0.4400
 5819SOL    HW222305   3.354   0.517   1.890 -0.9900  1.3250  0.4039
 5820SOL     OW22306   0.930   2.052   2.964  0.1326  0.0564 -0.5721
 5820SOL    HW122307   0.982   2.131   2.952  0.8293 -0.1841  0.8576
 5820SOL    HW222308   0.979   2.000   3.027 -0.6579 -1.2281 -0.9975
 5821SOL     OW22309   2.496   0.437   0.220  0.0172  0.0990  0.1963
 5821SOL    HW122310   2.486   0.393   0.136  0.5801 -0.1300  0.2464
 5821SOL    HW222311   2.429   0.398   0.276 -1.6170  1.5707 -0.6780
 5822SOL     OW22312   3.813   0.143   1.879 -0.1749  0.2777  0.2781
 5822SOL    HW122313   3.857   0.227   1.867  1.9295 -0.9058 -0.4977
 5822SOL    HW222314   3.884   0.081   1.896 -1.7274 -1.2987  1.1458
 5823SOL     OW22315   2.604   9.577   0.715 -0.2692 -0.2873  0.0020
 5823SOL    HW122316   2.579   9.649   0.658 -2.4077 -2.8414 -2.4385
 5823SOL    HW222317   2.524   9.555   0.763  0.5751 -0.5296  1.3438
 5824SOL     OW22318   3.643   0.512   9.937  0.1617  0.0431  0.2981
 5824SOL    HW122319   3.571   0.458   9.972  0.6008 -0.6625  0.1330
 5824SOL    HW222320   3.671   0.566  10.011 -0.2878  0.0455  0.4671
 5825SOL     OW22321   1.897   1.867   0.655 -0.5427 -0.2513 -0.2728
 5825SOL    HW122322   1.860   1.936   0.601 -0.3288  0.9466  1.0816
 5825SOL    HW222323   1.990   1.889   0.661 -0.4915 -0.5916  0.2361
 5826SOL     OW22324   3.211   2.145   1.992  0.1404 -0.0064 -0.2703
 5826SOL    HW122325   3.203   2.237   1.968 -0.9119  0.2080  0.8405
 5826SOL    HW222326   3.195   2.143   2.086  4.2133 -0.8034  0.5288
 5827SOL     OW22327   2.272   9.897   2.546  0.5911 -0.0167  0.5650
 5827SOL    HW122328   2.219   9.845   2.486 -0.1471  1.0188  0.3174
 5827SOL    HW222329   2.361   9.894   2.509  0.6860 -1.5821  0.8770
 5828SOL     OW22330   3.336   1.042   1.518 -0.0011 -0.2487 -0.3321
 5828SOL    HW122331   3.316   1.044   1.612 -1.5561 -0.5883 -0.6563
 5828SOL    HW222332   3.419   1.091   1.511  0.4074 -0.6722  1.2736
 5829SOL     OW22333   3.710   9.719   0.683  0.1066 -0.4281  0.5501
 5829SOL    HW122334   3.676   9.720   0.773 -1.2815  0.2030  0.0297
 5829SOL    HW222335   3.641   9.678   0.632  0.2920  0.5059 -0.4622
 5830SOL     OW22336   2.998   0.719   9.015  0.6567 -0.0317  0.0677
 5830SOL    HW122337   3.007   0.640   8.962  0.0404  1.0298 -1.6613
 5830SOL    HW222338   3.083   0.728   9.058  1.2926 -0.7321 -1.0041
 5831SOL     OW22339   1.641   9.930   1.146  0.5114 -0.4268 -0.0052
 5831SOL    HW122340   1.708   9.996   1.164  0.2539  0.0731 -0.8967
 5831SOL    HW222341   1.559   9.978   1.148  0.1014 -1.1386  1.6425
 5832SOL     OW22342   3.999   0.160   1.334  0.1496  0.2653 -0.2871
 5832SOL    HW122343   3.957   0.244   1.313  0.4098  0.0166 -1.9013
 5832SOL    HW222344   3.947   0.095   1.287  0.5600 -0.3702  0.1340
 5833SOL     OW22345   2.729   2.335   1.552 -0.0817 -0.6652 -0.3234
 5833SOL    HW122346   2.644   2.304   1.585  0.0083  0.3940  0.9774
 5833SOL    HW222347   2.785   2.257   1.553  0.2173 -0.4967  3.1512
 5834SOL     OW22348   3.163   1.236   9.413 -0.6992  0.2374 -0.3238
 5834SOL    HW122349   3.230   1.173   9.440 -0.2672  0.7335 -0.2418
 5834SOL    HW222350   3.118   1.259   9.495  0.4257  1.5250 -0.0636
 5835SOL     OW22351   2.380   1.714   2.475 -0.1257 -0.2022 -0.7808
 5835SOL    HW122352   2.328   1.636   2.494 -0.0857 -0.7111 -2.6107
 5835SOL    HW222353   2.421   1.737   2.558 -1.8366 -0.8692  0.2523
 5836SOL     OW22354   3.107   0.517   8.711  0.4874 -0.3360  0.2177
 5836SOL    HW122355   3.147   0.454   8.650 -1.0353  0.1134 -1.2818
 5836SOL    HW222356   3.033   0.554   8.663 -1.9555 -1.3643  3.0349
 5837SOL     OW22357   3.430   0.199   1.978  0.1823  0.4044 -0.3709
 5837SOL    HW122358   3.511   0.250   1.983  0.6428 -0.4367  0.6141
 5837SOL    HW222359   3.450   0.127   1.918 -0.1611  0.7721 -0.9420
 5838SOL     OW22360   2.770   1.215   3.399 -0.0957  0.2210 -0.2984
 5838SOL    HW122361   2.824   1.250   3.328  1.4672 -0.4351  0.5411
 5838SOL    HW222362   2.752   1.125   3.373  2.6528 -0.8335  1.3297
 5839SOL     OW22363   4.726   0.551   1.656 -0.3022 -0.1785  0.8090
 5839SOL    HW122364   4.809   0.599   1.664 -0.8871  0.9097  0.3688
 5839SOL    HW222365   4.703   0.558   1.564 -1.8949  1.2070  1.2923
 5840SOL     OW22366   3.669   0.231   0.300 -0.3130 -0.4286 -0.5569
 5840SOL    HW122367   3.625   0.315   0.285  2.5791  1.3133  0.2994
 5840SOL    HW222368   3.631   0.198   0.381 -2.0315 -0.3299 -1.3139
 5841SOL     OW22369   1.474   2.317   0.887 -0.2226  0.1248 -0.7206
 5841SOL    HW122370   1.413   2.243   0.891 -0.4935  0.2430 -2.3942
 5841SOL    HW222371   1.419   2.394   0.897 -0.1630  0.1712 -0.7474
 5842SOL     OW22372   2.613   0.877   9.321  0.4527 -0.4338 -0.1323
 5842SOL    HW122373   2.531   0.917   9.295  0.9694  0.4393 -0.4533
 5842SOL    HW222374   2.589   0.812   9.387 -0.4919 -0.2208 -0.2693
 5843SOL     OW22375   3.153   0.637   0.205 -0.0452  0.1124 -0.5888
 5843SOL    HW122376   3.176   0.577   0.277 -2.0777  0.2510  0.2268
 5843SOL    HW222377   3.148   0.723   0.247 -3.3343 -0.1071 -0.3703
 5844SOL     OW22378   3.967   1.606   0.019 -0.1982  0.3394 -0.2639
 5844SOL    HW122379   4.024   1.655   0.078 -0.4469 -1.4881  1.5277
 5844SOL    HW222380   4.010   1.613  -0.067 -0.3288  3.8001 -0.1421
 5845SOL     OW22381   3.485   9.602   2.644  0.1689 -0.4672 -0.1904
 5845SOL    HW122382   3.467   9.696   2.653  0.4918 -0.5231  1.0223
 5845SOL    HW222383   3.559   9.598   2.583 -1.1780 -0.0456 -1.9128
 5846SOL     OW22384   3.821   0.629   1.424  0.2004 -0.0724 -0.5436
 5846SOL    HW122385   3.778   0.629   1.339  1.3696 -0.4389 -1.1466
 5846SOL    HW222386   3.810   0.540   1.457  0.6856 -0.2294 -0.8003
 5847SOL     OW22387   2.961   0.634   1.288  0.2354  0.3338  0.2440
 5847SOL    HW122388   2.914   0.717   1.288 -1.1784 -0.4117 -2.0484
 5847SOL    HW222389   2.893   0.568   1.306  1.2012 -0.3982  1.2869
 5848SOL     OW22390   2.275   0.770   0.885  0.4434  0.5585  0.4777
 5848SOL    HW122391   2.267   0.757   0.791  0.2474  1.3283  0.3859
 5848SOL    HW222392   2.298   0.683   0.919  0.6528  0.3062 -0.2882
 5849SOL     OW22393   2.247   2.832   0.196 -0.5373 -0.1356 -0.4311
 5849SOL    HW122394   2.168   2.877   0.163 -1.9358 -2.7381 -0.7822
 5849SOL    HW222395   2.213   2.770   0.261  0.9749 -2.5740 -1.8877
 5850SOL     OW22396   2.217   1.504   8.591  0.1754 -0.2158  0.3377
 5850SOL    HW122397   2.297   1.484   8.641  0.4967  2.1147  0.8070
 5850SOL    HW222398   2.172   1.571   8.643 -1.8849 -1.1799 -0.1571
 5851SOL     OW22399   1.707   0.370   0.720  0.3275 -0.5280  0.1589
 5851SOL    HW122400   1.789   0.336   0.686 -0.0744 -0.3825 -0.9852
 5851SOL    HW222401   1.718   0.465   0.719  0.5473 -0.5379  1.0489
 5852SOL     OW22402   2.349   0.549   1.036  0.6251  0.1615  0.3638
 5852SOL    HW122403   2.437   0.574   1.067  0.5460 -0.8853  1.4701
 5852SOL    HW222404   2.358   0.458   1.009 -0.5845 -0.5985  2.4208
 5853SOL     OW22405   1.572   9.721   0.931  0.0292 -0.2959 -0.3042
 5853SOL    HW122406   1.621   9.775   0.994  0.3980 -1.9003  0.8208
 5853SOL    HW222407   1.481   9.750   0.941  0.2116  0.0557  0.3588
 5854SOL     OW22408   3.738   0.631   0.210  0.1518  0.0824 -0.2059
 5854SOL    HW122409   3.796   0.555   0.199  0.4396 -0.0612  2.1455
 5854SOL    HW222410   3.792   0.706   0.183  0.4656 -0.3419 -0.7858
 5855SOL     OW22411   4.116   0.838   2.115 -0.6365  0.0529  0.1082
 5855SOL    HW122412   4.099   0.798   2.201  2.1981  0.0578  0.7498
 5855SOL    HW222413   4.207   0.867   2.121 -0.5599  0.5204 -2.7443
 5856SOL     OW22414   3.626   1.318   1.321  0.5448 -0.4643  0.4607
 5856SOL    HW122415   3.566   1.393   1.328 -0.9109 -1.6272  0.7897
 5856SOL    HW222416   3.704   1.345   1.368 -0.7782  0.0785  2.4225
 5857SOL     OW22417   3.184   0.702   1.430 -0.0029  0.5471 -0.3171
 5857SOL    HW122418   3.106   0.659   1.397 -0.7154  0.3950  1.5359
 5857SOL    HW222419   3.152   0.783   1.471  0.6829 -0.0205  1.3611
 5858SOL     OW22420   3.791   1.483   0.846  0.3419 -0.4701 -0.4107
 5858SOL    HW122421   3.835   1.502   0.929  2.1378 -1.1193 -1.2035
 5858SOL    HW222422   3.725   1.417   0.869  1.6096 -1.5044  0.3015
 5859SOL     OW22423   2.989   0.838   1.002 -0.0054 -0.1389 -0.1383
 5859SOL    HW122424   3.001   0.745   1.024  3.0733  0.0034 -0.9399
 5859SOL    HW222425   2.992   0.883   1.087 -1.2365 -0.7326  0.2283
 5860SOL     OW22426   2.221   3.010   1.507  0.3956  0.5538  0.0681
 5860SOL    HW122427   2.135   3.023   1.466  0.2548 -0.2045  0.1152
 5860SOL    HW222428   2.241   2.918   1.491  1.2923  0.7747 -0.1077
 5861SOL     OW22429   3.343   2.503   2.124  0.2097 -0.3964  0.4512
 5861SOL    HW122430   3.367   2.425   2.172  1.9444 -0.1101  0.0802
 5861SOL    HW222431   3.284   2.472   2.055  1.1912 -1.4332  0.0721
 5862SOL     OW22432   2.150   2.054   0.578 -0.5331  0.2180  0.1956
 5862SOL    HW122433   2.214   1.983   0.586 -2.0578 -1.2841 -0.6671
 5862SOL    HW222434   2.173   2.115   0.648  1.4273 -0.6204  0.3217
 5863SOL     OW22435   3.190   1.246   1.323 -0.5368  0.7047 -0.4124
 5863SOL    HW122436   3.109   1.293   1.343 -1.7830 -1.5181 -0.0693
 5863SOL    HW222437   3.214   1.205   1.406 -0.9733 -1.4753 -1.3434
 5864SOL     OW22438   3.180   9.506   0.261  0.5382  0.0448  0.2232
 5864SOL    HW122439   3.239   9.431   0.254  0.7967  0.1716  0.9062
 5864SOL    HW222440   3.238   9.579   0.285  0.0590  0.0798  1.3243
 5865SOL     OW22441   2.573   1.029   1.596 -0.1762 -0.4656  0.1815
 5865SOL    HW122442   2.548   0.965   1.663  0.0606  0.1609  0.8771
 5865SOL    HW222443   2.568   0.981   1.514 -0.1178 -1.3474  0.6860
 5866SOL     OW22444   2.690   1.225   0.020 -0.2022  0.3951 -0.2099
 5866SOL    HW122445   2.672   1.133   0.042  1.3209 -0.1119 -1.0856
 5866SOL    HW222446   2.639   1.241  -0.059 -0.8758  0.4664  0.2301
 5867SOL     OW22447   5.193   0.483   1.658 -0.0908  0.2639 -0.0806
 5867SOL    HW122448   5.182   0.543   1.731  2.2080 -1.9033  2.1362
 5867SOL    HW222449   5.285   0.491   1.634 -0.1461 -1.1462 -0.8264
 5868SOL     OW22450   2.408   1.619   1.377  0.2975 -0.8336 -0.1514
 5868SOL    HW122451   2.445   1.531   1.366 -1.0094 -1.1391 -2.4789
 5868SOL    HW222452   2.329   1.618   1.324 -0.7840  1.1606  1.3726
 5869SOL     OW22453   2.551   0.011   0.247 -0.5095 -0.3292  0.0547
 5869SOL    HW122454   2.492  -0.054   0.209 -0.0422 -0.1677 -0.9613
 5869SOL    HW222455   2.507   0.095   0.231 -0.5103 -0.2922  0.2484
 5870SOL     OW22456   2.273   0.725   0.619 -0.2474  0.0114 -0.1774
 5870SOL    HW122457   2.319   0.737   0.537 -0.6622  0.7482 -0.3036
 5870SOL    HW222458   2.239   0.635   0.614  1.3110 -0.6113  0.0046
 5871SOL     OW22459   3.048   2.302   0.088  0.4033 -0.2222 -0.1194
 5871SOL    HW122460   2.993   2.230   0.120  0.7208 -0.0556  0.8307
 5871SOL    HW222461   3.138   2.268   0.096  0.4860 -0.1561 -0.7899
 5872SOL     OW22462   3.986   9.176   1.360  0.4920  0.0812 -0.5079
 5872SOL    HW122463   3.945   9.135   1.283  0.4603  0.7099 -0.8308
 5872SOL    HW222464   3.980   9.270   1.343 -1.7981  0.3347  1.4387
 5873SOL     OW22465   2.004   1.810   1.028 -0.7045 -0.6532  0.4769
 5873SOL    HW122466   1.974   1.776   1.112 -1.0129  0.8005  0.9621
 5873SOL    HW222467   1.926   1.849   0.989  0.4928  3.3236  1.8268
 5874SOL     OW22468   1.898   1.687   1.278 -0.3067 -0.1616  0.0783
 5874SOL    HW122469   1.892   1.655   1.368  0.8696  1.0134  0.5855
 5874SOL    HW222470   1.809   1.675   1.243 -0.6617 -1.0414  1.2390
 5875SOL     OW22471   3.215   9.701   1.664  0.1593  0.1130 -0.2839
 5875SOL    HW122472   3.224   9.757   1.741  1.5951 -0.8817  0.2922
 5875SOL    HW222473   3.156   9.631   1.693 -0.5434  0.5818 -0.5777
 5876SOL     OW22474   2.871   9.815   0.230 -0.5266  0.5849 -0.5520
 5876SOL    HW122475   2.827   9.846   0.151  1.2972  2.6983 -0.7861
 5876SOL    HW222476   2.836   9.872   0.300 -0.4107  0.2613 -0.2310
 5877SOL     OW22477   2.660   0.008   1.697 -0.2673  0.9197 -0.0909
 5877SOL    HW122478   2.677  -0.086   1.699 -0.0707  0.9558 -0.1271
 5877SOL    HW222479   2.671   0.036   1.788  0.6173  1.0794 -0.2414
 5878SOL     OW22480   3.579   0.662   1.276  0.7523 -0.0560 -0.6635
 5878SOL    HW122481   3.553   0.570   1.269  1.4166 -0.2158 -0.9812
 5878SOL    HW222482   3.537   0.692   1.357  0.0556 -0.4748 -0.8602
 5879SOL     OW22483   4.120   9.420   0.219 -0.2715  0.5669 -0.3396
 5879SOL    HW122484   4.057   9.487   0.193  0.9281  1.3090 -1.3964
 5879SOL    HW222485   4.109   9.350   0.154 -1.2484 -0.1025  0.5323
 5880SOL     OW22486   3.918   0.115   0.316 -0.0061 -0.6824  0.1864
 5880SOL    HW122487   3.976   0.181   0.278  0.4226 -0.9184  0.4377
 5880SOL    HW222488   3.833   0.160   0.324 -0.2267 -0.7743 -1.4937
 5881SOL     OW22489   2.249   0.424   1.514 -0.0438 -0.0647  0.6162
 5881SOL    HW122490   2.187   0.361   1.550  0.1897 -1.1655 -0.8513
 5881SOL    HW222491   2.328   0.373   1.498  1.4936  1.4737  3.0940
 5882SOL     OW22492   0.332   9.984   1.742 -0.7585 -0.1217 -0.0852
 5882SOL    HW122493   0.253   9.937   1.716 -0.2675 -0.8544 -0.2607
 5882SOL    HW222494   0.349  10.043   1.669 -1.4722  0.4564  0.2112
 5883SOL     OW22495   3.651   0.787   0.424 -0.1367 -0.2919 -0.5274
 5883SOL    HW122496   3.559   0.787   0.397  0.1616  1.5908 -1.6213
 5883SOL    HW222497   3.696   0.739   0.355 -0.3069 -1.3845  0.1072
 5884SOL     OW22498   3.059   1.773   2.123  0.2353 -0.3925 -0.0221
 5884SOL    HW122499   2.987   1.711   2.126 -0.8524  0.7023 -2.1565
 5884SOL    HW222500   3.106   1.760   2.205 -0.7087 -3.1279  0.1114
 5885SOL     OW22501   2.073   9.465   0.185  0.1642  0.0275 -0.4144
 5885SOL    HW122502   1.991   9.451   0.233  1.0146 -2.0365  0.4952
 5885SOL    HW222503   2.105   9.549   0.217  0.5712 -1.1621  2.4954
 5886SOL     OW22504   3.954   9.559   0.936  0.3508 -0.0300  0.3399
 5886SOL    HW122505   3.929   9.639   0.982 -0.3056  0.8955 -1.5340
 5886SOL    HW222506   4.039   9.581   0.897 -0.7659  0.5143 -1.8702
 5887SOL     OW22507   2.777   0.911   2.522 -0.3251  0.6431  0.2965
 5887SOL    HW122508   2.768   0.833   2.466  1.9303 -0.8823  2.0057
 5887SOL    HW222509   2.802   0.981   2.462 -1.9862  0.0115 -1.1974
 5888SOL     OW22510   3.099   1.259   2.931 -0.0945 -0.7482 -0.0588
 5888SOL    HW122511   3.027   1.228   2.876  0.1124 -1.0265 -0.1776
 5888SOL    HW222512   3.163   1.295   2.869 -0.9378  1.1866  0.1787
 5889SOL     OW22513   4.359   9.363   1.467  0.5227 -0.1411  0.5080
 5889SOL    HW122514   4.410   9.442   1.448  1.5378 -0.8617  0.1619
 5889SOL    HW222515   4.269   9.387   1.446  1.0977  0.2804 -1.6419
 5890SOL     OW22516   4.441   0.225   9.470  0.0567 -0.2622 -0.4412
 5890SOL    HW122517   4.467   0.254   9.383 -0.8611  0.9162 -0.3297
 5890SOL    HW222518   4.492   0.145   9.484  2.1234  0.8938 -1.0204
 5891SOL     OW22519   2.277   1.099   1.526 -0.2210  1.5801 -0.2104
 5891SOL    HW122520   2.343   1.094   1.456 -0.0753  2.0340 -0.1095
 5891SOL    HW222521   2.255   1.008   1.545  2.3337  1.2971  1.6106
 5892SOL     OW22522   4.340   0.521   0.513  0.1450 -0.1912 -0.0519
 5892SOL    HW122523   4.284   0.443   0.509  1.5282 -1.3546  1.9604
 5892SOL    HW222524   4.346   0.541   0.607  1.6743  0.9201 -0.3731
 5893SOL     OW22525   3.927   0.391   1.786 -0.3447  0.2472 -0.0301
 5893SOL    HW122526   3.947   0.470   1.837  1.1193 -0.9047  1.2250
 5893SOL    HW222527   3.970   0.404   1.702  1.3003  0.0669  0.7744
 5894SOL     OW22528   2.997   0.460   2.022  0.2323  0.1050 -0.8158
 5894SOL    HW122529   3.057   0.493   2.089 -0.8870  0.6081 -0.0534
 5894SOL    HW222530   3.039   0.380   1.991  0.9077  0.0052  0.3034
 5895SOL     OW22531   2.622   0.260   3.398  0.0992 -0.4731 -0.0949
 5895SOL    HW122532   2.619   0.216   3.313  1.0527  2.3996 -1.6668
 5895SOL    HW222533   2.531   0.265   3.426 -0.4308  0.4301 -1.9602
 5896SOL     OW22534   2.782   2.377   1.238  0.5539  0.6087  0.3066
 5896SOL    HW122535   2.696   2.379   1.280 -0.0162  1.1367 -0.8645
 5896SOL    HW222536   2.843   2.361   1.309 -0.6244 -1.0123  0.9797
 5897SOL     OW22537   3.097   1.740   9.851  0.3452 -0.4593 -0.3379
 5897SOL    HW122538   3.138   1.722   9.767  0.6823 -0.9834 -0.0682
 5897SOL    HW222539   3.096   1.835   9.858  1.2824 -0.4376 -0.4624
 5898SOL     OW22540   2.728   0.948   0.958  0.0241  0.2911  0.2236
 5898SOL    HW122541   2.722   0.990   1.044  0.3721  0.9494 -0.0715
 5898SOL    HW222542   2.807   0.895   0.963 -0.7671 -0.8700  0.8237
 5899SOL     OW22543   1.967   1.455   0.503  0.1653  0.3450  0.0322
 5899SOL    HW122544   2.010   1.395   0.442  0.3909 -0.2561  0.7887
 5899SOL    HW222545   1.932   1.399   0.572 -0.8873  0.9376 -0.0086
 5900SOL     OW22546   2.508   8.766   1.507 -0.5750  0.2075  0.4151
 5900SOL    HW122547   2.535   8.847   1.463 -1.7725 -0.2592 -1.1975
 5900SOL    HW222548   2.581   8.706   1.492  0.4792  1.0522  1.9164
 5901SOL     OW22549   2.495   0.553   0.680 -0.3922 -0.3438 -0.0190
 5901SOL    HW122550   2.471   0.637   0.718 -1.1585  0.2274 -1.6880
 5901SOL    HW222551   2.411   0.512   0.658  0.0057 -1.0713 -0.1982
 5902SOL     OW22552   3.659   9.618   1.928 -0.1029  0.6122  0.1762
 5902SOL    HW122553   3.600   9.663   1.987 -0.0629  0.4187  0.3670
 5902SOL    HW222554   3.605   9.552   1.885  0.0632  0.1719  0.6437
 5903SOL     OW22555   3.707   2.425   0.144  0.0896  0.4495  0.1681
 5903SOL    HW122556   3.740   2.438   0.232  1.0505 -1.9098  0.1760
 5903SOL    HW222557   3.773   2.466   0.087  1.2906 -1.1801  0.3689
 5904SOL     OW22558   1.699   2.736   0.717 -0.6302  0.8659  0.1737
 5904SOL    HW122559   1.637   2.760   0.786 -2.2625 -1.4754 -0.4253
 5904SOL    HW222560   1.720   2.644   0.735  0.1115  0.6818 -1.5691
 5905SOL     OW22561   3.394   0.799   0.382 -0.0582  0.3604 -0.1214
 5905SOL    HW122562   3.301   0.783   0.395  0.3130  0.4687  2.9640
 5905SOL    HW222563   3.397   0.882   0.333 -1.5941 -1.2996 -3.1953
 5906SOL     OW22564   3.213   1.320   9.119  0.2012 -0.3517 -0.6605
 5906SOL    HW122565   3.126   1.355   9.100  0.1205 -0.8391 -1.1757
 5906SOL    HW222566   3.221   1.329   9.214  0.2823  1.3025 -0.8086
 5907SOL     OW22567   3.438   0.434   1.625 -0.2174  0.1365 -0.2350
 5907SOL    HW122568   3.456   0.520   1.587  0.0491 -0.5046 -1.5721
 5907SOL    HW222569   3.523   0.404   1.658 -0.3174  0.3901  0.2650
 5908SOL     OW22570   2.871   2.252   1.010  0.0275 -0.1808 -0.2037
 5908SOL    HW122571   2.830   2.275   1.093 -0.1587 -0.1202 -0.3112
 5908SOL    HW222572   2.911   2.166   1.026 -1.5822 -1.0225 -0.5825
 5909SOL     OW22573   1.655   2.367   1.291  0.2337 -0.0129  0.4444
 5909SOL    HW122574   1.629   2.282   1.328 -0.3894  0.0951  0.2571
 5909SOL    HW222575   1.574   2.405   1.260  0.3199  1.2198  1.6918
 5910SOL     OW22576   1.737   2.440   1.033 -0.7273 -0.1465 -0.1055
 5910SOL    HW122577   1.717   2.414   1.123 -1.8190  2.0279  0.3252
 5910SOL    HW222578   1.662   2.410   0.982 -0.4157 -0.7997 -0.1807
 5911SOL     OW22579   3.472   0.301   9.590 -0.2887  0.1476 -0.1340
 5911SOL    HW122580   3.538   0.263   9.648 -1.2434 -0.0978  0.8223
 5911SOL    HW222581   3.510   0.295   9.503  1.2409  0.6538  0.4773
 5912SOL     OW22582   3.952   0.505   0.045  0.4026 -0.2262 -0.2450
 5912SOL    HW122583   4.036   0.459   0.038  2.1146  3.0705 -2.8085
 5912SOL    HW222584   3.901   0.473  -0.029 -0.1399 -1.2209  0.5373
 5913SOL     OW22585   3.278   1.165   0.012 -0.0908 -0.4881  0.2272
 5913SOL    HW122586   3.304   1.213   0.090 -0.0610 -1.0148  0.5396
 5913SOL    HW222587   3.182   1.166   0.014 -0.0883 -1.0443  0.6014
 5914SOL     OW22588   1.947   2.348   1.248 -0.7945 -0.5377  0.3846
 5914SOL    HW122589   1.863   2.345   1.294 -0.3915  1.7859  1.3639
 5914SOL    HW222590   2.012   2.328   1.316 -0.3821  0.3201  0.2452
 5915SOL     OW22591   2.688   1.494   8.995  0.1478  0.1675  0.1260
 5915SOL    HW122592   2.684   1.458   9.083 -0.1309 -2.0675 -0.7762
 5915SOL    HW222593   2.622   1.564   8.995  0.3577  0.3914  1.7458
 5916SOL     OW22594   2.133   1.191   2.599 -0.4099  0.0656  0.0369
 5916SOL    HW122595   2.227   1.194   2.582 -0.0510  0.6300  1.9495
 5916SOL    HW222596   2.125   1.142   2.681 -1.6125  1.6614  0.9049
 5917SOL     OW22597   1.666   0.750   8.739  0.0710  0.3714 -0.0549
 5917SOL    HW122598   1.671   0.803   8.660 -1.0626  1.5840  0.6774
 5917SOL    HW222599   1.756   0.748   8.772  0.2545  1.1719 -0.5126
 5918SOL     OW22600   2.732   9.974   0.038 -0.3945 -0.6546  0.2944
 5918SOL    HW122601   2.651   9.982   0.090 -0.2017 -0.5339  0.5772
 5918SOL    HW222602   2.710   9.911  -0.031 -1.1538  0.4175 -0.4535
 5919SOL     OW22603   4.280   0.816   1.339  0.8076 -0.0543  0.5041
 5919SOL    HW122604   4.232   0.774   1.410  1.2072  0.1269  0.8876
 5919SOL    HW222605   4.283   0.751   1.269 -1.7313  0.6431 -0.2953
 5920SOL     OW22606   2.345   1.618   0.711  0.2979  0.4127  0.0600
 5920SOL    HW122607   2.259   1.609   0.752 -0.1496  0.6313 -0.8208
 5920SOL    HW222608   2.360   1.534   0.667  0.7121  0.2307  0.5387
 5921SOL     OW22609   2.532   9.919   9.273 -0.3760 -0.2822 -0.9067
 5921SOL    HW122610   2.484   9.883   9.199 -0.3981  0.4540 -1.2625
 5921SOL    HW222611   2.614   9.869   9.276 -0.1049  0.0916 -1.8169
 5922SOL     OW22612   2.850   2.028   0.688  0.8303 -0.3289  0.2354
 5922SOL    HW122613   2.881   1.938   0.677 -0.5944 -0.7677 -0.3088
 5922SOL    HW222614   2.787   2.024   0.759 -1.6117 -0.3891 -1.8406
 5923SOL     OW22615   2.860   0.624   9.302  0.2327  0.4059 -0.4119
 5923SOL    HW122616   2.852   0.604   9.395 -1.9094 -3.6182 -1.3288
 5923SOL    HW222617   2.918   0.557   9.267 -0.2673  0.8928 -2.2671
 5924SOL     OW22618   2.417   2.669   0.914  0.3417 -0.3205  0.1041
 5924SOL    HW122619   2.493   2.658   0.857  1.0996  0.6671  0.9193
 5924SOL    HW222620   2.450   2.717   0.989 -1.1842  0.4914  0.2687
 5925SOL     OW22621   3.785   2.328   2.933  0.1668 -0.1258  0.2094
 5925SOL    HW122622   3.703   2.365   2.966 -1.3464 -2.0733 -1.2669
 5925SOL    HW222623   3.760   2.243   2.896  2.9696 -1.0472  0.3385
 5926SOL     OW22624   1.712   1.193   0.704 -0.4808 -0.0541 -0.0297
 5926SOL    HW122625   1.732   1.261   0.767 -0.3792 -2.1096  2.2541
 5926SOL    HW222626   1.635   1.149   0.740 -0.1569 -1.5470 -1.1015
 5927SOL     OW22627   3.056   0.220   1.472  0.7747  0.0879 -0.2048
 5927SOL    HW122628   3.117   0.279   1.426 -0.0065 -0.1025 -1.5175
 5927SOL    HW222629   2.998   0.278   1.520 -0.1132  0.4232 -1.6465
 5928SOL     OW22630   1.566   1.566   0.323 -0.0697  0.5603 -0.7858
 5928SOL    HW122631   1.488   1.512   0.309  0.8412 -1.0857  0.3150
 5928SOL    HW222632   1.536   1.655   0.307 -2.0732 -0.0908 -0.8326
 5929SOL     OW22633   3.893   0.664   2.209 -0.1856  0.3685 -0.2135
 5929SOL    HW122634   3.815   0.645   2.157  0.0577  0.4599 -0.6168
 5929SOL    HW222635   3.874   0.629   2.295 -0.5612  0.1409 -0.3898
 5930SOL     OW22636   1.947   0.239   0.667  0.0655  0.2506  0.1063
 5930SOL    HW122637   1.941   0.192   0.583 -1.1300  0.4893  0.0495
 5930SOL    HW222638   1.984   0.324   0.645 -1.2998  0.7449 -0.3739
 5931SOL     OW22639   1.158   2.109   0.026  0.1766 -0.0791 -0.2641
 5931SOL    HW122640   1.187   2.186  -0.025  0.2280 -0.4511 -0.7998
 5931SOL    HW222641   1.129   2.047  -0.040 -0.9707 -0.0767  0.2293
 5932SOL     OW22642   3.074   0.740   2.617  0.1404  0.6178  0.2171
 5932SOL    HW122643   3.153   0.695   2.645 -0.6549 -0.7014  0.4106
 5932SOL    HW222644   3.041   0.687   2.544 -1.2354  0.4271  0.9607
 5933SOL     OW22645   2.359   0.772   9.193 -0.1243  0.6463 -0.0641
 5933SOL    HW122646   2.329   0.854   9.155  0.6247  0.2625 -1.5038
 5933SOL    HW222647   2.280   0.732   9.229 -1.6884 -0.8821 -4.7812
 5934SOL     OW22648   3.371   1.512   1.501 -0.7189  0.0085 -0.3600
 5934SOL    HW122649   3.294   1.542   1.549 -0.8116  0.3041 -0.6956
 5934SOL    HW222650   3.360   1.546   1.413 -0.9511 -1.2213 -0.8183
 5935SOL     OW22651   5.125   0.138   0.263  0.1884  0.0005 -0.3536
 5935SOL    HW122652   5.109   0.130   0.357  0.8713 -0.3802 -0.2591
 5935SOL    HW222653   5.220   0.127   0.255 -0.0566 -1.5473 -1.2505
 5936SOL     OW22654   2.384   0.015   9.482  0.4530 -0.0268  0.1361
 5936SOL    HW122655   2.446   0.004   9.410  2.5610  1.0393  1.7274
 5936SOL    HW222656   2.404   0.102   9.518 -2.7970  0.8810 -0.0671
 5937SOL     OW22657   2.254   0.439   0.599  0.0118 -0.3542  0.2281
 5937SOL    HW122658   2.266   0.370   0.533  0.5696 -1.3011  1.3100
 5937SOL    HW222659   2.159   0.448   0.607 -0.0869 -2.3039  1.4224
 5938SOL     OW22660   3.626   3.406   0.916 -0.1765 -0.2958  0.5811
 5938SOL    HW122661   3.592   3.318   0.906 -1.0097  0.0351  0.4453
 5938SOL    HW222662   3.581   3.457   0.849  1.1626 -0.0071 -0.1087
 5939SOL     OW22663   3.484   9.512   1.738 -0.2464 -0.0072  0.6020
 5939SOL    HW122664   3.465   9.509   1.644  0.2824  0.3723  0.4805
 5939SOL    HW222665   3.407   9.553   1.777 -0.6100 -0.4682  0.3733
 5940SOL     OW22666   2.488   1.834   0.642 -0.5122  0.5797 -0.0540
 5940SOL    HW122667   2.507   1.862   0.732  0.8943  0.7260 -0.3852
 5940SOL    HW222668   2.428   1.761   0.653  0.2948  0.0525  1.0594
 5941SOL     OW22669   3.417   1.324   2.469  0.3303 -0.3821 -0.5162
 5941SOL    HW122670   3.351   1.276   2.420 -0.2247 -0.5971  0.4297
 5941SOL    HW222671   3.482   1.258   2.493 -0.8614 -0.8763  1.5249
 5942SOL     OW22672   2.467   0.260   2.061 -0.1232 -0.0759 -0.1765
 5942SOL    HW122673   2.519   0.274   1.982 -0.9408  2.4190 -0.3242
 5942SOL    HW222674   2.483   0.169   2.085  2.7281  0.0737 -1.3553
 5943SOL     OW22675   3.745   0.522   9.527 -0.0283 -0.2179  0.5859
 5943SOL    HW122676   3.826   0.560   9.494  0.0829 -0.0532  1.0435
 5943SOL    HW222677   3.695   0.500   9.449 -0.0637  0.8013  0.3185
 5944SOL     OW22678   3.449   0.939   0.032  0.3620 -0.0221  0.4313
 5944SOL    HW122679   3.512   1.004   0.064  0.2884  1.7284 -2.7887
 5944SOL    HW222680   3.363   0.980   0.048  0.1207 -1.1086  2.0596
 5945SOL     OW22681   1.733   0.938   1.039 -0.5230 -0.0953 -0.5971
 5945SOL    HW122682   1.821   0.977   1.034 -0.7009  0.3003 -0.6472
 5945SOL    HW222683   1.718   0.902   0.952  0.0104 -1.0883 -0.2951
 5946SOL     OW22684   3.159   0.549   1.768  0.0784  0.2804 -0.4115
 5946SOL    HW122685   3.218   0.624   1.771  1.8412 -1.0137 -1.9593
 5946SOL    HW222686   3.112   0.552   1.851  1.2392  2.2032  0.1924
 5947SOL     OW22687   3.626   0.809   2.311  0.1285 -0.0169  0.0875
 5947SOL    HW122688   3.647   0.766   2.394 -1.7606 -0.8154  0.1674
 5947SOL    HW222689   3.709   0.811   2.263  0.7487 -1.5968  1.0652
 5948SOL     OW22690   3.078   1.385   0.404 -0.0169  0.1811  0.4723
 5948SOL    HW122691   3.030   1.303   0.412 -0.0746  0.2347  0.6927
 5948SOL    HW222692   3.167   1.364   0.431  0.0953  0.0708  0.0163
 5949SOL     OW22693   3.565   8.332   0.992 -0.3369  0.6899 -0.5394
 5949SOL    HW122694   3.548   8.240   0.975 -0.4884  0.9449 -1.8124
 5949SOL    HW222695   3.655   8.346   0.965 -0.6151  1.1279 -1.2561
 5950SOL     OW22696   2.525   0.052   1.009 -0.2848  0.7247  0.0218
 5950SOL    HW122697   2.554  -0.004   0.938 -0.2935  0.3917  0.2793
 5950SOL    HW222698   2.435   0.025   1.027  0.4953 -0.8419  1.7586
 5951SOL     OW22699   1.814   1.504   0.888  0.1805 -0.0859  0.8945
 5951SOL    HW122700   1.805   1.520   0.794  2.1310  0.8559  0.8538
 5951SOL    HW222701   1.761   1.573   0.928 -2.5907 -1.9031  0.4795
 5952SOL     OW22702   3.860   1.736   0.770  0.0019 -0.8035 -0.6549
 5952SOL    HW122703   3.805   1.792   0.825  0.1312  1.0928 -2.4219
 5952SOL    HW222704   3.818   1.650   0.774 -1.4451 -0.0699  0.3258
 5953SOL     OW22705   2.130   1.177   8.963 -0.5735 -0.7773 -0.5732
 5953SOL    HW122706   2.084   1.117   8.904 -1.4910  1.1018 -1.8252
 5953SOL    HW222707   2.137   1.258   8.913 -0.5127  0.5664  1.5719
 5954SOL     OW22708   4.227   0.280   0.518  0.2472  0.1972  0.0633
 5954SOL    HW122709   4.147   0.269   0.570  0.6642 -0.8077  0.5037
 5954SOL    HW222710   4.251   0.191   0.492  0.5953  0.6016 -1.0309
 5955SOL     OW22711   2.705   0.372   0.807  0.6148 -0.0038  0.2794
 5955SOL    HW122712   2.622   0.418   0.797  0.4899  0.0051  1.2568
 5955SOL    HW222713   2.701   0.334   0.895  1.1943 -0.9154 -0.0793
 5956SOL     OW22714   1.523   0.502   9.480  0.2948  0.3838  0.1469
 5956SOL    HW122715   1.550   0.566   9.546  0.9647 -1.1863  1.4324
 5956SOL    HW222716   1.564   0.533   9.399  0.2885  1.7818  0.6667
 5957SOL     OW22717   2.690   1.561   0.858 -0.1779  0.0449 -0.3849
 5957SOL    HW122718   2.773   1.515   0.864  0.1884  0.9358  1.8691
 5957SOL    HW222719   2.628   1.495   0.828  0.7388 -1.4183  0.8707
 5958SOL     OW22720   2.361   0.141   1.732  0.2559  0.5298  0.2928
 5958SOL    HW122721   2.341   0.205   1.664  0.7129  0.2208 -0.1354
 5958SOL    HW222722   2.435   0.178   1.780 -0.2352  0.8704  0.7893
 5959SOL     OW22723   1.572   8.927   2.400  0.1560 -0.4699  0.0326
 5959SOL    HW122724   1.625   8.914   2.479 -1.0908 -1.8706  0.6452
 5959SOL    HW222725   1.601   9.012   2.366  1.3607 -0.2824  1.4745
 5960SOL     OW22726   1.921   0.224   3.596 -0.2165 -0.0880  1.1923
 5960SOL    HW122727   1.875   0.140   3.596  0.5847 -0.5411 -0.2644
 5960SOL    HW222728   1.851   0.289   3.598 -0.9046 -0.7905  0.5891
 5961SOL     OW22729   1.832   9.678   2.319 -0.3871  0.1896 -0.4485
 5961SOL    HW122730   1.800   9.611   2.260 -0.5352 -0.1610  0.0247
 5961SOL    HW222731   1.774   9.674   2.395  0.4310 -0.0752  0.1782
 5962SOL     OW22732   3.393   2.091   3.310  0.3433  0.0725  0.0103
 5962SOL    HW122733   3.441   2.024   3.357  0.5194 -0.7615 -1.3247
 5962SOL    HW222734   3.343   2.044   3.244 -0.2928  1.1656 -0.3130
 5963SOL     OW22735   1.605   9.049   2.028  0.4376  0.4330 -0.1676
 5963SOL    HW122736   1.563   9.024   1.946  2.7643 -1.6033 -0.7698
 5963SOL    HW222737   1.660   9.124   2.006  1.0453 -0.1007 -0.4573
 5964SOL     OW22738   3.490   0.705   2.719  0.1919  0.2356  0.4792
 5964SOL    HW122739   3.406   0.668   2.692 -0.1704  1.6711 -0.3891
 5964SOL    HW222740   3.546   0.696   2.642  0.2370  1.1087  0.4115
 5965SOL     OW22741   3.159   1.218   3.331  0.1828  0.7072 -0.2836
 5965SOL    HW122742   3.206   1.226   3.414 -0.0620  1.5907 -0.2184
 5965SOL    HW222743   3.225   1.238   3.265  0.9143 -2.1207 -0.4356
 5966SOL     OW22744   2.418   1.122   2.987 -0.4205 -0.3725 -0.2874
 5966SOL    HW122745   2.342   1.177   2.968  0.0756  0.0549 -1.0440
 5966SOL    HW222746   2.414   1.052   2.921  0.3382  0.1508 -0.8955
 5967SOL     OW22747   1.950   1.092   3.459  0.0344 -0.3779  0.0213
 5967SOL    HW122748   2.033   1.138   3.446  0.0258 -0.2975  0.2369
 5967SOL    HW222749   1.891   1.160   3.492  0.2348 -0.7100  1.0913
 5968SOL     OW22750   3.391   1.463   4.267  0.5013  0.0833 -0.4205
 5968SOL    HW122751   3.478   1.476   4.306  0.4273  1.0854 -0.5880
 5968SOL    HW222752   3.371   1.546   4.225 -0.9660  0.1776  0.4465
 5969SOL     OW22753   3.580   0.107   3.530 -0.2611 -0.0768  0.1669
 5969SOL    HW122754   3.492   0.143   3.523 -0.0863  0.7542  1.8738
 5969SOL    HW222755   3.568   0.020   3.566 -0.2797  0.9120  2.6694
 5970SOL     OW22756   1.763   0.361   3.893 -0.3287 -0.2287  0.2392
 5970SOL    HW122757   1.686   0.381   3.841 -0.4879  0.2830  0.6715
 5970SOL    HW222758   1.836   0.397   3.843 -0.1766 -2.0956 -0.9641
 5971SOL     OW22759   0.199   1.298   2.670  0.6545 -0.0468 -0.0761
 5971SOL    HW122760   0.184   1.308   2.764  1.1047  1.3737 -0.1394
 5971SOL    HW222761   0.172   1.208   2.650 -0.4151 -0.0212  1.2164
 5972SOL     OW22762   4.041   9.434   4.358 -0.5252  0.0661 -0.0446
 5972SOL    HW122763   3.980   9.469   4.423 -0.9991 -0.0834 -0.4032
 5972SOL    HW222764   4.126   9.438   4.400 -0.4972  2.0683 -0.2392
 5973SOL     OW22765   2.149   1.056   1.862 -0.0075 -0.0512 -0.1856
 5973SOL    HW122766   2.219   0.994   1.842  0.3383  0.1511  0.3841
 5973SOL    HW222767   2.194   1.131   1.901 -0.1199  1.5920 -3.0512
 5974SOL     OW22768   1.359   9.775   1.799 -0.7612 -0.1711 -0.6343
 5974SOL    HW122769   1.372   9.868   1.786 -2.4525  0.2453  0.4441
 5974SOL    HW222770   1.264   9.765   1.809 -0.3346 -1.5146  2.6760
 5975SOL     OW22771   3.453   1.339   5.401  0.1197 -0.1150  0.4585
 5975SOL    HW122772   3.504   1.258   5.405 -0.8213 -0.6210  3.6862
 5975SOL    HW222773   3.514   1.407   5.431  0.1600 -0.0316  0.1875
 5976SOL     OW22774   2.499   0.722   2.139 -0.5611 -0.2465 -0.1256
 5976SOL    HW122775   2.591   0.712   2.117 -0.2360 -0.6421  1.3383
 5976SOL    HW222776   2.481   0.815   2.125  0.5442  0.2021  1.3019
 5977SOL     OW22777   3.136   9.834   3.728 -0.1006 -0.1125 -0.1008
 5977SOL    HW122778   3.073   9.790   3.785 -0.3364 -0.5375 -0.6965
 5977SOL    HW222779   3.147   9.921   3.768 -1.0323 -0.0436  0.0173
 5978SOL     OW22780   1.980   9.498   3.208  0.1519  0.1270  0.9773
 5978SOL    HW122781   1.961   9.496   3.301 -1.6999  1.1738  0.6538
 5978SOL    HW222782   1.901   9.533   3.168  0.7453 -0.7500 -1.0449
 5979SOL     OW22783   1.753   0.560   2.698  0.4175  0.4368  0.0295
 5979SOL    HW122784   1.777   0.521   2.614 -0.6721 -1.2352  0.4620
 5979SOL    HW222785   1.713   0.644   2.674  0.8695  0.3530 -1.0673
 5980SOL     OW22786   2.003   0.642   1.745 -0.1252 -0.3217 -0.0862
 5980SOL    HW122787   1.913   0.670   1.757  0.2280  0.1568  1.6260
 5980SOL    HW222788   2.023   0.662   1.654 -1.3965  0.5961 -0.1726
 5981SOL     OW22789   4.785   2.817   2.450  0.0302 -0.3101 -0.0977
 5981SOL    HW122790   4.855   2.817   2.515  1.3911  0.8042 -1.5273
 5981SOL    HW222791   4.782   2.727   2.418 -0.4978 -0.8104  1.3217
 5982SOL     OW22792   3.480   0.265   2.331 -0.3557  0.0937  0.1108
 5982SOL    HW122793   3.485   0.176   2.366 -1.1908 -0.1654 -0.4110
 5982SOL    HW222794   3.436   0.315   2.399  1.4945  0.4695  1.0684
 5983SOL     OW22795   0.760   9.632   2.866 -0.0188  0.1380 -0.3019
 5983SOL    HW122796   0.699   9.704   2.853  0.1971 -0.0413 -2.4351
 5983SOL    HW222797   0.827   9.645   2.800  0.7847 -1.2277  0.2229
 5984SOL     OW22798   2.834   0.830   1.747  0.1157 -0.1226 -0.6714
 5984SOL    HW122799   2.747   0.859   1.775 -0.0502  0.5591 -1.8405
 5984SOL    HW222800   2.820   0.746   1.706 -0.0921  0.2965 -1.4604
 5985SOL     OW22801   3.245   2.345   3.224  0.1275  0.8324 -0.8907
 5985SOL    HW122802   3.313   2.279   3.241 -0.4242  1.0045  2.1465
 5985SOL    HW222803   3.163   2.296   3.224 -0.1957  1.3483  0.4543
 5986SOL     OW22804   2.125   0.438   1.883 -0.2416  0.1507 -0.0782
 5986SOL    HW122805   2.150   0.433   1.975  0.7762  1.4684 -0.2768
 5986SOL    HW222806   2.036   0.474   1.884  0.8016  2.8313  0.2880
 5987SOL     OW22807   2.383   1.023   3.234 -0.2116  0.0482  0.1715
 5987SOL    HW122808   2.381   0.927   3.229 -0.0127  0.0209  0.6277
 5987SOL    HW222809   2.402   1.051   3.144 -3.5704 -0.2486 -0.7013
 5988SOL     OW22810   2.661   1.605   4.570 -0.0359 -0.1393  0.2879
 5988SOL    HW122811   2.670   1.654   4.653 -0.2172 -0.7201  0.6522
 5988SOL    HW222812   2.567   1.591   4.561  0.0018 -0.2552  0.0861
 5989SOL     OW22813   2.783   0.734   4.011 -0.2928 -0.1305 -0.3743
 5989SOL    HW122814   2.753   0.696   3.929 -0.7988 -0.2202 -0.1503
 5989SOL    HW222815   2.729   0.812   4.023 -1.0621 -0.7818  0.4774
 5990SOL     OW22816   2.933   1.117   2.755 -0.0179 -0.5643 -0.2004
 5990SOL    HW122817   2.921   1.051   2.687 -2.1232 -1.7925  1.3081
 5990SOL    HW222818   2.872   1.187   2.732  0.8810  0.0217 -0.7954
 5991SOL     OW22819   3.032   2.830   3.331 -0.7010  0.6780 -0.1663
 5991SOL    HW122820   3.115   2.849   3.374 -0.4948 -0.9744  0.1941
 5991SOL    HW222821   3.031   2.887   3.255  0.5150  1.1065  0.1302
 5992SOL     OW22822   2.213   1.237   3.718  0.1367  0.1259 -0.1887
 5992SOL    HW122823   2.124   1.213   3.743 -0.3190  1.0324 -0.9054
 5992SOL    HW222824   2.234   1.313   3.772 -0.3314  1.2280 -1.5143
 5993SOL     OW22825   4.087   0.063   2.738  0.1577  0.5660  0.3191
 5993SOL    HW122826   4.120   0.117   2.810 -1.5258  0.3637  1.2779
 5993SOL    HW222827   3.992   0.072   2.743 -0.0330 -0.5176 -1.0599
 5994SOL     OW22828   3.868   2.078   1.866  0.2741  0.0082 -0.1396
 5994SOL    HW122829   3.964   2.073   1.868  0.3914  2.1752  1.1228
 5994SOL    HW222830   3.839   1.987   1.864  2.3474 -0.6912  0.4470
 5995SOL     OW22831   2.352   0.012   3.333 -0.0252  0.6792  0.2734
 5995SOL    HW122832   2.334  -0.034   3.415  2.1031 -1.3810 -0.3574
 5995SOL    HW222833   2.276  -0.005   3.278 -0.8741  0.9829  1.3310
 5996SOL     OW22834   2.758   0.710   2.286 -0.2639 -0.1250 -0.8691
 5996SOL    HW122835   2.721   0.789   2.247 -2.1983 -0.4787  0.1832
 5996SOL    HW222836   2.763   0.647   2.214  0.0443  0.5304 -1.4256
 5997SOL     OW22837   1.627   9.572   3.446 -0.1822  0.2836 -0.1785
 5997SOL    HW122838   1.601   9.623   3.369  0.6310  0.6713 -0.1972
 5997SOL    HW222839   1.567   9.602   3.515  1.0702  2.1813  0.1352
 5998SOL     OW22840   4.190   1.232   3.271 -0.3050 -0.2790  0.3570
 5998SOL    HW122841   4.142   1.159   3.234 -0.9731  0.2359  0.2084
 5998SOL    HW222842   4.282   1.204   3.270 -0.4508 -0.7020 -0.6381
 5999SOL     OW22843   1.113   0.095   2.240  0.3732  0.3144  0.3033
 5999SOL    HW122844   1.140   0.146   2.164  0.2648 -0.4285 -0.2369
 5999SOL    HW222845   1.195   0.065   2.279  0.4159  0.3913  0.2720
 6000SOL     OW22846   0.639   2.323   4.166  0.0360 -0.4633  0.2463
 6000SOL    HW122847   0.623   2.232   4.193  3.1211 -0.6858  1.4186
 6000SOL    HW222848   0.592   2.330   4.082 -3.5975 -1.8940  2.0275
 6001SOL     OW22849   2.370   1.427   1.085  0.4833  0.1288 -0.3427
 6001SOL    HW122850   2.331   1.364   1.024 -2.4069  0.8906  0.6504
 6001SOL    HW222851   2.399   1.373   1.159 -3.1504  0.0496  1.0791
 6002SOL     OW22852   1.738   9.656   4.087 -0.0395 -0.1421  0.0554
 6002SOL    HW122853   1.794   9.733   4.099 -1.3719  0.7360  0.7372
 6002SOL    HW222854   1.741   9.611   4.171 -0.3252 -0.1064  0.0860
 6003SOL     OW22855   2.375   0.834   3.885  0.4540 -0.3533 -0.2812
 6003SOL    HW122856   2.295   0.887   3.878  0.3422  0.0020  2.9154
 6003SOL    HW222857   2.354   0.754   3.838 -1.7363 -0.1716  0.2902
 6004SOL     OW22858   1.270   8.422   2.309  0.9484 -0.5133  0.3741
 6004SOL    HW122859   1.241   8.465   2.390  0.9609 -1.0697  0.6769
 6004SOL    HW222860   1.224   8.469   2.239  0.4899 -0.4039  0.7472
 6005SOL     OW22861   2.555   2.566   1.437  0.0271 -0.0514 -0.4048
 6005SOL    HW122862   2.501   2.570   1.515  0.6476 -0.1974  0.0377
 6005SOL    HW222863   2.553   2.474   1.411  2.1657 -0.5553  1.1210
 6006SOL     OW22864   2.935   0.562   2.426  0.0003  0.1356 -0.1938
 6006SOL    HW122865   3.018   0.583   2.384 -0.7950  0.9483 -1.3969
 6006SOL    HW222866   2.869   0.600   2.368 -1.2732 -1.6613  0.0654
 6007SOL     OW22867   4.478   1.069   1.968 -0.2035 -0.3019 -0.3393
 6007SOL    HW122868   4.383   1.076   1.968 -0.0937  1.3270 -1.0022
 6007SOL    HW222869   4.497   0.994   1.911 -1.1731 -2.4678  2.0740
 6008SOL     OW22870   5.434   1.788   3.515  0.3632 -0.0419 -1.1236
 6008SOL    HW122871   5.519   1.830   3.508  0.6382 -0.0463  1.5567
 6008SOL    HW222872   5.453   1.697   3.534 -0.1382  0.5502  2.6878
 6009SOL     OW22873   1.807   1.291   1.803 -0.3730  0.5661  0.5587
 6009SOL    HW122874   1.888   1.257   1.840  0.1452  1.8247  0.6037
 6009SOL    HW222875   1.763   1.335   1.876 -1.6365 -1.0572  0.8014
 6010SOL     OW22876   1.619   0.327   2.659  0.0721 -0.3073  0.6651
 6010SOL    HW122877   1.540   0.320   2.713 -0.3216  1.5142  0.3835
 6010SOL    HW222878   1.654   0.414   2.679  2.3658 -1.3117  1.2339
 6011SOL     OW22879   2.658   1.245   1.480 -0.0584 -0.7120  0.4197
 6011SOL    HW122880   2.624   1.323   1.524 -1.0450  0.4848 -2.2875
 6011SOL    HW222881   2.614   1.171   1.522 -0.5199  0.3280  1.7952
 6012SOL     OW22882   3.281   0.409   3.700 -0.6271  0.0310  0.6210
 6012SOL    HW122883   3.215   0.435   3.635  0.1069  0.4013  0.0281
 6012SOL    HW222884   3.360   0.456   3.675 -0.0243 -0.7119  1.1154
 6013SOL     OW22885   2.387   0.401   3.671  0.5358  0.4678 -0.3677
 6013SOL    HW122886   2.451   0.359   3.728  1.3070  0.8625 -0.9234
 6013SOL    HW222887   2.305   0.400   3.721  0.1796 -2.8776 -0.9086
 6014SOL     OW22888   4.772   1.010   0.868  0.5971 -0.1725 -0.1692
 6014SOL    HW122889   4.749   0.940   0.928  0.6073 -1.1962 -1.3426
 6014SOL    HW222890   4.813   0.966   0.793  1.2156  1.1304 -0.6261
 6015SOL     OW22891   0.804   1.711   3.012 -0.0498  0.4187 -0.1157
 6015SOL    HW122892   0.894   1.729   3.040  0.8416 -1.6169 -1.5672
 6015SOL    HW222893   0.791   1.618   3.032 -2.4582  1.0799  1.6762
 6016SOL     OW22894   2.923   2.232   3.437 -0.3800 -0.1030  0.6212
 6016SOL    HW122895   2.990   2.229   3.368  0.8338 -0.8444  1.8062
 6016SOL    HW222896   2.896   2.324   3.440  1.0192  0.3248  0.5254
 6017SOL     OW22897   1.611   9.892   3.194  0.1280 -0.4397  0.3066
 6017SOL    HW122898   1.541   9.931   3.246  0.6157 -1.2449  1.5733
 6017SOL    HW222899   1.591   9.798   3.194  0.7645 -0.5775 -0.0007
 6018SOL     OW22900   4.168   1.823   3.446  0.3943  0.1832 -0.2901
 6018SOL    HW122901   4.214   1.761   3.502 -0.4673 -0.0816  0.1400
 6018SOL    HW222902   4.183   1.791   3.357 -0.3774 -0.8788 -0.0494
 6019SOL     OW22903   2.348   9.745   2.047  0.1199  0.1767 -0.1020
 6019SOL    HW122904   2.370   9.652   2.052  1.9044  0.7104  2.8892
 6019SOL    HW222905   2.344   9.764   1.953  0.4308 -2.7444 -0.7417
 6020SOL     OW22906   3.201   8.899   3.216  0.1223 -0.3870 -0.0080
 6020SOL    HW122907   3.208   8.908   3.121 -1.0735 -1.1740 -0.1801
 6020SOL    HW222908   3.246   8.817   3.235 -2.2579 -1.8115 -0.2834
 6021SOL     OW22909   3.192   1.697   4.033 -0.3069 -0.2349  0.2376
 6021SOL    HW122910   3.127   1.651   3.980  0.5156  1.7490 -2.6237
 6021SOL    HW222911   3.151   1.706   4.119 -4.1226  1.4890 -1.6348
 6022SOL     OW22912   2.054   9.491   2.292  0.0652  0.2877 -0.1634
 6022SOL    HW122913   2.088   9.498   2.203  1.6389 -2.4984  0.1407
 6022SOL    HW222914   2.017   9.577   2.312  0.5048  1.2017 -3.1632
 6023SOL     OW22915   2.433   1.428   4.028  0.5365 -0.5952 -0.7340
 6023SOL    HW122916   2.380   1.443   4.107 -3.4270  0.1323 -3.3659
 6023SOL    HW222917   2.492   1.503   4.025 -0.2125  0.1016  0.8032
 6024SOL     OW22918   4.108   1.859   3.167 -0.2479 -0.5120  0.0819
 6024SOL    HW122919   4.180   1.871   3.105 -0.2351 -1.5634 -0.1319
 6024SOL    HW222920   4.031   1.845   3.112 -0.5745  0.3890  0.3099
 6025SOL     OW22921   1.280   8.628   2.562  0.3009 -0.6771  0.6445
 6025SOL    HW122922   1.335   8.652   2.637  1.8577 -2.1440  0.0085
 6025SOL    HW222923   1.194   8.607   2.600  0.6620  0.0175  1.8415
 6026SOL     OW22924   2.832   9.026   1.811 -0.6600 -0.2873  0.3815
 6026SOL    HW122925   2.771   9.097   1.790  0.6529  0.7224 -0.0514
 6026SOL    HW222926   2.810   8.956   1.749 -0.6593  0.4938 -0.5158
 6027SOL     OW22927   3.032   9.287   1.855  0.4614  0.6064 -0.4484
 6027SOL    HW122928   3.115   9.306   1.900  0.8128 -0.7456 -0.5053
 6027SOL    HW222929   2.980   9.240   1.920  0.5345 -0.3542 -1.0755
 6028SOL     OW22930   2.749   0.089   3.081  0.4964 -0.1846  0.4185
 6028SOL    HW122931   2.683   0.074   3.013 -1.5851  0.6264  2.2217
 6028SOL    HW222932   2.792   0.170   3.055  0.8399 -0.7487 -0.8020
 6029SOL     OW22933   1.300   1.422   2.607  0.0540  0.4226  0.0078
 6029SOL    HW122934   1.216   1.458   2.579  0.4294  1.7937  0.6093
 6029SOL    HW222935   1.339   1.388   2.526 -1.3284 -0.8165 -0.1800
 6030SOL     OW22936   2.078   0.760   3.637  0.0624  0.2156  0.5949
 6030SOL    HW122937   2.109   0.697   3.572 -1.0578 -0.7650  1.0011
 6030SOL    HW222938   2.036   0.707   3.704 -0.0874  1.3332  1.3915
 6031SOL     OW22939   3.784   1.135   1.945 -0.3001  0.3732 -0.3462
 6031SOL    HW122940   3.756   1.164   1.858 -1.6878 -1.5396 -0.5750
 6031SOL    HW222941   3.714   1.165   2.003 -1.9610 -2.6828 -0.6387
 6032SOL     OW22942   4.032   1.984   2.109  0.1277  0.6775 -0.0271
 6032SOL    HW122943   4.028   1.889   2.124  0.5825  0.9419  1.9174
 6032SOL    HW222944   4.082   1.994   2.029  0.6616 -0.7073  0.1227
 6033SOL     OW22945   0.946   1.611   4.403  0.0718  0.3187  0.1611
 6033SOL    HW122946   0.951   1.694   4.355  0.0001  0.2542  0.0428
 6033SOL    HW222947   0.852   1.595   4.414  0.0897  0.5300  0.6643
 6034SOL     OW22948   0.368   0.816   3.472 -0.2150  0.1982 -0.1628
 6034SOL    HW122949   0.389   0.908   3.457  1.1505 -0.4307 -2.2395
 6034SOL    HW222950   0.451   0.775   3.496 -1.3697  0.0739  3.9272
 6035SOL     OW22951   1.108   9.855   2.886  0.0724 -0.1788  0.4667
 6035SOL    HW122952   1.090   9.903   2.966  0.0570 -0.1228  0.4293
 6035SOL    HW222953   1.197   9.822   2.897 -0.5054 -1.5218  1.1928
 6036SOL     OW22954   1.055   0.304   2.045  0.1862  0.3265 -0.3321
 6036SOL    HW122955   1.006   0.231   2.008  2.3561 -1.0669 -0.5022
 6036SOL    HW222956   1.009   0.324   2.127 -0.1542 -1.5473 -0.0383
 6037SOL     OW22957   3.704   2.010   3.143 -0.1849  0.7542 -0.1771
 6037SOL    HW122958   3.620   2.010   3.096  0.3290 -1.1341 -1.1239
 6037SOL    HW222959   3.761   1.953   3.092  0.5210 -1.0341  2.5138
 6038SOL     OW22960   1.989   0.744   3.212 -0.4075 -0.1239 -0.4913
 6038SOL    HW122961   1.975   0.653   3.186 -0.2299  0.2527 -1.9258
 6038SOL    HW222962   2.034   0.784   3.137  2.4185  0.3481  1.3622
 6039SOL     OW22963   3.572   1.094   2.530  0.4155 -0.3539 -0.7791
 6039SOL    HW122964   3.523   1.042   2.466  0.2593  0.5360 -1.3897
 6039SOL    HW222965   3.660   1.056   2.529 -0.5319 -2.7699  1.2287
 6040SOL     OW22966   1.660   1.555   3.428  0.1835 -0.0650  0.1454
 6040SOL    HW122967   1.574   1.544   3.470  0.2400 -1.4491 -0.0853
 6040SOL    HW222968   1.690   1.466   3.412  0.4430  0.4350 -2.2987
 6041SOL     OW22969   3.704   9.365   3.244 -0.2537 -0.2511  0.2250
 6041SOL    HW122970   3.623   9.353   3.292 -0.6052 -1.0204 -0.5506
 6041SOL    HW222971   3.773   9.356   3.309 -0.7911  0.6599  0.9331
 6042SOL     OW22972   0.965   8.525   2.371 -0.1788  0.1725 -0.1819
 6042SOL    HW122973   0.933   8.449   2.420  0.3779 -1.2573 -1.9774
 6042SOL    HW222974   0.886   8.573   2.346 -0.5522  0.0280  0.7071
 6043SOL     OW22975   3.785   0.034   3.936  0.2842  0.3077 -0.8061
 6043SOL    HW122976   3.778   0.104   4.000  0.9058 -0.1230 -0.2567
 6043SOL    HW222977   3.756  -0.044   3.983  1.8843 -0.2269 -0.6680
 6044SOL     OW22978   4.204   2.801   3.000  0.7291  0.5901  0.4985
 6044SOL    HW122979   4.208   2.857   3.078  0.8026 -1.1439  1.7846
 6044SOL    HW222980   4.143   2.732   3.024 -1.9246  1.8991 -2.2782
 6045SOL     OW22981   4.043   1.720   3.812  0.0720 -0.0559  0.4320
 6045SOL    HW122982   3.980   1.743   3.880 -1.5659  2.2463 -1.7825
 6045SOL    HW222983   3.995   1.662   3.752  1.0791 -0.9554  0.4761
 6046SOL     OW22984   1.199   9.782   3.942 -0.3895 -0.0890 -0.4500
 6046SOL    HW122985   1.108   9.753   3.944  0.5365 -3.1192  1.1740
 6046SOL    HW222986   1.200   9.860   3.998 -1.8114 -0.6333  0.3750
 6047SOL     OW22987   3.453   1.383   2.940 -0.4667  0.2808  0.4942
 6047SOL    HW122988   3.489   1.356   2.856  1.3342  1.4134  0.8923
 6047SOL    HW222989   3.427   1.300   2.982  0.0187 -0.4091 -0.5398
 6048SOL     OW22990   4.586   0.959   4.191  0.2225 -0.0355 -0.6848
 6048SOL    HW122991   4.537   0.876   4.181 -0.4361  0.1514  0.8336
 6048SOL    HW222992   4.642   0.944   4.267 -0.0332  0.9683 -0.2919
 6049SOL     OW22993   2.409   1.122   4.223 -0.6517  0.2279 -0.2575
 6049SOL    HW122994   2.322   1.091   4.250 -1.2980 -0.8543 -3.3782
 6049SOL    HW222995   2.443   1.166   4.300 -2.3715 -2.7077  2.3095
 6050SOL     OW22996   1.990   0.498   2.140 -0.1134  0.5530  0.3968
 6050SOL    HW122997   1.988   0.432   2.209 -0.8285  0.6364  0.4598
 6050SOL    HW222998   1.937   0.460   2.070  1.0389  0.2436 -0.3147
 6051SOL     OW22999   0.245   0.091   2.534  0.6437  0.2194  0.2089
 6051SOL    HW123000   0.305   0.155   2.574 -0.3601  0.2435  1.7120
 6051SOL    HW223001   0.225   0.030   2.606  0.3842 -0.9009 -0.8060
 6052SOL     OW23002   3.898   2.006   3.707  0.3125  0.0924  0.2041
 6052SOL    HW123003   3.805   1.982   3.709  0.4498 -0.4512  0.1856
 6052SOL    HW223004   3.912   2.055   3.788  0.0216  0.1301  0.2317
 6053SOL     OW23005   0.025   1.479   2.551  0.0259  0.4226  0.5263
 6053SOL    HW123006  -0.042   1.466   2.618 -0.2707  1.0885  0.3685
 6053SOL    HW223007   0.090   1.411   2.567 -0.9261 -0.5260  0.3849
 6054SOL     OW23008   2.222   0.849   2.280  0.4784  0.1516  0.8797
 6054SOL    HW123009   2.253   0.936   2.254  1.0780 -0.9270 -2.2635
 6054SOL    HW223010   2.301   0.805   2.312  0.4292  0.3085  1.2239
 6055SOL     OW23011   2.901   0.206   1.804  0.3395 -0.2196 -0.1625
 6055SOL    HW123012   2.989   0.195   1.840  0.2453 -1.1862 -0.2196
 6055SOL    HW223013   2.904   0.290   1.758  1.0692  0.0098  0.3079
 6056SOL     OW23014   3.729   2.057   2.838  1.0551  0.2188 -0.1173
 6056SOL    HW123015   3.647   2.074   2.884  0.8088  0.3853 -0.6090
 6056SOL    HW223016   3.747   1.965   2.855  1.6045  0.5704  1.3078
 6057SOL     OW23017   3.018   9.596   2.906 -0.1388  0.2100  0.2577
 6057SOL    HW123018   2.994   9.507   2.934 -1.2571 -0.0892 -1.6135
 6057SOL    HW223019   3.077   9.626   2.975  0.1309 -1.9155  1.0205
 6058SOL     OW23020   2.333   0.553   3.246  0.5739 -0.1213  0.0538
 6058SOL    HW123021   2.241   0.564   3.220  0.2112  0.2930  1.4735
 6058SOL    HW223022   2.371   0.500   3.176 -1.1635 -1.7861  0.3204
 6059SOL     OW23023   2.495   1.246   4.485  0.0070 -0.0057 -0.1585
 6059SOL    HW123024   2.587   1.272   4.486 -0.3693  1.5249 -2.2233
 6059SOL    HW223025   2.449   1.321   4.525 -0.3652 -0.7731  0.8920
 6060SOL     OW23026   2.317   2.980   4.081  1.0053  0.1792  0.2173
 6060SOL    HW123027   2.355   3.058   4.121 -0.4584  0.6226  0.7546
 6060SOL    HW223028   2.231   2.970   4.123 -0.2390  0.2200 -2.2433
 6061SOL     OW23029   3.018   8.699   3.854  0.1270 -0.2920  0.6571
 6061SOL    HW123030   2.976   8.732   3.934 -0.7154  1.3850 -0.4632
 6061SOL    HW223031   3.074   8.771   3.825  0.3102 -0.8436 -0.3795
 6062SOL     OW23032   2.233   9.576   3.113  0.4228 -0.1079 -0.7150
 6062SOL    HW123033   2.144   9.555   3.143 -0.2412 -0.7255 -2.9886
 6062SOL    HW223034   2.222   9.604   3.022  2.5577 -0.1862 -1.0332
 6063SOL     OW23035   2.522   1.853   3.397  0.5047 -0.4161 -0.5304
 6063SOL    HW123036   2.435   1.864   3.359  0.2467 -0.2207  0.1012
 6063SOL    HW223037   2.577   1.822   3.325 -0.3441 -1.6441 -0.6514
 6064SOL     OW23038   3.116   0.280   2.496 -0.2642 -0.4943 -0.2856
 6064SOL    HW123039   3.092   0.338   2.423 -0.9956 -0.6025 -0.1349
 6064SOL    HW223040   3.211   0.287   2.502 -0.0834 -1.2967 -1.9359
 6065SOL     OW23041   2.522   0.150   3.646  0.5276  0.3709  0.3193
 6065SOL    HW123042   2.523   0.126   3.739 -2.3345 -1.3899 -0.0596
 6065SOL    HW223043   2.436   0.192   3.633  0.7869  0.3514 -1.5849
 6066SOL     OW23044   2.332   0.685   2.814 -0.4381 -0.1896 -0.4750
 6066SOL    HW123045   2.341   0.645   2.727 -0.0283  0.9468 -0.9667
 6066SOL    HW223046   2.337   0.611   2.875 -1.6108 -1.0987 -1.4601
 6067SOL     OW23047   2.688   0.797   2.751  0.2467 -0.3343  0.0889
 6067SOL    HW123048   2.729   0.836   2.674  1.9846 -0.3057  0.9966
 6067SOL    HW223049   2.666   0.707   2.724  0.0714 -0.0555 -0.6989
 6068SOL     OW23050   1.170   1.670   3.519  0.3462 -0.1854  0.3659
 6068SOL    HW123051   1.160   1.602   3.452  1.5942  0.1306 -0.1558
 6068SOL    HW223052   1.157   1.624   3.602  0.2096 -0.8677 -0.0275
 6069SOL     OW23053   1.113   0.802   2.875  0.5122  0.0466 -0.0757
 6069SOL    HW123054   1.083   0.811   2.966  0.6460 -1.4013  0.1250
 6069SOL    HW223055   1.208   0.817   2.880  0.3285  1.3587 -0.2084
 6070SOL     OW23056   2.372   1.013   2.063 -0.3144 -0.0515 -0.2338
 6070SOL    HW123057   2.332   1.099   2.046  0.3668 -0.0083 -1.7388
 6070SOL    HW223058   2.367   0.968   1.979 -0.9282 -1.6101  0.6303
 6071SOL     OW23059   3.237   2.572   3.097 -0.4539  0.0033  0.0882
 6071SOL    HW123060   3.270   2.628   3.167 -2.2104  0.5217  0.5348
 6071SOL    HW223061   3.241   2.483   3.134  0.9435 -0.0201 -0.0819
 6072SOL     OW23062   4.399   3.040   3.872 -0.4281  0.3253 -0.1349
 6072SOL    HW123063   4.476   3.087   3.840 -0.0488  0.5074  1.0505
 6072SOL    HW223064   4.327   3.102   3.860 -0.3111  0.3480 -0.7447
 6073SOL     OW23065   3.337   1.936   4.466 -0.2905 -0.1397  0.2213
 6073SOL    HW123066   3.281   1.942   4.543 -0.3511  1.9642  0.0508
 6073SOL    HW223067   3.366   2.026   4.450  2.3587 -1.0359 -0.2753
 6074SOL     OW23068   4.159   0.926   1.102  0.2696  0.2579 -0.4903
 6074SOL    HW123069   4.243   0.892   1.072 -0.0319 -0.7447 -0.2330
 6074SOL    HW223070   4.095   0.889   1.042  0.1089  1.8444 -1.3020
 6075SOL     OW23071   2.410   2.802   2.383 -0.2390  0.1242 -0.1632
 6075SOL    HW123072   2.324   2.770   2.412 -1.2153 -0.3702 -3.4292
 6075SOL    HW223073   2.463   2.723   2.372  0.4975  0.3911  1.2847
 6076SOL     OW23074   1.256   0.880   2.587  0.1105 -0.4145 -0.8202
 6076SOL    HW123075   1.252   0.910   2.678 -0.9736 -0.8227 -0.7245
 6076SOL    HW223076   1.314   0.942   2.543 -1.0312  1.0210 -0.3203
 6077SOL     OW23077   3.006   0.451   2.687  0.7810 -0.0614  0.8719
 6077SOL    HW123078   3.097   0.481   2.693  0.8598 -0.5376  2.3761
 6077SOL    HW223079   2.984   0.459   2.595  1.8713  1.4859  0.7191
 6078SOL     OW23080   1.885   1.296   2.633 -0.1905 -0.0568  0.0002
 6078SOL    HW123081   1.960   1.264   2.583 -0.8942 -1.1192 -0.4174
 6078SOL    HW223082   1.913   1.291   2.724  0.5274  0.3166 -0.2006
 6079SOL     OW23083   4.149   9.940   4.329  0.4774  0.4442 -0.3060
 6079SOL    HW123084   4.130   9.978   4.415 -0.0194  0.4225 -0.4022
 6079SOL    HW223085   4.063   9.933   4.287  0.5998 -0.5515 -0.3866
 6080SOL     OW23086   4.215   0.093   4.580  0.4568 -0.1947 -0.0731
 6080SOL    HW123087   4.279   0.150   4.536 -0.2871  1.0103  0.3673
 6080SOL    HW223088   4.260   0.063   4.659 -0.0457  1.9105  1.0451
 6081SOL     OW23089   0.722   1.486   2.221  0.0553  0.7542 -0.2764
 6081SOL    HW123090   0.660   1.550   2.256 -0.1080  0.2731  0.3179
 6081SOL    HW223091   0.669   1.407   2.208  0.7832 -0.0080  1.2995
 6082SOL     OW23092   2.394   1.130   3.870 -0.5223  0.0658  0.1333
 6082SOL    HW123093   2.380   1.039   3.843 -0.7113  0.0493  0.2850
 6082SOL    HW223094   2.340   1.181   3.810 -1.4050 -0.0147  0.8630
 6083SOL     OW23095   0.833   1.860   2.787 -0.4787 -0.5545  0.2966
 6083SOL    HW123096   0.873   1.935   2.830 -0.7068 -1.0762  1.4437
 6083SOL    HW223097   0.808   1.802   2.859 -0.2630 -1.7418 -0.5729
 6084SOL     OW23098   1.571   1.549   2.684 -0.0041  0.4481 -0.0798
 6084SOL    HW123099   1.530   1.499   2.755  0.9251 -0.8244 -0.4146
 6084SOL    HW223100   1.545   1.503   2.604  2.1822 -0.4957 -0.2823
 6085SOL     OW23101   3.854   1.564   2.765  0.0105 -0.2930 -0.1217
 6085SOL    HW123102   3.792   1.523   2.705 -0.1652  0.0415 -0.1744
 6085SOL    HW223103   3.818   1.652   2.780  2.2672  1.2134 -2.9057
 6086SOL     OW23104   2.324   3.200   2.849  0.1025 -0.2424 -0.1447
 6086SOL    HW123105   2.231   3.212   2.870 -0.4225 -1.3764 -1.6999
 6086SOL    HW223106   2.349   3.121   2.897 -0.2925 -1.0872 -1.2927
 6087SOL     OW23107   2.348   0.315   3.423 -0.1878  0.1538  0.3142
 6087SOL    HW123108   2.259   0.279   3.415  0.2177 -0.9308  0.5517
 6087SOL    HW223109   2.347   0.364   3.505 -1.2669  2.2339 -0.8898
 6088SOL     OW23110   2.124   0.747   1.981  0.0626  0.2566 -0.1858
 6088SOL    HW123111   2.175   0.812   1.931 -1.5608  0.5808 -1.4813
 6088SOL    HW223112   2.092   0.686   1.914  0.1055 -0.8697  0.8153
 6089SOL     OW23113   3.673   0.187   1.657 -0.0906 -0.1567  0.0561
 6089SOL    HW123114   3.628   0.103   1.651  2.2556 -1.4450 -0.2308
 6089SOL    HW223115   3.732   0.177   1.731  0.8059  0.9429 -0.4951
 6090SOL     OW23116   2.256   9.995   2.844  0.4255 -0.1530 -0.5753
 6090SOL    HW123117   2.163   9.979   2.826 -0.0769  0.9989  0.9543
 6090SOL    HW223118   2.288  10.039   2.765 -0.7112  0.8760 -0.4762
 6091SOL     OW23119   1.080   9.843   2.621 -0.4885  0.0619  0.1808
 6091SOL    HW123120   1.103   9.889   2.702  1.3030  0.8851 -0.7722
 6091SOL    HW223121   1.070   9.752   2.648 -0.9329  0.4825  1.5146
 6092SOL     OW23122   3.750   1.047   3.739 -0.1548  0.3609  0.2274
 6092SOL    HW123123   3.795   0.969   3.772 -1.5513  0.3217  2.1816
 6092SOL    HW223124   3.727   1.026   3.649 -1.0228 -1.7562  0.9024
 6093SOL     OW23125   1.926   9.903   2.147 -0.0081  0.1045  0.6501
 6093SOL    HW123126   1.861   9.840   2.179  0.3458 -0.2431  0.6926
 6093SOL    HW223127   1.877   9.983   2.134 -0.9275 -0.7805 -1.5384
 6094SOL     OW23128   2.138   0.923   4.439  0.3335  0.9266  0.2279
 6094SOL    HW123129   2.163   0.944   4.349  0.5973  2.3887  0.6279
 6094SOL    HW223130   2.208   0.961   4.492 -0.9666  2.0404  1.1635
 6095SOL     OW23131   2.414   1.161   2.580  0.3997 -0.2930 -0.2204
 6095SOL    HW123132   2.443   1.123   2.497  1.3917 -1.0526  0.4534
 6095SOL    HW223133   2.444   1.098   2.646  0.3120  0.6877  0.7682
 6096SOL     OW23134   2.449   0.960   2.781  0.3574 -0.0920 -0.5566
 6096SOL    HW123135   2.377   0.901   2.758 -0.6538  1.1096 -0.5263
 6096SOL    HW223136   2.524   0.902   2.796 -0.5523 -1.3427 -0.7827
 6097SOL     OW23137   3.306   1.838   2.232  0.2424 -0.1421  0.0311
 6097SOL    HW123138   3.303   1.934   2.225  1.1135 -0.1465 -0.4135
 6097SOL    HW223139   3.362   1.821   2.308  0.3831 -0.3072 -0.1093
 6098SOL     OW23140   1.579   0.565   3.815 -0.3855 -0.6668  0.1523
 6098SOL    HW123141   1.484   0.560   3.817 -0.5408  1.9108  1.4541
 6098SOL    HW223142   1.604   0.581   3.906  1.0748  1.4391 -0.5836
 6099SOL     OW23143   1.818   0.576   3.386  0.0602  0.5244 -0.3477
 6099SOL    HW123144   1.883   0.646   3.378 -1.2508  2.0153  1.7059
 6099SOL    HW223145   1.807   0.563   3.480 -1.9808 -0.3079 -0.6737
 6100SOL     OW23146   3.698   0.404   2.259 -0.5704 -0.1714 -0.0017
 6100SOL    HW123147   3.706   0.474   2.324 -0.1166 -1.6717  1.6185
 6100SOL    HW223148   3.610   0.368   2.274 -0.7878  0.0091 -0.8030
 6101SOL     OW23149   2.878   1.099   2.311  0.4321 -0.0966  0.2037
 6101SOL    HW123150   2.948   1.038   2.289  0.3773 -0.2920  0.5619
 6101SOL    HW223151   2.860   1.146   2.229  0.6069 -0.4233 -0.0231
 6102SOL     OW23152   0.943   0.734   2.365  0.1296 -0.0348 -0.6684
 6102SOL    HW123153   0.915   0.823   2.344 -1.9334 -0.9039 -1.6769
 6102SOL    HW223154   0.870   0.696   2.412  0.1027 -1.9217 -2.1957
 6103SOL     OW23155   3.501   1.441   3.319  0.0710  0.0052  0.2014
 6103SOL    HW123156   3.533   1.364   3.272 -0.2357 -1.1379  1.8153
 6103SOL    HW223157   3.461   1.405   3.398  1.1724  1.9060  1.6628
 6104SOL     OW23158   2.827   1.547   3.645  0.4772 -0.2521 -0.2909
 6104SOL    HW123159   2.751   1.534   3.701 -1.1451  3.0683 -1.5722
 6104SOL    HW223160   2.791   1.562   3.558  2.8205 -2.5073 -1.7071
 6105SOL     OW23161   2.281   1.893   1.334  0.2980  0.2662  0.1965
 6105SOL    HW123162   2.206   1.940   1.298  0.2932  0.2314  0.1596
 6105SOL    HW223163   2.261   1.801   1.317  0.8952  0.3253 -0.8888
 6106SOL     OW23164   3.793   0.152   2.734 -0.2499 -0.3687  0.3597
 6106SOL    HW123165   3.714   0.202   2.713  0.8338  0.8177 -1.0476
 6106SOL    HW223166   3.840   0.207   2.796  0.4135 -0.1416 -0.3378
 6107SOL     OW23167   3.913   2.290   3.525  0.1827 -0.2067  0.1363
 6107SOL    HW123168   3.988   2.260   3.475 -0.7484 -0.3808 -1.1647
 6107SOL    HW223169   3.854   2.215   3.528 -0.9828  0.6543 -0.8846
 6108SOL     OW23170   3.647   2.316   3.265  0.5498  0.5723  0.4031
 6108SOL    HW123171   3.741   2.322   3.247  0.5957 -1.6393 -0.2975
 6108SOL    HW223172   3.639   2.240   3.323 -0.6652  1.5832  1.5664
 6109SOL     OW23173   2.282   9.861   1.805 -0.4857 -0.2722 -0.0696
 6109SOL    HW123174   2.203   9.906   1.834 -2.1091 -1.4345 -2.5233
 6109SOL    HW223175   2.332   9.928   1.758 -1.2626 -0.1431 -0.7311
 6110SOL     OW23176   1.827   0.447   1.940  0.0077 -0.0463 -0.1729
 6110SOL    HW123177   1.789   0.530   1.911 -0.7483 -0.5711 -0.7230
 6110SOL    HW223178   1.796   0.383   1.875  0.0304 -0.8637  0.6155
 6111SOL     OW23179   2.315   1.675   3.161 -0.0227 -0.0704  0.1426
 6111SOL    HW123180   2.365   1.601   3.129  1.0423  0.2846  0.9358
 6111SOL    HW223181   2.313   1.737   3.088 -1.0542 -0.9289 -0.5754
 6112SOL     OW23182   4.786   2.257   1.721  0.0499 -0.0533 -0.5205
 6112SOL    HW123183   4.766   2.277   1.813  0.4836 -1.0679 -0.2051
 6112SOL    HW223184   4.703   2.273   1.676  0.4371  2.7523 -0.3465
 6113SOL     OW23185   3.116   0.362   3.116  0.2984  0.0764 -0.1495
 6113SOL    HW123186   3.035   0.389   3.073  0.4236  0.3566 -0.2143
 6113SOL    HW223187   3.183   0.419   3.077  0.7300 -0.9825 -0.9984
 6114SOL     OW23188   2.916   0.900   2.932 -0.2554  0.5840 -0.2167
 6114SOL    HW123189   2.862   0.886   2.854 -0.0383  0.5654 -0.3649
 6114SOL    HW223190   2.959   0.984   2.917  1.3789 -0.3683 -1.0613
 6115SOL     OW23191   2.857   0.144   1.244  0.0119 -0.5244 -0.0859
 6115SOL    HW123192   2.843   0.155   1.338 -0.9912  2.2171 -0.5391
 6115SOL    HW223193   2.936   0.195   1.225 -0.7732  0.3673 -1.0257
 6116SOL     OW23194   4.086   0.432   1.543  0.1863  0.0198 -0.0031
 6116SOL    HW123195   4.141   0.355   1.561 -1.4277 -0.8317  1.5392
 6116SOL    HW223196   4.026   0.403   1.474 -0.0567  0.0562  0.1904
 6117SOL     OW23197   1.036   1.509   2.448 -0.2318  0.2652 -0.7900
 6117SOL    HW123198   1.023   1.572   2.519 -0.9515 -1.1301  0.3593
 6117SOL    HW223199   1.078   1.559   2.379 -0.3470  1.8881  0.2741
 6118SOL     OW23200   0.028   0.749   3.880 -0.6830  0.1958 -0.5824
 6118SOL    HW123201   0.083   0.690   3.932  0.8288 -0.9841 -3.3962
 6118SOL    HW223202  -0.052   0.699   3.863 -0.0275 -0.5009 -1.6880
 6119SOL     OW23203   1.451   1.132   2.826 -0.3897 -0.2635  0.5640
 6119SOL    HW123204   1.541   1.123   2.797 -0.2642 -0.7684  1.1017
 6119SOL    HW223205   1.428   1.046   2.861  0.1620  0.9057  3.9685
 6120SOL     OW23206   1.556   0.164   0.599  0.4271  0.5489 -0.2334
 6120SOL    HW123207   1.612   0.218   0.654 -1.6456  1.7732  0.7420
 6120SOL    HW223208   1.514   0.225   0.539 -0.8016 -0.1474 -0.1141
 6121SOL     OW23209   3.274   0.540   3.954 -0.4239  0.3734  0.3145
 6121SOL    HW123210   3.228   0.620   3.928  0.9854  0.9392 -0.5239
 6121SOL    HW223211   3.279   0.488   3.874  1.7685  1.0353 -0.0179
 6122SOL     OW23212   1.338   1.658   2.066 -0.3959 -0.3712 -0.4336
 6122SOL    HW123213   1.318   1.565   2.051 -0.7002 -0.4403  0.3948
 6122SOL    HW223214   1.258   1.694   2.104  0.1251 -0.0427  0.3626
 6123SOL     OW23215   2.719   0.035   1.989 -0.2371 -0.1608 -0.1770
 6123SOL    HW123216   2.769   0.108   2.028 -0.7318 -1.0125  2.1323
 6123SOL    HW223217   2.781  -0.038   1.988 -0.5223 -0.3986 -0.1433
 6124SOL     OW23218   2.911   1.597   4.055 -0.5559  0.1570  0.6645
 6124SOL    HW123219   2.895   1.608   4.149  1.8156 -0.0803  1.1398
 6124SOL    HW223220   2.906   1.502   4.041 -1.2727  0.2214  0.4753
 6125SOL     OW23221   3.769   0.765   4.792  0.4381 -0.4226 -0.0715
 6125SOL    HW123222   3.753   0.702   4.862  1.8370 -0.4134  0.2678
 6125SOL    HW223223   3.813   0.714   4.724 -1.3490 -0.5542 -1.1883
 6126SOL     OW23224   2.927   2.104   3.690  0.1726 -0.1026 -0.4372
 6126SOL    HW123225   2.931   2.164   3.615  0.9051 -1.0994 -1.2096
 6126SOL    HW223226   2.863   2.038   3.664 -2.3254  1.5517  1.3372
 6127SOL     OW23227   3.194   2.193   2.706  0.0278 -0.8761 -0.1511
 6127SOL    HW123228   3.272   2.140   2.692 -0.7322 -2.4874  1.4994
 6127SOL    HW223229   3.178   2.187   2.800  0.8643  3.6869  0.3716
 6128SOL     OW23230   2.110   1.247   4.049  0.3275 -0.0122  0.2241
 6128SOL    HW123231   2.090   1.240   3.955 -1.1696 -1.1675  0.6026
 6128SOL    HW223232   2.112   1.341   4.066 -0.4274  0.1912 -0.7659
 6129SOL     OW23233   2.332   9.458   2.814  0.1652  0.3645 -0.0461
 6129SOL    HW123234   2.296   9.464   2.725 -1.0960 -0.4628  0.3939
 6129SOL    HW223235   2.348   9.549   2.840  0.6649  0.6005 -1.1661
 6130SOL     OW23236   3.138   0.740   3.484 -0.3053 -0.5548  0.1861
 6130SOL    HW123237   3.202   0.722   3.416  0.1843  0.6803  0.3188
 6130SOL    HW223238   3.181   0.713   3.566 -1.1400 -2.6681 -0.0261
 6131SOL     OW23239   2.639   2.162   3.193 -0.2926  0.7373 -0.1621
 6131SOL    HW123240   2.563   2.179   3.248 -0.5923  0.6265 -0.5359
 6131SOL    HW223241   2.626   2.217   3.116  0.3933  1.2950  0.1175
 6132SOL     OW23242   3.032   2.367   1.371  0.2634  0.0163 -0.2296
 6132SOL    HW123243   3.077   2.286   1.348  1.6196  0.3960  1.0431
 6132SOL    HW223244   3.091   2.437   1.344 -0.6044  0.5807 -0.7058
 6133SOL     OW23245   2.052   2.272   3.033 -0.1657 -0.9299 -0.0469
 6133SOL    HW123246   2.081   2.191   2.992 -2.4233 -1.8192  0.0466
 6133SOL    HW223247   1.994   2.313   2.969 -1.3858 -0.8746  1.0580
 6134SOL     OW23248   2.747   0.810   1.411 -0.1220 -0.2197 -0.1205
 6134SOL    HW123249   2.656   0.836   1.401 -0.3641 -1.8682 -2.7943
 6134SOL    HW223250   2.747   0.752   1.487 -1.0172  0.9400  0.7835
 6135SOL     OW23251   4.319   1.630   2.305  0.1254 -0.1822  0.9336
 6135SOL    HW123252   4.261   1.560   2.276  0.7126 -0.3099  0.0322
 6135SOL    HW223253   4.263   1.690   2.355 -0.5163 -0.9335  1.1160
 6136SOL     OW23254   0.878   0.948   2.881  0.2018  0.2688  0.0605
 6136SOL    HW123255   0.964   0.908   2.870  0.0485 -0.0907  0.1842
 6136SOL    HW223256   0.826   0.882   2.925 -0.3254  0.2395 -0.6058
 6137SOL     OW23257   1.800   0.903   3.364 -0.5733 -0.1457 -0.6494
 6137SOL    HW123258   1.837   0.967   3.425 -1.8316  0.1971 -0.2477
 6137SOL    HW223259   1.877   0.862   3.323  0.2919 -0.7727  1.5480
 6138SOL     OW23260   2.295   3.457   4.497 -0.1017  0.1237  0.4360
 6138SOL    HW123261   2.265   3.382   4.549  0.8983 -0.1513  0.6299
 6138SOL    HW223262   2.219   3.514   4.491 -1.2227 -1.4432 -0.6688
 6139SOL     OW23263   3.505   9.740   2.360  0.6989  0.4489  0.7848
 6139SOL    HW123264   3.532   9.653   2.329 -0.1184 -0.3234  2.1728
 6139SOL    HW223265   3.414   9.729   2.387  0.3345  1.9532  0.2271
 6140SOL     OW23266   2.498   0.197   2.415 -0.4620 -0.1037 -0.2161
 6140SOL    HW123267   2.523   0.277   2.368  0.1951 -0.7156 -0.9145
 6140SOL    HW223268   2.555   0.195   2.491 -1.4143  0.8021  0.5373
 6141SOL     OW23269   3.428   1.584   3.662  0.2079 -0.6213  0.8205
 6141SOL    HW123270   3.435   1.501   3.709 -0.4144 -0.4365  1.2442
 6141SOL    HW223271   3.437   1.559   3.570 -1.8760 -1.4424  0.7985
 6142SOL     OW23272   1.708   1.621   2.459 -0.2609 -0.2206 -0.7452
 6142SOL    HW123273   1.797   1.592   2.479 -1.1912 -2.3239  0.5351
 6142SOL    HW223274   1.662   1.616   2.543 -1.6551  0.6198 -1.4360
 6143SOL     OW23275   1.979   9.823   3.375 -0.5873 -0.2434 -0.4036
 6143SOL    HW123276   2.067   9.800   3.346  0.0792  1.5701  0.1506
 6143SOL    HW223277   1.929   9.834   3.294  0.1902  0.6716 -0.7538
 6144SOL     OW23278   1.777   8.978   1.659  0.0896  0.0764  0.0731
 6144SOL    HW123279   1.844   8.919   1.625  2.1047  2.0708  0.4289
 6144SOL    HW223280   1.731   8.927   1.725  0.2007 -1.8408 -1.2896
 6145SOL     OW23281   2.128   0.255   1.685 -0.2753 -0.2125  0.4349
 6145SOL    HW123282   2.120   0.180   1.745 -0.4570  0.2770  1.0249
 6145SOL    HW223283   2.126   0.331   1.742 -1.9267  0.3237 -0.3237
 6146SOL     OW23284   3.298   0.562   3.305 -0.1026  0.0634 -0.3313
 6146SOL    HW123285   3.296   0.556   3.210 -1.6950 -1.1634 -0.2439
 6146SOL    HW223286   3.303   0.471   3.335  0.6545  0.4473  0.7680
 6147SOL     OW23287   2.111   0.017   1.514 -0.4655  0.1727 -0.5801
 6147SOL    HW123288   2.037  -0.039   1.538  0.3098 -1.1077 -1.1569
 6147SOL    HW223289   2.087   0.103   1.548 -1.8801 -0.3951 -0.0932
 6148SOL     OW23290   3.697   9.306   2.341 -0.7173 -0.1320  0.1329
 6148SOL    HW123291   3.696   9.319   2.246 -1.1656  1.0898  0.2930
 6148SOL    HW223292   3.730   9.217   2.353  1.4181  0.4757 -1.0800
 6149SOL     OW23293   9.598   9.693   2.934  0.0377 -0.1567 -0.4410
 6149SOL    HW123294   9.526   9.668   2.875 -0.9431  2.1084 -0.2602
 6149SOL    HW223295   9.604   9.788   2.926  2.1592 -0.1636  0.5675
 6150SOL     OW23296   1.947   0.864   2.514 -0.2842  0.1645 -0.2173
 6150SOL    HW123297   1.860   0.860   2.555  0.9827  0.8059  2.6277
 6150SOL    HW223298   1.965   0.957   2.506  0.2376  0.0275 -0.6286
 6151SOL     OW23299   2.381   0.184   4.054 -0.1998 -0.4931  0.1010
 6151SOL    HW123300   2.330   0.154   4.129 -1.3935 -1.1817 -0.9661
 6151SOL    HW223301   2.329   0.158   3.978  0.9077  0.3513 -0.9613
 6152SOL     OW23302   0.800   0.754   5.998 -0.4938 -0.5392  0.4467
 6152SOL    HW123303   0.723   0.713   5.960 -1.5252  1.0532  0.7581
 6152SOL    HW223304   0.865   0.754   5.928 -1.7064  0.5663 -0.7068
 6153SOL     OW23305   3.342   0.743   3.680 -0.3030  0.4752  0.4929
 6153SOL    HW123306   3.425   0.758   3.634 -0.7639  0.4833 -0.3299
 6153SOL    HW223307   3.355   0.785   3.765  0.9383 -0.4441  0.7900
 6154SOL     OW23308   2.050   0.760   4.122 -0.2202 -0.1238 -0.0924
 6154SOL    HW123309   2.137   0.722   4.116 -0.4206 -0.6119  0.1172
 6154SOL    HW223310   1.993   0.688   4.147 -1.3460 -0.7322 -3.9643
 6155SOL     OW23311   3.540   1.533   2.311 -0.6929 -0.1343  0.2449
 6155SOL    HW123312   3.611   1.474   2.284 -1.0001 -0.4780  0.1919
 6155SOL    HW223313   3.477   1.476   2.355 -2.1597 -0.2739 -1.9553
 6156SOL     OW23314   1.745   3.140   4.149  0.1312  0.1461 -0.0857
 6156SOL    HW123315   1.661   3.169   4.185  0.5898  1.1506  0.1958
 6156SOL    HW223316   1.768   3.063   4.200 -0.4298  0.1025  0.1014
 6157SOL     OW23317   3.016   1.985   5.750 -0.6713 -0.1958  0.0495
 6157SOL    HW123318   2.953   1.962   5.682 -1.6777  0.2628  0.8122
 6157SOL    HW223319   2.963   2.027   5.818  0.5827  0.9780  0.3162
 6158SOL     OW23320   4.194   3.247   3.821 -0.2246 -0.4609  0.0093
 6158SOL    HW123321   4.102   3.253   3.846 -0.2568 -1.9018  0.2514
 6158SOL    HW223322   4.194   3.262   3.726 -0.6739 -0.2145  0.0453
 6159SOL     OW23323   3.703   0.322   4.786 -0.2809  0.6229  0.0172
 6159SOL    HW123324   3.749   0.393   4.830  2.1011  0.4520 -2.0779
 6159SOL    HW223325   3.619   0.360   4.761  0.7802  2.5788 -0.6913
 6160SOL     OW23326   1.745   9.655   5.297  0.7431  0.1878  0.5336
 6160SOL    HW123327   1.678   9.622   5.237  0.8148  0.3968  0.3388
 6160SOL    HW223328   1.815   9.589   5.294  1.0448  0.5409 -0.1304
 6161SOL     OW23329   2.874   0.867   5.251 -0.1733  0.2327 -0.0510
 6161SOL    HW123330   2.809   0.841   5.316  0.8540  1.5237  1.5299
 6161SOL    HW223331   2.871   0.962   5.250  3.6958  0.5023  2.2333
 6162SOL     OW23332   2.592   1.106   5.441  0.0587 -0.4306 -0.1043
 6162SOL    HW123333   2.567   1.096   5.533  0.7501  0.8313  0.2199
 6162SOL    HW223334   2.580   1.018   5.404 -2.3708 -0.4539  0.6501
 6163SOL     OW23335   3.556   0.445   3.712  0.1328 -0.5473  0.1455
 6163SOL    HW123336   3.574   0.480   3.624  2.3914 -2.9327 -0.4139
 6163SOL    HW223337   3.619   0.490   3.769 -1.0492  0.6908  0.4986
 6164SOL     OW23338   0.460   1.214   4.036  0.3584 -0.1535  0.4307
 6164SOL    HW123339   0.488   1.131   3.997 -1.2385 -0.5661  0.0932
 6164SOL    HW223340   0.459   1.197   4.130 -0.5054 -0.7247  0.3316
 6165SOL     OW23341   3.887   0.643   4.158  0.0877  0.4324 -0.2588
 6165SOL    HW123342   3.946   0.699   4.108 -0.0883  0.2839 -0.6331
 6165SOL    HW223343   3.945   0.594   4.216  0.4096 -0.3140 -1.2048
 6166SOL     OW23344   0.957   9.187   3.050 -0.0982 -0.5842  0.0619
 6166SOL    HW123345   0.907   9.267   3.065  1.6790  0.5037  0.2530
 6166SOL    HW223346   0.951   9.173   2.955  0.4365  0.3386 -0.1123
 6167SOL     OW23347   0.578   1.237   3.106  0.4287  0.1698  0.7335
 6167SOL    HW123348   0.564   1.270   3.195 -1.4128 -0.1914  0.6019
 6167SOL    HW223349   0.617   1.151   3.117  0.1224  0.0916  1.2030
 6168SOL     OW23350   0.821   0.813   5.089  0.0597 -0.1086 -0.0801
 6168SOL    HW123351   0.783   0.729   5.116  0.6990  0.0729  1.4365
 6168SOL    HW223352   0.896   0.789   5.034  1.4301 -0.6056  1.9389
 6169SOL     OW23353   4.247   9.579   2.885  0.4834  0.3571  0.0211
 6169SOL    HW123354   4.278   9.491   2.868  0.0717  0.5239 -1.7639
 6169SOL    HW223355   4.152   9.570   2.895  0.5944  0.4196  1.1312
 6170SOL     OW23356   3.819   9.580   6.884 -0.4909 -0.6572 -0.4155
 6170SOL    HW123357   3.767   9.516   6.933 -0.4395 -0.4791 -0.1257
 6170SOL    HW223358   3.869   9.627   6.952 -0.9688  0.0888 -0.5712
 6171SOL     OW23359   4.442   1.783   3.593 -0.0255  0.3686 -0.0678
 6171SOL    HW123360   4.417   1.752   3.507  0.4527 -0.9020  0.2332
 6171SOL    HW223361   4.508   1.720   3.623  0.4718  1.2938  0.8529
 6172SOL     OW23362   3.432   0.366   4.712  0.3616  0.1680 -0.3575
 6172SOL    HW123363   3.424   0.458   4.735 -0.5770  0.0184 -0.0689
 6172SOL    HW223364   3.424   0.364   4.617 -2.4480  0.1174 -0.1699
 6173SOL     OW23365   3.423   0.729   4.304 -0.0452 -0.5251  0.3277
 6173SOL    HW123366   3.459   0.780   4.377 -1.3743 -1.8912  1.9823
 6173SOL    HW223367   3.330   0.750   4.303 -0.4933 -2.3748  0.6183
 6174SOL     OW23368   2.709   0.571   3.810  0.1020  0.0645  0.5217
 6174SOL    HW123369   2.651   0.526   3.871 -0.1016  1.3133  1.2766
 6174SOL    HW223370   2.733   0.504   3.745 -0.3841 -1.0430  1.4662
 6175SOL     OW23371   2.963   0.158   5.740 -0.2515  0.1210  0.1745
 6175SOL    HW123372   2.904   0.187   5.670  0.9652 -1.8041 -1.7339
 6175SOL    HW223373   2.908   0.101   5.795 -0.5001 -0.7327 -0.9341
 6176SOL     OW23374   3.497   0.532   4.109  0.5744  0.3865 -0.3030
 6176SOL    HW123375   3.473   0.582   4.186  0.1391 -1.2458  0.6342
 6176SOL    HW223376   3.414   0.516   4.063  0.2711 -2.1667  1.0609
 6177SOL     OW23377   3.983   1.526   3.203  0.1467  0.1064 -0.0019
 6177SOL    HW123378   4.015   1.613   3.181 -0.7559  0.5793  0.5445
 6177SOL    HW223379   3.909   1.512   3.143  0.8616 -0.6640 -0.7240
 6178SOL     OW23380   2.158   1.017   4.186  0.3329 -0.1367 -0.2052
 6178SOL    HW123381   2.141   1.088   4.125 -0.4267  0.1390  0.3266
 6178SOL    HW223382   2.111   0.942   4.150 -0.1229  0.0286  0.0351
 6179SOL     OW23383   4.306   1.577   3.123  0.5331 -0.0809 -0.1442
 6179SOL    HW123384   4.234   1.536   3.170 -0.5049 -0.5234 -2.0638
 6179SOL    HW223385   4.340   1.507   3.065  1.0723  0.7405 -0.8355
 6180SOL     OW23386   2.795   0.265   3.999 -0.4617  0.5795  0.0552
 6180SOL    HW123387   2.851   0.338   4.027  2.2076  0.2437 -3.8786
 6180SOL    HW223388   2.807   0.199   4.067  2.0286  1.4840  0.5714
 6181SOL     OW23389   3.095   1.479   4.701 -0.4464  0.1331  0.5687
 6181SOL    HW123390   3.141   1.498   4.619  1.4313 -0.7825  1.3658
 6181SOL    HW223391   3.140   1.532   4.766 -0.0292 -1.2991  1.4822
 6182SOL     OW23392   5.007   1.665   2.324 -0.2400  0.3220 -0.6868
 6182SOL    HW123393   4.961   1.695   2.245 -0.2272 -0.0551 -0.8380
 6182SOL    HW223394   4.958   1.705   2.396  0.5969  1.8275 -0.9317
 6183SOL     OW23395   1.776   1.272   4.936 -0.0701  0.2668 -0.1968
 6183SOL    HW123396   1.739   1.186   4.958  1.3001 -0.0788  0.7810
 6183SOL    HW223397   1.709   1.334   4.964  0.2019 -0.3417  1.8971
 6184SOL     OW23398   6.192   1.610   2.320  0.2983 -0.4606 -0.6773
 6184SOL    HW123399   6.278   1.568   2.317  0.9029  0.3852  2.4421
 6184SOL    HW223400   6.202   1.688   2.265  1.0700 -1.1775 -1.5571
 6185SOL     OW23401   4.203   9.754   4.755  0.1933 -0.4075  0.7971
 6185SOL    HW123402   4.108   9.764   4.750  0.2507 -0.2257  0.0754
 6185SOL    HW223403   4.235   9.841   4.780  0.2466 -0.2387  0.1306
 6186SOL     OW23404   4.352   2.461   7.466 -0.2839  0.1175  0.3164
 6186SOL    HW123405   4.264   2.498   7.451 -0.3106  0.0942  0.4197
 6186SOL    HW223406   4.340   2.398   7.537 -0.5163 -1.1503 -0.8264
 6187SOL     OW23407   2.000   1.037   5.063  0.3907 -0.4337  0.4100
 6187SOL    HW123408   1.940   1.082   5.122  0.6949 -0.2181  0.5536
 6187SOL    HW223409   1.984   1.077   4.977  1.2942  0.5758  0.7032
 6188SOL     OW23410   1.705   1.297   3.345 -0.2484  0.1311  0.2247
 6188SOL    HW123411   1.748   1.223   3.302  0.1902 -0.0611  0.9735
 6188SOL    HW223412   1.681   1.264   3.431 -1.3196  0.4401  0.0583
 6189SOL     OW23413   3.268   2.865   4.542  0.1108  0.4958  0.0804
 6189SOL    HW123414   3.322   2.798   4.500  0.8544  1.3279 -0.3028
 6189SOL    HW223415   3.252   2.930   4.473  4.0500  3.5291  1.8605
 6190SOL     OW23416   3.727   2.095   3.422  0.3300 -0.3888 -0.0040
 6190SOL    HW123417   3.718   2.034   3.349  0.7105 -1.5292  0.8740
 6190SOL    HW223418   3.694   2.046   3.498  1.7369  0.0611  0.9253
 6191SOL     OW23419   4.271   1.273   5.883 -0.0926  0.4895 -0.3281
 6191SOL    HW123420   4.351   1.230   5.915  1.2672 -0.8323 -5.1379
 6191SOL    HW223421   4.200   1.218   5.917  1.1549 -0.2364  1.2226
 6192SOL     OW23422   2.091   0.207   4.205 -0.3254 -0.0912  0.0134
 6192SOL    HW123423   2.054   0.158   4.132  0.5451  1.5821 -1.5965
 6192SOL    HW223424   2.048   0.171   4.283 -2.8546 -0.4832 -1.5106
 6193SOL     OW23425   2.654   3.046   3.058 -0.2734  0.1993 -0.0509
 6193SOL    HW123426   2.705   2.966   3.071  0.4783  0.4044 -1.5462
 6193SOL    HW223427   2.563   3.016   3.055  0.0015 -0.6067 -0.5806
 6194SOL     OW23428   9.638   0.232   4.864  0.3861 -0.0049  0.2289
 6194SOL    HW123429   9.642   0.240   4.769  1.5802 -1.3721  0.1429
 6194SOL    HW223430   9.686   0.307   4.897  0.3019  0.2647 -0.2601
 6195SOL     OW23431   2.404   1.658   5.390  0.0353  0.0636 -0.1933
 6195SOL    HW123432   2.392   1.605   5.312 -1.9164  0.6607 -0.3126
 6195SOL    HW223433   2.349   1.735   5.377 -0.1065  0.3120  1.6432
 6196SOL     OW23434   3.345   0.635   4.691 -0.0974 -0.0424 -0.4972
 6196SOL    HW123435   3.282   0.701   4.718  0.8563  0.2479  1.0845
 6196SOL    HW223436   3.409   0.682   4.637 -1.0838 -0.2940 -1.9121
 6197SOL     OW23437   2.541   9.048   4.172  0.4681  0.1560 -0.3872
 6197SOL    HW123438   2.491   8.976   4.209 -0.2652  0.7590 -0.1931
 6197SOL    HW223439   2.475   9.111   4.143  1.1192  1.1688  0.3024
 6198SOL     OW23440   0.977   0.636   7.943  0.1770  0.2972  0.3593
 6198SOL    HW123441   0.881   0.644   7.937  0.1948  1.7599  1.7389
 6198SOL    HW223442   1.009   0.668   7.859 -0.5255  0.2615  0.0713
 6199SOL     OW23443   2.088   2.764   3.483  0.0699  0.5378  0.4024
 6199SOL    HW123444   2.060   2.680   3.519 -0.0198  1.0163  1.4690
 6199SOL    HW223445   2.138   2.741   3.405 -1.4744 -0.4223 -0.3393
 6200SOL     OW23446   1.879   9.910   4.812 -0.3286 -0.2922 -0.3320
 6200SOL    HW123447   1.877   9.939   4.720  1.7721  0.0878 -0.2852
 6200SOL    HW223448   1.905   9.818   4.807 -0.3963 -0.3214 -0.1322
 6201SOL     OW23449   4.713   1.882   5.094 -0.4168  0.0851 -0.2316
 6201SOL    HW123450   4.624   1.860   5.064 -0.1038 -0.9536 -0.4406
 6201SOL    HW223451   4.700   1.930   5.175 -1.1982  0.6309 -0.6731
 6202SOL     OW23452   2.589   0.838   5.342  0.4164  0.3879 -0.4126
 6202SOL    HW123453   2.512   0.824   5.398  1.6222 -1.7516  0.7600
 6202SOL    HW223454   2.576   0.778   5.269  1.7776 -1.2707  0.6655
 6203SOL     OW23455   3.048   0.482   3.580  0.0151  0.4358  0.3969
 6203SOL    HW123456   3.027   0.573   3.563 -0.6015  0.0218 -1.1245
 6203SOL    HW223457   2.970   0.446   3.621 -0.5532  0.0655 -0.9813
 6204SOL     OW23458   1.646   1.288   4.506 -0.4880  0.8071 -0.7370
 6204SOL    HW123459   1.627   1.195   4.499 -0.5439  0.8136 -0.6649
 6204SOL    HW223460   1.673   1.301   4.597 -1.7983  1.1071 -0.3849
 6205SOL     OW23461   2.076   2.746   4.617  0.1733  0.4420  0.0659
 6205SOL    HW123462   2.026   2.698   4.683 -0.3948 -2.4826 -2.3790
 6205SOL    HW223463   2.068   2.693   4.537  4.7187  1.4008 -1.1757
 6206SOL     OW23464   2.950   1.378   3.837 -0.2379 -0.6487  0.2153
 6206SOL    HW123465   2.999   1.337   3.765  2.7584  0.8398  1.3193
 6206SOL    HW223466   2.908   1.454   3.797 -0.0617 -0.8429 -0.3420
 6207SOL     OW23467   3.754   2.107   4.493  0.6832  0.0905  0.2826
 6207SOL    HW123468   3.674   2.104   4.546  0.3778  2.0462 -0.0231
 6207SOL    HW223469   3.729   2.157   4.415  2.3194  1.1214  0.3953
 6208SOL     OW23470   1.675   1.728   3.224 -0.0035 -0.0402 -0.2640
 6208SOL    HW123471   1.662   1.655   3.285 -0.1167 -0.1974 -0.4775
 6208SOL    HW223472   1.719   1.795   3.276 -0.8323  0.1374  0.2179
 6209SOL     OW23473   2.710   1.006   4.629  0.1444  0.1711 -0.1353
 6209SOL    HW123474   2.785   0.961   4.590 -0.7835 -0.1900 -1.5480
 6209SOL    HW223475   2.678   0.947   4.697  0.2120 -0.3693 -0.5715
 6210SOL     OW23476   1.658   1.023   4.962  0.2517  0.2513  0.1197
 6210SOL    HW123477   1.563   1.015   4.951  0.3205  0.1607 -0.4283
 6210SOL    HW223478   1.687   0.934   4.982 -0.0038  0.5920  2.1356
 6211SOL     OW23479   2.072   0.480   4.135 -0.3814  0.7372  0.4702
 6211SOL    HW123480   1.983   0.501   4.164 -0.8850 -0.6300 -0.0589
 6211SOL    HW223481   2.073   0.385   4.128  1.1296  0.7451  0.4514
 6212SOL     OW23482   2.664   2.069   5.537 -0.0091 -0.1966 -0.0305
 6212SOL    HW123483   2.632   2.008   5.603 -1.4373  1.4764  0.8637
 6212SOL    HW223484   2.599   2.139   5.535  2.6270  2.4101  0.5586
 6213SOL     OW23485   3.294   9.475   3.532 -0.3729 -0.2274  0.3687
 6213SOL    HW123486   3.290   9.457   3.626 -0.0255 -0.0811  0.4127
 6213SOL    HW223487   3.388   9.476   3.511 -0.4995 -3.1124 -0.5357
 6214SOL     OW23488   1.779   0.306   3.225  0.1204  0.1783  0.3736
 6214SOL    HW123489   1.713   0.317   3.156 -0.0031 -2.8043 -0.0649
 6214SOL    HW223490   1.741   0.349   3.302 -1.2367  0.6445 -0.5316
 6215SOL     OW23491   4.480   2.375   2.243  0.1318  0.3922  0.3382
 6215SOL    HW123492   4.452   2.419   2.163 -1.2451 -0.5512  0.2883
 6215SOL    HW223493   4.399   2.345   2.284  0.8252  0.7554  2.0317
 6216SOL     OW23494   3.374   1.004   3.511 -0.0390  0.3361 -0.4924
 6216SOL    HW123495   3.429   0.928   3.530  0.9552  0.9543 -0.8118
 6216SOL    HW223496   3.308   1.004   3.580  1.0881  0.2695  0.6140
 6217SOL     OW23497   2.924   0.806   4.623  0.7008  0.0834  0.4245
 6217SOL    HW123498   2.935   0.737   4.557  0.2656  0.6161 -0.2198
 6217SOL    HW223499   2.867   0.768   4.689 -1.0684  0.4451 -0.8646
 6218SOL     OW23500   2.619   0.282   5.465 -0.5357 -0.1324 -0.1558
 6218SOL    HW123501   2.569   0.306   5.387  0.9332 -1.9935 -1.7566
 6218SOL    HW223502   2.564   0.218   5.510 -1.7467  1.5589  0.7835
 6219SOL     OW23503   3.267   1.545   4.494 -0.0378 -0.2079  0.1231
 6219SOL    HW123504   3.292   1.505   4.411 -2.1704  1.5190 -1.4174
 6219SOL    HW223505   3.350   1.565   4.537  1.0619 -3.0058 -0.6330
 6220SOL     OW23506   2.376   0.603   4.769 -0.0506 -0.0947  0.0896
 6220SOL    HW123507   2.417   0.531   4.817  0.6606  0.4389  0.2929
 6220SOL    HW223508   2.405   0.591   4.678 -0.0213 -0.1271  0.1029
 6221SOL     OW23509   2.239   2.421   4.758  0.2076  0.1431 -0.1507
 6221SOL    HW123510   2.164   2.437   4.701 -0.3261 -0.6982  0.2926
 6221SOL    HW223511   2.209   2.352   4.817  2.0998 -1.9221 -1.4870
 6222SOL     OW23512   2.446   0.779   2.412  0.3293 -0.2300  0.8022
 6222SOL    HW123513   2.498   0.857   2.433 -0.0064  0.4624 -0.8671
 6222SOL    HW223514   2.487   0.745   2.333 -0.2608 -1.0839  0.8653
 6223SOL     OW23515   2.133   0.995   6.056  0.2859 -0.1681 -0.7435
 6223SOL    HW123516   2.078   0.955   6.123  0.4366 -0.1932 -0.6324
 6223SOL    HW223517   2.197   0.928   6.033  0.0578 -0.2563 -1.1204
 6224SOL     OW23518   2.136   9.307   4.792 -0.2614  0.1236  0.2605
 6224SOL    HW123519   2.225   9.326   4.821  0.9574 -2.7589 -1.3816
 6224SOL    HW223520   2.101   9.248   4.859 -0.6548  0.6089  0.4852
 6225SOL     OW23521   2.499   0.591   3.513  1.0009 -0.3930 -0.1055
 6225SOL    HW123522   2.479   0.564   3.424  0.9074 -0.9283  0.0738
 6225SOL    HW223523   2.452   0.528   3.568  0.5210  0.3390  0.3187
 6226SOL     OW23524   2.434   2.068   4.426  0.3914 -0.3626  0.6708
 6226SOL    HW123525   2.498   2.012   4.382 -0.7885  1.8636 -4.2662
 6226SOL    HW223526   2.350   2.025   4.410  0.0133  0.1371  1.2996
 6227SOL     OW23527   3.002   0.386   4.993  0.4599 -0.1438 -0.1011
 6227SOL    HW123528   2.974   0.309   5.042 -2.1375 -0.2887 -1.7575
 6227SOL    HW223529   2.976   0.460   5.048  1.2017 -0.3676  0.5760
 6228SOL     OW23530   4.119   2.083   3.355  0.0513  0.2266 -0.3766
 6228SOL    HW123531   4.109   2.001   3.403  0.4793  0.1819 -0.3583
 6228SOL    HW223532   4.084   2.064   3.268  1.0476 -0.2842 -0.6844
 6229SOL     OW23533   3.613   2.832   3.362 -0.6710  0.3718 -0.6160
 6229SOL    HW123534   3.692   2.810   3.410 -0.5070 -0.7976 -1.4073
 6229SOL    HW223535   3.581   2.912   3.404  0.9136  0.8486 -0.2911
 6230SOL     OW23536   3.560   9.874   5.300  0.0682 -0.3953  0.0675
 6230SOL    HW123537   3.471   9.890   5.332  0.5452  1.0511  0.7235
 6230SOL    HW223538   3.611   9.861   5.380  0.6161 -0.2942 -0.2675
 6231SOL     OW23539   3.060   0.690   3.830  0.1633  0.0400 -0.1064
 6231SOL    HW123540   3.083   0.780   3.807  0.7803  0.0117  0.3862
 6231SOL    HW223541   2.976   0.698   3.876 -0.1183  0.2913 -0.6600
 6232SOL     OW23542   1.619   9.975   5.170 -0.3151 -0.1238  0.4647
 6232SOL    HW123543   1.650  10.065   5.179 -0.6777  0.4130 -2.8455
 6232SOL    HW223544   1.698   9.923   5.166  0.1243  0.6873 -2.8776
 6233SOL     OW23545   4.563   0.180   6.154  0.5502 -0.4397  0.7108
 6233SOL    HW123546   4.554   0.232   6.233 -1.9147  0.1086  0.1000
 6233SOL    HW223547   4.578   0.245   6.084  2.1530 -0.8813  0.6214
 6234SOL     OW23548   1.396   1.081   4.872 -0.1887 -0.3437  0.2132
 6234SOL    HW123549   1.339   1.005   4.861  1.2967 -1.3279 -0.9260
 6234SOL    HW223550   1.397   1.123   4.786  0.8584 -0.3904  0.1907
 6235SOL     OW23551   4.941   9.913   4.328 -0.2013 -0.1803 -0.4426
 6235SOL    HW123552   4.962   9.998   4.365  0.9649 -0.7968  0.3351
 6235SOL    HW223553   4.954   9.851   4.400 -1.8569 -0.9258 -0.7624
 6236SOL     OW23554   3.683   0.354   6.706  0.1310  0.2725 -0.0373
 6236SOL    HW123555   3.764   0.404   6.700  0.8097 -0.8802 -0.5304
 6236SOL    HW223556   3.638   0.371   6.623 -0.1821  1.0025  0.2836
 6237SOL     OW23557   3.343   1.057   5.777  0.0753  0.5315 -0.5149
 6237SOL    HW123558   3.331   1.149   5.754 -0.5674  0.8323  0.9982
 6237SOL    HW223559   3.259   1.030   5.813  0.7830 -0.1864  0.6261
 6238SOL     OW23560   3.967   0.610   4.587  0.1205 -0.4742 -0.0069
 6238SOL    HW123561   4.029   0.683   4.576  0.8993 -0.9895  0.8541
 6238SOL    HW223562   4.016   0.545   4.637 -0.6617 -1.4839 -0.5464
 6239SOL     OW23563   3.526   2.049   4.637 -0.0253  0.1588 -0.0472
 6239SOL    HW123564   3.472   1.982   4.596 -0.0870  0.0423  0.2274
 6239SOL    HW223565   3.469   2.126   4.640  0.7060  0.8240 -2.2176
 6240SOL     OW23566   2.267   1.908   5.754  0.3599  0.1811  0.3265
 6240SOL    HW123567   2.172   1.916   5.758  0.3695  0.6777 -0.3734
 6240SOL    HW223568   2.284   1.814   5.749 -0.2475  0.1994 -3.1161
 6241SOL     OW23569   4.275   0.582   4.797 -0.2321  0.4157 -0.0815
 6241SOL    HW123570   4.356   0.549   4.834  0.5671  2.1381 -0.2530
 6241SOL    HW223571   4.206   0.533   4.841  0.8630 -0.2088  0.9317
 6242SOL     OW23572   1.268   2.124   4.462 -0.3761  0.4716  0.6833
 6242SOL    HW123573   1.181   2.135   4.424 -0.2610  0.3948  0.4017
 6242SOL    HW223574   1.277   2.030   4.475  1.7592 -0.1327 -4.2171
 6243SOL     OW23575   1.198   1.714   4.212  0.1888  0.5941  0.3610
 6243SOL    HW123576   1.236   1.752   4.291 -0.4490  0.7120  0.6099
 6243SOL    HW223577   1.119   1.766   4.195 -0.9214 -0.8560  0.9435
 6244SOL     OW23578   1.603   0.029   4.470  0.3037 -0.0489 -0.2671
 6244SOL    HW123579   1.658  -0.031   4.520  0.5040  1.1980  1.0029
 6244SOL    HW223580   1.665   0.089   4.428 -0.0390  1.1057  0.8435
 6245SOL     OW23581   3.724   2.177   4.144 -0.0993  0.3286  0.0780
 6245SOL    HW123582   3.665   2.112   4.106  0.7010 -0.7212  0.5872
 6245SOL    HW223583   3.812   2.140   4.132  0.2576  0.5716  1.7733
 6246SOL     OW23584   2.422   1.295   5.332  0.1793 -0.1818  0.3311
 6246SOL    HW123585   2.332   1.265   5.316  0.5565 -0.6862 -0.8260
 6246SOL    HW223586   2.464   1.221   5.376  0.6263 -0.7326 -1.0128
 6247SOL     OW23587   1.472   0.703   3.299  0.7710 -0.0580 -0.1974
 6247SOL    HW123588   1.430   0.775   3.251  0.6203  1.2961  1.9001
 6247SOL    HW223589   1.400   0.659   3.343  0.8671 -1.5294 -1.4875
 6248SOL     OW23590   1.252   2.817   4.797 -0.1394 -0.4818  0.0654
 6248SOL    HW123591   1.187   2.842   4.862 -1.9208  0.1837 -1.9060
 6248SOL    HW223592   1.265   2.895   4.744  2.8275 -0.3960  0.8193
 6249SOL     OW23593   1.502   0.355   6.364  0.1361  0.2516  0.3485
 6249SOL    HW123594   1.479   0.445   6.390 -0.0250 -0.3099  2.1830
 6249SOL    HW223595   1.593   0.345   6.390 -0.2223 -0.5455  1.3080
 6250SOL     OW23596   3.318   0.157   4.343  0.4677 -0.1574 -0.0456
 6250SOL    HW123597   3.276   0.107   4.412  1.2883  2.0104  2.1010
 6250SOL    HW223598   3.410   0.131   4.346  0.5330  0.0460 -0.2403
 6251SOL     OW23599   3.193   9.130   5.153 -0.1675 -0.8696 -0.5268
 6251SOL    HW123600   3.228   9.159   5.069 -0.7189  3.7729  0.7020
 6251SOL    HW223601   3.098   9.138   5.143 -0.2327 -0.2291  0.5235
 6252SOL     OW23602   2.176   0.493   4.529 -0.2258  0.0280 -0.0037
 6252SOL    HW123603   2.110   0.525   4.590  0.1795  0.0765  0.4120
 6252SOL    HW223604   2.212   0.414   4.572 -0.1066 -0.0701 -0.2840
 6253SOL     OW23605   1.450   0.647   4.337 -0.4212  0.2183  0.5225
 6253SOL    HW123606   1.446   0.610   4.425  1.2282 -1.6449 -0.1609
 6253SOL    HW223607   1.371   0.613   4.294  1.6087 -3.5249 -0.4330
 6254SOL     OW23608   3.385   0.652   7.524  0.2193 -0.2843 -0.5123
 6254SOL    HW123609   3.455   0.682   7.581  1.6522  1.1193 -2.9548
 6254SOL    HW223610   3.338   0.732   7.498 -1.2152 -1.0272 -0.2815
 6255SOL     OW23611   2.970   9.626   3.622 -0.1894 -0.1038  0.3619
 6255SOL    HW123612   2.919   9.602   3.700  1.7920 -2.7259  0.9273
 6255SOL    HW223613   3.051   9.662   3.656  0.4310 -0.6902 -0.4697
 6256SOL     OW23614   2.610   0.264   5.806  1.0709 -0.1754  0.3922
 6256SOL    HW123615   2.627   0.203   5.734  0.8258 -0.6457  0.7342
 6256SOL    HW223616   2.665   0.232   5.878  0.6990 -0.1880  0.6736
 6257SOL     OW23617   2.629   9.973   5.316  0.1306 -0.0809 -0.3884
 6257SOL    HW123618   2.624  10.042   5.249  0.3891  1.3471  1.0508
 6257SOL    HW223619   2.555   9.990   5.374  1.8872  0.7731  1.6500
 6258SOL     OW23620   4.793   0.618   6.592 -0.2462 -0.4856 -0.0146
 6258SOL    HW123621   4.825   0.708   6.583  0.8396 -0.7327  1.2053
 6258SOL    HW223622   4.712   0.627   6.642 -0.2546 -0.1677 -0.0801
 6259SOL     OW23623   2.693   9.860   3.616 -0.5799 -0.5324  0.0649
 6259SOL    HW123624   2.746   9.816   3.682  0.7461  0.2935 -0.4400
 6259SOL    HW223625   2.612   9.808   3.612  0.6316 -2.4904  0.0337
 6260SOL     OW23626   2.462   0.423   5.274 -0.0140 -0.2013  0.1423
 6260SOL    HW123627   2.423   0.475   5.344  0.5918 -0.7152  0.8739
 6260SOL    HW223628   2.393   0.361   5.248 -0.0159 -0.4692  0.7688
 6261SOL     OW23629   3.488   9.211   3.996 -0.3366 -0.1580 -0.1830
 6261SOL    HW123630   3.490   9.129   3.945  0.9701 -0.9839  1.1561
 6261SOL    HW223631   3.402   9.210   4.038  0.9981 -2.6965  2.6938
 6262SOL     OW23632   1.163   0.809   4.289  0.7948 -0.5079  0.0323
 6262SOL    HW123633   1.139   0.751   4.217  1.5103 -1.0597  0.2436
 6262SOL    HW223634   1.084   0.813   4.343 -0.4701  1.5845 -1.8773
 6263SOL     OW23635   3.066   9.913   2.065  0.3636 -0.1973 -0.0986
 6263SOL    HW123636   3.097   9.987   2.118  2.2986 -0.0913 -1.3307
 6263SOL    HW223637   3.059   9.840   2.127 -0.9071  0.8094  0.9926
 6264SOL     OW23638   3.598   2.027   3.667  0.2894 -0.5040 -0.3857
 6264SOL    HW123639   3.510   2.065   3.676  1.3351  2.4940 -2.0938
 6264SOL    HW223640   3.583   1.939   3.634 -2.1124 -0.2672  0.0113
 6265SOL     OW23641   3.856   1.479   4.636 -0.2771 -0.8802 -0.2552
 6265SOL    HW123642   3.885   1.438   4.717 -0.1620 -0.2496  0.0222
 6265SOL    HW223643   3.931   1.531   4.607 -1.4231  1.4660  0.9277
 6266SOL     OW23644   1.817   0.275   4.232  0.4167 -0.3800  0.0676
 6266SOL    HW123645   1.835   0.347   4.293 -2.0029  1.1632 -0.9611
 6266SOL    HW223646   1.844   0.196   4.279  2.7408  1.1412  1.3829
 6267SOL     OW23647   1.504   0.590   4.660  0.6018  0.0242  0.6468
 6267SOL    HW123648   1.589   0.624   4.688  0.5831  0.1128  0.5968
 6267SOL    HW223649   1.492   0.510   4.712 -0.3672  1.2653  2.4119
 6268SOL     OW23650   4.265   8.787   4.387 -0.0384  0.4380  0.2815
 6268SOL    HW123651   4.299   8.842   4.458  2.5372 -0.7273  0.0040
 6268SOL    HW223652   4.271   8.698   4.422  0.2350 -0.0485 -1.0008
 6269SOL     OW23653   2.077   0.210   3.390 -0.2100  0.6437  0.2590
 6269SOL    HW123654   1.999   0.214   3.445 -0.5376  3.2243 -0.3007
 6269SOL    HW223655   2.059   0.141   3.327 -1.2285 -0.0857  1.3315
 6270SOL     OW23656   1.424   0.850   5.115 -0.4802  0.0600 -0.0957
 6270SOL    HW123657   1.426   0.788   5.041  1.6472 -1.2361  1.0001
 6270SOL    HW223658   1.412   0.794   5.192  1.8012  0.9737  0.9477
 6271SOL     OW23659   1.192   1.225   5.043  0.5001 -0.3119 -0.0722
 6271SOL    HW123660   1.120   1.176   5.080  0.2163  0.9825  1.1414
 6271SOL    HW223661   1.232   1.166   4.979 -0.1339 -1.9115  0.9864
 6272SOL     OW23662   2.285   9.908   4.157  0.1433  0.2503  0.3460
 6272SOL    HW123663   2.264   9.913   4.250  0.7355 -0.8649  0.5472
 6272SOL    HW223664   2.208   9.866   4.118 -0.0220  0.5395  0.3576
 6273SOL     OW23665   2.111   0.434   5.798  0.0576  0.4786 -0.3065
 6273SOL    HW123666   2.137   0.442   5.890 -0.2684  0.5456 -0.2195
 6273SOL    HW223667   2.165   0.498   5.752  0.5895  0.0908 -0.2346
 6274SOL     OW23668   2.595   1.835   5.687  0.4923 -0.4514  0.4830
 6274SOL    HW123669   2.582   1.750   5.646  1.1382 -0.4704  0.3034
 6274SOL    HW223670   2.665   1.820   5.751  0.2567 -0.1710  0.8077
 6275SOL     OW23671   2.828   1.971   3.253  0.1839  0.1030  0.0903
 6275SOL    HW123672   2.760   2.036   3.233 -0.5763 -0.7055  0.0531
 6275SOL    HW223673   2.876   2.009   3.327  0.4539  1.2250 -0.6299
 6276SOL     OW23674   4.360   0.702   4.505  0.6307 -0.4586 -0.2308
 6276SOL    HW123675   4.346   0.792   4.534 -0.5761 -0.8782  0.5483
 6276SOL    HW223676   4.360   0.651   4.586 -0.1875 -1.3330 -0.7736
 6277SOL     OW23677   1.203   0.025   6.283 -0.7011 -0.4567 -0.2570
 6277SOL    HW123678   1.182   0.024   6.376  0.7190 -3.8469  0.1074
 6277SOL    HW223679   1.127  -0.014   6.240  0.0403 -2.0705 -0.1331
 6278SOL     OW23680   4.031   9.713   3.769 -0.3137 -0.2992 -0.1826
 6278SOL    HW123681   4.126   9.723   3.775 -0.4070  0.0543  0.7936
 6278SOL    HW223682   4.000   9.725   3.859 -1.2794 -0.4355 -0.4940
 6279SOL     OW23683   3.198   0.482   6.503  0.0889 -0.0854 -0.5867
 6279SOL    HW123684   3.242   0.483   6.418  0.8338 -2.0272 -0.2423
 6279SOL    HW223685   3.116   0.436   6.488  1.0878 -2.1768  0.1163
 6280SOL     OW23686   1.966   9.657   2.931  0.5487 -0.2604 -0.2348
 6280SOL    HW123687   1.886   9.629   2.976  0.3709 -0.1339 -0.4695
 6280SOL    HW223688   1.982   9.588   2.867  1.2420 -0.8406  0.5453
 6281SOL     OW23689   2.158   8.881   4.224 -0.4389  0.5032  0.1663
 6281SOL    HW123690   2.076   8.919   4.258 -0.0828  1.3056  0.1552
 6281SOL    HW223691   2.156   8.790   4.253 -1.9839  0.1454 -1.0164
 6282SOL     OW23692   1.495   2.036   5.409  0.2053  0.1717  0.0371
 6282SOL    HW123693   1.552   1.964   5.381  0.9739  0.4338  0.8973
 6282SOL    HW223694   1.410   2.015   5.372  0.6955 -0.5935 -0.6811
 6283SOL     OW23695   4.719   1.566   4.385 -0.1696 -0.4692  0.1385
 6283SOL    HW123696   4.729   1.661   4.380 -0.0580 -0.3568  2.3083
 6283SOL    HW223697   4.642   1.553   4.439 -0.6531 -1.6238 -0.8145
 6284SOL     OW23698   2.779   1.292   4.586  0.4926  0.0944  0.8879
 6284SOL    HW123699   2.753   1.357   4.650  0.5564 -2.0875  3.2073
 6284SOL    HW223700   2.755   1.208   4.626 -0.2029 -1.2886 -2.2753
 6285SOL     OW23701   1.228   4.229   4.940  0.5372  0.4572  0.4938
 6285SOL    HW123702   1.243   4.137   4.962  1.9506  0.6437  0.3433
 6285SOL    HW223703   1.248   4.277   5.021  1.5564  0.7802  0.0532
 6286SOL     OW23704   1.698   0.025   6.240  0.2777  0.4536  0.2004
 6286SOL    HW123705   1.677   0.050   6.149  0.5809  0.6326  0.1800
 6286SOL    HW223706   1.616   0.040   6.288  0.0302  0.0689 -0.1021
 6287SOL     OW23707   1.958   1.681   5.287 -0.7718  0.0599  0.2413
 6287SOL    HW123708   2.010   1.621   5.341  1.5310  1.9505  0.1988
 6287SOL    HW223709   1.919   1.742   5.349  0.6671  1.3330 -0.1044
 6288SOL     OW23710   3.067   0.605   5.635 -0.1411  0.1895 -0.3819
 6288SOL    HW123711   2.999   0.671   5.619  0.3869  0.4916 -1.4270
 6288SOL    HW223712   3.142   0.656   5.664  0.0192 -0.0359 -0.4046
 6289SOL     OW23713   2.656   1.315   4.199  0.4440 -0.3947  0.1354
 6289SOL    HW123714   2.747   1.320   4.171 -0.0711 -1.2365 -1.7232
 6289SOL    HW223715   2.630   1.406   4.214  1.2416 -0.0710 -0.4409
 6290SOL     OW23716   1.048   1.293   6.588 -0.0959 -0.4515 -0.2710
 6290SOL    HW123717   1.001   1.358   6.536 -2.2721 -0.3576  1.7057
 6290SOL    HW223718   0.981   1.257   6.647  1.8498 -1.9479  1.0800
 6291SOL     OW23719   1.031   1.477   5.159  0.3449 -0.4116  0.1342
 6291SOL    HW123720   1.010   1.565   5.128 -0.3949  0.4405  2.9011
 6291SOL    HW223721   0.952   1.426   5.142  0.2957 -0.2024 -0.2647
 6292SOL     OW23722   1.880   1.944   5.350 -0.0204  0.4871  0.0296
 6292SOL    HW123723   1.833   1.917   5.429 -1.3927  0.0790 -0.9154
 6292SOL    HW223724   1.815   1.992   5.299  1.2060  1.8325 -0.2978
 6293SOL     OW23725   4.279   3.006   4.313  0.1645 -0.1592  0.3180
 6293SOL    HW123726   4.262   2.950   4.238 -0.0200 -0.0617  0.2845
 6293SOL    HW223727   4.370   2.989   4.337  0.7914  1.1447 -1.0547
 6294SOL     OW23728   4.256   1.426   5.467 -0.1575 -0.0820 -0.0984
 6294SOL    HW123729   4.239   1.455   5.557  0.5082  0.6101 -0.1821
 6294SOL    HW223730   4.295   1.339   5.477  0.5499  0.2760  0.3298
 6295SOL     OW23731   4.437   0.359   3.076  0.2463 -0.0585 -0.5095
 6295SOL    HW123732   4.434   0.442   3.123 -0.9466 -1.3000  1.6564
 6295SOL    HW223733   4.520   0.361   3.029 -0.0136  2.5726 -0.9132
 6296SOL     OW23734   1.394   1.725   2.360 -0.4980 -0.4671 -0.7870
 6296SOL    HW123735   1.310   1.750   2.321 -0.3526  1.1516 -0.1133
 6296SOL    HW223736   1.374   1.716   2.454 -0.3577 -2.1224 -0.9022
 6297SOL     OW23737   3.660   1.659   3.438  0.3205 -0.2593 -0.1208
 6297SOL    HW123738   3.671   1.636   3.530  4.3494 -1.5504 -0.8364
 6297SOL    HW223739   3.624   1.580   3.398 -0.7135  0.0447  0.2037
 6298SOL     OW23740   2.215   0.224   5.568 -0.6955 -0.5126 -0.5418
 6298SOL    HW123741   2.172   0.265   5.643  3.1541  1.3263  0.7821
 6298SOL    HW223742   2.185   0.274   5.493 -1.6465  0.0719  0.2144
 6299SOL     OW23743   2.291   2.631   5.478 -0.3522 -0.0194 -0.7206
 6299SOL    HW123744   2.206   2.592   5.496 -0.2591  0.2554  0.3944
 6299SOL    HW223745   2.278   2.724   5.495 -0.2151  0.2467 -2.0211
 6300SOL     OW23746   4.515   2.707   3.258  0.2752  0.2181 -0.3364
 6300SOL    HW123747   4.572   2.659   3.318  0.3959  0.3695 -0.3320
 6300SOL    HW223748   4.469   2.638   3.209  1.0998  0.0935 -0.9460
 6301SOL     OW23749   2.557   1.769   5.076  0.2429  0.4652 -0.3315
 6301SOL    HW123750   2.494   1.706   5.041  0.6488 -0.2239  0.1611
 6301SOL    HW223751   2.506   1.823   5.135  0.2181 -0.4546  0.5059
 6302SOL     OW23752   3.477   9.515   4.643  0.2711  0.0829 -0.0710
 6302SOL    HW123753   3.560   9.549   4.610 -0.9309  2.0625 -1.1097
 6302SOL    HW223754   3.411   9.549   4.583 -1.1145 -3.2557 -0.5494
 6303SOL     OW23755   3.597   0.216   5.357 -0.2182  0.0474  0.7149
 6303SOL    HW123756   3.598   0.167   5.439  1.3142  0.0170  0.7048
 6303SOL    HW223757   3.624   0.152   5.291 -2.6593 -0.2482 -0.0230
 6304SOL     OW23758   2.127   1.530   5.465  0.1256 -0.2706 -0.1187
 6304SOL    HW123759   2.095   1.491   5.547  0.9680  0.1989  0.4398
 6304SOL    HW223760   2.216   1.558   5.485 -0.1595  1.1710 -0.7568
 6305SOL     OW23761   4.272   9.962   6.056 -0.4001 -0.2838  0.1616
 6305SOL    HW123762   4.367   9.960   6.042 -0.2754  0.4823  0.8283
 6305SOL    HW223763   4.262   9.968   6.151 -1.0383  2.0124 -0.0072
 6306SOL     OW23764   2.824   9.360   4.243 -0.1307  0.0112  0.1435
 6306SOL    HW123765   2.759   9.427   4.220 -1.3796 -0.8131  1.2022
 6306SOL    HW223766   2.813   9.293   4.175  0.6599  0.5564 -0.5340
 6307SOL     OW23767   1.186   9.105   4.158 -0.7357  0.4858 -0.3146
 6307SOL    HW123768   1.125   9.067   4.221 -0.8395  1.5718  0.2538
 6307SOL    HW223769   1.155   9.195   4.146 -1.3313  0.0080 -2.6806
 6308SOL     OW23770   1.744   0.042   4.036  0.9498  0.4038  0.2077
 6308SOL    HW123771   1.757   0.003   3.949  0.4226  1.0471 -0.1649
 6308SOL    HW223772   1.793  -0.015   4.095  0.6054 -0.5374 -0.3988
 6309SOL     OW23773   2.642   8.965   3.659  0.4410  0.2711 -0.3028
 6309SOL    HW123774   2.616   9.043   3.611 -0.0638  0.1364 -0.2448
 6309SOL    HW223775   2.738   8.965   3.655  0.3802 -1.3503 -3.9338
 6310SOL     OW23776   2.582   0.528   4.518 -0.1733 -0.7054 -0.7978
 6310SOL    HW123777   2.652   0.512   4.581 -1.0946 -1.7223 -0.0167
 6310SOL    HW223778   2.554   0.441   4.490 -1.5488 -0.3244 -0.6290
 6311SOL     OW23779   0.907   2.340   4.926 -0.0034 -0.6701  0.0182
 6311SOL    HW123780   0.877   2.363   4.838  2.2512 -1.6146 -1.0433
 6311SOL    HW223781   0.874   2.410   4.982  0.1508  0.9881 -1.8957
 6312SOL     OW23782   1.144   0.126   5.659  0.3159 -0.4431  0.2742
 6312SOL    HW123783   1.169   0.082   5.740  1.3008  0.7957  0.6528
 6312SOL    HW223784   1.057   0.160   5.675 -0.0663 -1.4129  0.3099
 6313SOL     OW23785   3.079   9.470   4.997 -0.1695  0.4680 -0.5557
 6313SOL    HW123786   3.148   9.463   4.931  0.8954 -0.5397  0.6345
 6313SOL    HW223787   3.126   9.467   5.081 -1.6888 -0.7179  0.2840
 6314SOL     OW23788   2.449   9.772   4.964 -0.5461 -0.3240 -0.0686
 6314SOL    HW123789   2.480   9.838   5.026  1.0351  0.0846 -1.2438
 6314SOL    HW223790   2.374   9.813   4.921  0.3736  0.7148 -0.7242
 6315SOL     OW23791   4.199   1.799   2.488 -0.1935  0.1920 -0.7756
 6315SOL    HW123792   4.144   1.878   2.489 -1.7440 -0.8730 -0.6015
 6315SOL    HW223793   4.144   1.731   2.525  1.4590 -0.7871 -0.0594
 6316SOL     OW23794   3.537   0.101   4.514  0.2399  0.0647  0.0933
 6316SOL    HW123795   3.467   0.116   4.576  0.9479  1.0022  0.6797
 6316SOL    HW223796   3.611   0.071   4.567 -0.2324 -2.6957 -0.7109
 6317SOL     OW23797   1.929   2.087   2.646 -0.2431 -0.5393 -0.2938
 6317SOL    HW123798   1.996   2.042   2.697 -1.1716 -0.4320  1.0623
 6317SOL    HW223799   1.901   2.023   2.581  0.8474 -0.7350 -0.5841
 6318SOL     OW23800   3.270   0.102   3.580  0.0300  0.2883  0.5981
 6318SOL    HW123801   3.243   0.180   3.531  0.9852 -0.1046 -0.5971
 6318SOL    HW223802   3.268   0.129   3.671 -1.0317  1.2859  0.2929
 6319SOL     OW23803   2.676   1.164   6.012  0.5674  0.4430 -0.2455
 6319SOL    HW123804   2.629   1.083   5.990  1.4884 -0.0312 -0.5174
 6319SOL    HW223805   2.607   1.228   6.028 -0.1774 -0.3498 -0.2060
 6320SOL     OW23806   4.416   0.440   4.226 -0.0199  0.0671  0.0107
 6320SOL    HW123807   4.321   0.434   4.242  0.0892 -0.3887  0.4733
 6320SOL    HW223808   4.441   0.353   4.196 -0.0395  0.6402 -1.7071
 6321SOL     OW23809   1.624   0.855   4.331 -0.3591 -0.3368  0.4926
 6321SOL    HW123810   1.592   0.899   4.253  1.8905  0.1469 -0.2161
 6321SOL    HW223811   1.568   0.778   4.341 -1.8179  0.5729 -0.5275
 6322SOL     OW23812   1.089   2.702   3.965 -0.0433  0.0711 -0.1880
 6322SOL    HW123813   1.034   2.757   4.021  1.1263  0.6554  0.4158
 6322SOL    HW223814   1.076   2.613   3.999  2.1349  0.6494  2.3237
 6323SOL     OW23815   2.310   3.448   3.658 -1.1644 -0.2124  0.0335
 6323SOL    HW123816   2.225   3.491   3.649 -0.9305  0.6660  1.7193
 6323SOL    HW223817   2.369   3.519   3.683 -0.4145 -1.2203  1.1760
 6324SOL     OW23818   1.236   0.193   6.083 -0.2697  0.2710 -0.0583
 6324SOL    HW123819   1.232   0.153   5.996  1.3041 -0.3008  0.1198
 6324SOL    HW223820   1.244   0.119   6.143  2.7150  0.8292  0.2747
 6325SOL     OW23821   1.067   1.649   4.637  0.7814 -0.3417 -0.0355
 6325SOL    HW123822   1.012   1.657   4.559 -1.6556 -0.9691  1.5391
 6325SOL    HW223823   1.131   1.582   4.615  0.5493 -0.0351 -1.7197
 6326SOL     OW23824   2.755   2.362   6.441 -0.6577 -0.2853 -0.2389
 6326SOL    HW123825   2.818   2.431   6.420 -0.9749 -0.1587 -0.7973
 6326SOL    HW223826   2.809   2.290   6.473 -0.3999  0.5242  1.1739
 6327SOL     OW23827   3.582   0.804   3.500 -0.3214 -0.6750  0.2008
 6327SOL    HW123828   3.646   0.875   3.489 -1.4539  0.1844 -1.0024
 6327SOL    HW223829   3.635   0.728   3.524  1.2404 -0.1334 -1.3561
 6328SOL     OW23830   3.117   1.125   5.278  0.0608 -0.3172  0.2692
 6328SOL    HW123831   3.095   1.161   5.364 -0.5084 -3.4298  1.5192
 6328SOL    HW223832   3.086   1.190   5.216 -1.9497  0.8016  2.3622
 6329SOL     OW23833   3.357   1.005   4.709 -0.1684 -0.1648 -0.1025
 6329SOL    HW123834   3.333   1.051   4.629  0.4310 -0.5480 -0.5020
 6329SOL    HW223835   3.282   0.948   4.726  0.2690 -1.0607 -1.1309
 6330SOL     OW23836   2.889   0.164   6.048  0.4202 -0.0049 -0.1810
 6330SOL    HW123837   2.871   0.247   6.094  0.2030  0.9203 -1.8890
 6330SOL    HW223838   2.807   0.115   6.056  0.0414  0.5718 -0.4420
 6331SOL     OW23839   1.227   1.031   3.774 -0.0394 -0.3820 -0.5071
 6331SOL    HW123840   1.209   1.112   3.726 -0.5533  1.6707  2.9948
 6331SOL    HW223841   1.318   1.010   3.751  0.4834  1.8373 -0.6227
 6332SOL     OW23842   4.058   9.332   5.973 -0.5348 -0.6409 -0.2446
 6332SOL    HW123843   3.990   9.352   5.909 -1.5448  2.0428  1.5735
 6332SOL    HW223844   4.132   9.387   5.946 -1.6218  2.0296  1.8895
 6333SOL     OW23845   2.034   2.115   4.573 -0.4258 -0.2413  0.0130
 6333SOL    HW123846   2.027   2.079   4.662  1.2948  0.8547  0.6168
 6333SOL    HW223847   2.014   2.041   4.516 -0.3615 -1.2760  1.2954
 6334SOL     OW23848   0.496   2.493   6.493 -0.1947 -0.3375  0.1360
 6334SOL    HW123849   0.502   2.399   6.477  1.1835 -0.2422  0.0495
 6334SOL    HW223850   0.587   2.521   6.504 -0.6026  0.9800  0.1815
 6335SOL     OW23851   3.055   0.060   3.928  0.1786  0.0566 -0.0008
 6335SOL    HW123852   3.054  -0.008   3.995 -0.9441  1.6040  1.5924
 6335SOL    HW223853   3.069   0.142   3.976  0.0220  1.1281 -1.7172
 6336SOL     OW23854   1.064   0.417   4.062  0.0656 -0.4319  0.2043
 6336SOL    HW123855   1.036   0.507   4.078  1.6589  0.1865 -0.3643
 6336SOL    HW223856   1.061   0.375   4.148 -0.0586  0.3567  0.5881
 6337SOL     OW23857   2.260   2.040   5.098 -0.3401 -0.0994  0.0334
 6337SOL    HW123858   2.345   2.024   5.138 -0.0683 -2.1392 -1.3363
 6337SOL    HW223859   2.197   2.001   5.159  0.0012 -2.2245 -0.9483
 6338SOL     OW23860   1.104   0.992   6.223  0.9280 -0.9932  0.3767
 6338SOL    HW123861   1.077   0.930   6.291 -1.3764 -2.0953 -1.4791
 6338SOL    HW223862   1.048   1.068   6.237  0.9151 -0.9544  0.1057
 6339SOL     OW23863   1.432   0.990   5.729 -0.3512 -0.0834 -0.2816
 6339SOL    HW123864   1.374   1.061   5.757  1.1495  1.7143 -1.5250
 6339SOL    HW223865   1.398   0.964   5.643 -1.0278 -1.0494  0.2662
 6340SOL     OW23866   2.017   9.938   7.067  0.2771 -0.0599 -0.0945
 6340SOL    HW123867   1.923   9.953   7.077  0.0193 -1.5971 -0.0744
 6340SOL    HW223868   2.058   9.996   7.131 -0.7199 -0.2565  0.7285
 6341SOL     OW23869   2.590   3.798   6.370  0.1073 -0.4023 -0.0325
 6341SOL    HW123870   2.582   3.842   6.455  0.9696 -1.7915  0.7857
 6341SOL    HW223871   2.500   3.773   6.347 -0.0631 -0.4948  0.7277
 6342SOL     OW23872   3.750   1.140   5.740 -0.2563  0.6817  0.4713
 6342SOL    HW123873   3.836   1.132   5.782 -1.9658  1.2398  4.2822
 6342SOL    HW223874   3.706   1.058   5.760 -1.2104  1.0492 -0.0966
 6343SOL     OW23875   4.491   0.624   5.668 -0.8790  0.0334  0.1598
 6343SOL    HW123876   4.474   0.632   5.762  1.0530  1.4428  0.4330
 6343SOL    HW223877   4.553   0.552   5.661  0.2013  0.9433  0.1549
 6344SOL     OW23878   3.156   1.120   7.124  0.7425 -0.4772  0.2471
 6344SOL    HW123879   3.127   1.032   7.147  0.1474 -0.0281  1.2181
 6344SOL    HW223880   3.080   1.176   7.137  1.3268  0.3088  0.3773
 6345SOL     OW23881   2.680   9.435   7.034  0.6006 -0.4785 -0.1832
 6345SOL    HW123882   2.710   9.359   7.085  1.4977 -0.3586 -0.5275
 6345SOL    HW223883   2.638   9.491   7.099  1.5348 -0.4336  0.3988
 6346SOL     OW23884   3.435   0.995   5.313 -0.3647 -0.8524  0.3457
 6346SOL    HW123885   3.505   1.056   5.334 -0.2697 -0.4678 -1.0126
 6346SOL    HW223886   3.430   0.937   5.389  1.4941 -0.9605  0.4105
 6347SOL     OW23887   3.300   1.327   5.669 -0.0719 -0.0849  0.5282
 6347SOL    HW123888   3.338   1.353   5.584  0.4147 -1.9890  0.1374
 6347SOL    HW223889   3.355   1.371   5.734 -0.0093  0.8311 -0.1310
 6348SOL     OW23890   2.634   2.000   7.864 -0.2363 -0.5457 -0.3800
 6348SOL    HW123891   2.563   1.942   7.892 -0.2301 -1.2635 -1.8154
 6348SOL    HW223892   2.599   2.044   7.786 -0.9749  2.8333  1.7698
 6349SOL     OW23893   1.165   9.983   7.904  0.0077  0.0397  0.0170
 6349SOL    HW123894   1.168   9.967   7.999 -0.1549  0.4057  0.0827
 6349SOL    HW223895   1.110   9.912   7.870  0.3158 -0.2700  0.1567
 6350SOL     OW23896   5.171   0.484   5.150  0.1949 -0.8899 -0.0740
 6350SOL    HW123897   5.081   0.518   5.146  1.1210  1.5443 -1.4921
 6350SOL    HW223898   5.212   0.534   5.220  0.2682 -2.5524  1.1034
 6351SOL     OW23899   1.248   2.027   5.638 -0.2516  0.5063 -0.0043
 6351SOL    HW123900   1.171   1.986   5.679 -0.0058 -1.2849 -1.2700
 6351SOL    HW223901   1.212   2.091   5.577 -0.6964  0.6662  0.4189
 6352SOL     OW23902   2.312   2.637   7.135  0.2175 -0.7881 -0.1066
 6352SOL    HW123903   2.335   2.552   7.099  1.0571 -0.6913  0.1961
 6352SOL    HW223904   2.220   2.649   7.110  0.1000 -1.7647 -0.1632
 6353SOL     OW23905   2.884   9.822   6.434 -0.3818  0.7323 -0.2862
 6353SOL    HW123906   2.799   9.789   6.463 -0.0867 -0.6243 -0.9205
 6353SOL    HW223907   2.948   9.774   6.486 -0.0306  3.7894  2.2523
 6354SOL     OW23908   0.161   2.535   6.911  0.4069 -0.4278  0.0941
 6354SOL    HW123909   0.106   2.457   6.917 -0.7387  0.4185  0.5864
 6354SOL    HW223910   0.108   2.599   6.864  1.7549 -0.2817 -1.2991
 6355SOL     OW23911   2.049   2.369   7.220  0.1834 -0.0515  0.4883
 6355SOL    HW123912   2.040   2.274   7.225  0.1395 -0.0170  1.0493
 6355SOL    HW223913   2.105   2.392   7.294 -0.3019  0.4254  0.7122
 6356SOL     OW23914   2.038   1.460   5.705  0.3348 -0.5187 -0.4369
 6356SOL    HW123915   2.023   1.500   5.791  0.3316  0.4040 -0.8736
 6356SOL    HW223916   2.110   1.398   5.721  1.3796  0.7481 -0.0874
 6357SOL     OW23917   3.399   8.812   6.868  1.0858  0.1408  0.7035
 6357SOL    HW123918   3.328   8.822   6.932 -1.0572  0.6416 -1.7001
 6357SOL    HW223919   3.406   8.898   6.826  1.1304 -0.7289 -1.0985
 6358SOL     OW23920   1.881   0.414   6.039  0.0047  0.1688  0.4455
 6358SOL    HW123921   1.787   0.405   6.054 -0.3147  1.2602 -0.8553
 6358SOL    HW223922   1.920   0.407   6.126 -1.3984  1.2487  1.1670
 6359SOL     OW23923   3.721   3.041   6.146 -0.2442  0.0306 -0.2681
 6359SOL    HW123924   3.634   3.057   6.183 -1.4684 -1.8247 -2.1980
 6359SOL    HW223925   3.714   3.073   6.056  0.9960 -0.3954 -0.5176
 6360SOL     OW23926   1.026   1.866   6.182  0.2823  0.0884  0.2639
 6360SOL    HW123927   0.952   1.819   6.144 -0.5020  1.7903 -0.3489
 6360SOL    HW223928   1.034   1.946   6.130  1.1688  0.9677  1.7092
 6361SOL     OW23929   3.692   0.053   5.164  0.1287 -0.1119  0.0786
 6361SOL    HW123930   3.638  -0.023   5.186 -1.3324  0.1001 -2.5601
 6361SOL    HW223931   3.782   0.023   5.177 -0.5152 -1.3399  1.9088
 6362SOL     OW23932   3.898   1.335   5.137  0.3876 -0.0320 -0.6884
 6362SOL    HW123933   3.804   1.341   5.153  0.5419  1.5534 -0.3325
 6362SOL    HW223934   3.934   1.303   5.220  0.3044  0.6003 -0.4077
 6363SOL     OW23935   2.677   0.433   6.887 -0.1143 -0.2617  0.1266
 6363SOL    HW123936   2.618   0.379   6.939  0.1680 -0.0230  0.7023
 6363SOL    HW223937   2.752   0.449   6.945  1.4530 -2.2464 -1.2947
 6364SOL     OW23938   2.831   0.451   5.281 -0.0876 -0.1083 -0.0239
 6364SOL    HW123939   2.878   0.392   5.340  0.7876  1.7924  1.2145
 6364SOL    HW223940   2.739   0.439   5.303  0.1108 -0.7148  0.4881
 6365SOL     OW23941   2.899   0.804   8.099  0.5495 -0.0516  0.1658
 6365SOL    HW123942   2.804   0.804   8.106  0.5709  2.9280  1.6159
 6365SOL    HW223943   2.917   0.795   8.006 -1.2116  0.3306 -0.2259
 6366SOL     OW23944   1.944   1.011   6.797  0.2022 -0.3557 -0.1589
 6366SOL    HW123945   1.993   0.982   6.720  0.9122 -3.4815  1.3848
 6366SOL    HW223946   1.853   0.988   6.778 -0.3332  2.9112 -1.8540
 6367SOL     OW23947   2.557   1.355   7.467  0.1200 -0.0367  0.4600
 6367SOL    HW123948   2.469   1.354   7.428 -0.0707  0.4459  0.8887
 6367SOL    HW223949   2.616   1.350   7.391 -0.2419  1.5439  0.0629
 6368SOL     OW23950   3.636   8.443   6.174  0.1115 -0.3103  0.4487
 6368SOL    HW123951   3.572   8.385   6.214 -0.7270  1.8004  2.2472
 6368SOL    HW223952   3.717   8.428   6.223  0.0311 -0.3739  0.5615
 6369SOL     OW23953   3.008   9.806   7.408 -0.2127 -0.3448  0.2238
 6369SOL    HW123954   3.072   9.854   7.459  1.1019  0.0307 -1.7245
 6369SOL    HW223955   2.992   9.725   7.458  1.8136 -0.4602  0.6990
 6370SOL     OW23956   2.252   0.845   5.025 -0.2396 -0.2295 -0.3123
 6370SOL    HW123957   2.204   0.805   4.953  1.3299  0.4322 -1.7636
 6370SOL    HW223958   2.282   0.929   4.990  1.3223 -0.2964  0.8087
 6371SOL     OW23959   2.890   1.544   5.738  0.0255 -0.2918  0.1672
 6371SOL    HW123960   2.810   1.559   5.688 -0.4917 -0.9675  0.7847
 6371SOL    HW223961   2.956   1.526   5.671 -0.2692  0.5632 -0.3591
 6372SOL     OW23962   2.058   1.256   6.130  0.2437  0.1694  0.0932
 6372SOL    HW123963   2.104   1.271   6.213 -0.4268  1.2721  0.2751
 6372SOL    HW223964   2.096   1.175   6.096  1.9704  0.7940  0.4834
 6373SOL     OW23965   3.393   1.820   4.945  0.2925 -0.2171  0.3127
 6373SOL    HW123966   3.376   1.738   4.992 -3.1356  0.7389  0.8357
 6373SOL    HW223967   3.421   1.882   5.013  4.3178 -1.2071 -0.2646
 6374SOL     OW23968   3.107   1.664   5.536  0.1477 -0.3628 -0.5679
 6374SOL    HW123969   3.061   1.622   5.463  1.3623  0.7871 -2.0297
 6374SOL    HW223970   3.063   1.748   5.546  2.0096  0.8470 -2.1355
 6375SOL     OW23971   2.648   0.738   8.236  0.0722 -0.0307 -0.2077
 6375SOL    HW123972   2.691   0.802   8.293 -1.1063  0.9160 -0.3725
 6375SOL    HW223973   2.569   0.714   8.284 -0.1930 -0.3173 -0.7891
 6376SOL     OW23974   3.027   0.720   7.561  0.3003  0.0940 -0.2824
 6376SOL    HW123975   2.935   0.727   7.535 -0.2719 -0.3652  1.5726
 6376SOL    HW223976   3.044   0.626   7.565  0.6513  0.1733  0.1001
 6377SOL     OW23977   3.197   1.052   9.170  0.0527  0.2699  1.0061
 6377SOL    HW123978   3.215   0.997   9.093 -1.8316 -2.2467  2.2787
 6377SOL    HW223979   3.189   1.140   9.135  1.4107 -0.4872 -1.3739
 6378SOL     OW23980   3.387   8.531   6.432 -0.0385 -0.1729  0.1327
 6378SOL    HW123981   3.447   8.519   6.505  0.3375 -1.2965 -0.3541
 6378SOL    HW223982   3.300   8.511   6.467  0.0761 -0.2024  0.3993
 6379SOL     OW23983   2.334   2.234   5.777  0.2029 -0.7834 -0.5232
 6379SOL    HW123984   2.347   2.230   5.872 -3.5545 -4.5530 -0.0009
 6379SOL    HW223985   2.404   2.178   5.741  1.4253  0.3868 -0.0245
 6380SOL     OW23986   3.185   9.896   6.760  0.4943 -0.1672  0.7444
 6380SOL    HW123987   3.149   9.922   6.845  0.5866  0.0368  0.7213
 6380SOL    HW223988   3.225   9.975   6.726  0.5795 -0.2844  0.5717
 6381SOL     OW23989   3.100   9.938   7.827 -0.4959  0.8032  0.3118
 6381SOL    HW123990   3.056   9.925   7.911 -2.0726  2.6827 -0.1850
 6381SOL    HW223991   3.157  10.013   7.841  2.0789 -1.1670  0.7337
 6382SOL     OW23992   1.678   1.708   6.494 -0.7098  0.1296  0.2432
 6382SOL    HW123993   1.670   1.658   6.413 -0.3695  2.4069 -1.2328
 6382SOL    HW223994   1.658   1.645   6.563  1.6020 -2.5588 -1.4234
 6383SOL     OW23995   2.891   0.893   6.687 -0.1038 -0.3141  1.0335
 6383SOL    HW123996   2.859   0.862   6.772 -0.7052  1.5787  1.5361
 6383SOL    HW223997   2.824   0.867   6.624 -0.3784 -0.4341  1.3768
 6384SOL     OW23998   2.499   0.703   5.112 -0.3442 -0.2604  0.0364
 6384SOL    HW123999   2.482   0.612   5.134  0.3332 -0.0948  1.3061
 6384SOL    HW224000   2.413   0.745   5.116 -0.8539 -1.1044 -1.8728
 6385SOL     OW24001   2.348   1.839   6.431  0.2241  0.1167  0.0049
 6385SOL    HW124002   2.330   1.813   6.521  0.0041  1.1410  0.2666
 6385SOL    HW224003   2.332   1.933   6.430 -2.8957 -0.3507 -1.8474
 6386SOL     OW24004   1.848   1.064   7.769  0.3194  0.0416 -0.6023
 6386SOL    HW124005   1.768   1.090   7.814  0.9872  3.2917 -1.1952
 6386SOL    HW224006   1.904   1.029   7.839 -0.1955  1.2693  0.4367
 6387SOL     OW24007   4.295   3.511   8.996 -0.3901  0.0571  0.0360
 6387SOL    HW124008   4.269   3.599   8.970  1.3269 -0.2496 -2.9778
 6387SOL    HW224009   4.228   3.454   8.957 -0.8037 -0.0509  0.9095
 6388SOL     OW24010   3.940   1.100   4.187  0.6885 -0.4819  0.0774
 6388SOL    HW124011   3.958   1.194   4.185 -0.3596 -0.2466  1.1239
 6388SOL    HW224012   3.858   1.090   4.138  1.2797 -0.9749 -0.8246
 6389SOL     OW24013   1.761   1.431   3.911 -0.0006 -0.4601  0.3555
 6389SOL    HW124014   1.759   1.526   3.913  1.5216 -0.3773 -1.1552
 6389SOL    HW224015   1.678   1.406   3.871 -0.2193  0.2383  0.3686
 6390SOL     OW24016   4.077   2.446   7.916 -0.3702  0.2770  0.1381
 6390SOL    HW124017   4.127   2.463   7.995  0.1849 -1.6087  0.2179
 6390SOL    HW224018   4.134   2.474   7.845 -0.0829  0.1233  0.3109
 6391SOL     OW24019   4.089   1.019   3.898  0.0590 -0.2941  0.1882
 6391SOL    HW124020   4.102   0.924   3.897  0.0255 -0.3233  1.8629
 6391SOL    HW224021   4.048   1.037   3.982  0.0227  1.2082 -0.1340
 6392SOL     OW24022   5.141   2.901   7.499  0.0788 -0.6181 -0.6498
 6392SOL    HW124023   5.193   2.981   7.499  0.6299 -0.9710 -0.0212
 6392SOL    HW224024   5.074   2.916   7.565 -0.2648 -0.3893 -1.0500
 6393SOL     OW24025   3.061   1.062   5.823  0.0507 -0.4258 -0.0177
 6393SOL    HW124026   3.057   0.967   5.811 -0.6977 -0.2754 -1.0150
 6393SOL    HW224027   3.019   1.078   5.908 -2.3819 -0.7416 -1.1126
 6394SOL     OW24028   2.853   0.496   6.564 -0.0810 -0.0606 -0.4499
 6394SOL    HW124029   2.900   0.414   6.561  1.7818  0.9060  1.3792
 6394SOL    HW224030   2.772   0.476   6.610 -0.2164 -1.1175 -1.1365
 6395SOL     OW24031   1.527   1.686   6.223 -0.5210  0.4773  0.8674
 6395SOL    HW124032   1.548   1.778   6.209 -0.8689  0.4131 -0.1652
 6395SOL    HW224033   1.564   1.641   6.147 -0.9344 -0.1392  1.0254
 6396SOL     OW24034   5.728   2.606   6.053 -0.1588 -0.1685  0.2751
 6396SOL    HW124035   5.701   2.540   5.990  1.6843  0.4264 -1.1972
 6396SOL    HW224036   5.733   2.559   6.137 -2.5876 -0.9706 -0.0039
 6397SOL     OW24037   4.699   9.707   7.315 -0.2303 -0.7912 -0.6059
 6397SOL    HW124038   4.702   9.641   7.385 -0.8534 -0.9326 -0.7097
 6397SOL    HW224039   4.775   9.763   7.332  0.1025 -1.3257 -0.3119
 6398SOL     OW24040   2.649   0.032   4.486 -0.2179  0.3028  0.1747
 6398SOL    HW124041   2.619   0.091   4.555 -0.8761  2.3376 -1.8082
 6398SOL    HW224042   2.656  -0.053   4.530 -3.6940  0.8550  2.0154
 6399SOL     OW24043   0.466   9.449   7.875  0.3787  0.2981 -0.6481
 6399SOL    HW124044   0.463   9.413   7.964  1.7705  0.5129 -0.5021
 6399SOL    HW224045   0.379   9.486   7.861  0.0087 -0.1351  0.4564
 6400SOL     OW24046   3.104   0.896   5.515  0.6876 -0.4779 -0.5906
 6400SOL    HW124047   3.199   0.893   5.521  0.8172 -0.9792 -2.6126
 6400SOL    HW224048   3.086   0.951   5.439 -0.6846  0.9521  0.7382
 6401SOL     OW24049   3.459   1.361   5.903 -0.0466  0.2952  0.1907
 6401SOL    HW124050   3.500   1.285   5.944  1.2776  1.8708  1.9158
 6401SOL    HW224051   3.372   1.366   5.944 -0.8679 -1.3448 -1.3072
 6402SOL     OW24052   3.841   2.042   6.325 -0.0856  0.3484 -0.8751
 6402SOL    HW124053   3.792   1.963   6.300  1.2170 -0.7672 -0.0106
 6402SOL    HW224054   3.774   2.107   6.343 -1.1938 -0.5503 -1.6802
 6403SOL     OW24055   1.739   0.725   5.298  0.0139 -0.0969  0.1287
 6403SOL    HW124056   1.717   0.745   5.207  0.6848  0.3325  0.0624
 6403SOL    HW224057   1.834   0.717   5.299  0.0944  0.8500  0.9691
 6404SOL     OW24058   4.496   9.417   5.537 -0.6519 -0.0924 -0.3972
 6404SOL    HW124059   4.582   9.422   5.578  1.4553 -0.2401 -4.5158
 6404SOL    HW224060   4.439   9.381   5.605  2.1455  1.5385  2.9544
 6405SOL     OW24061   1.348   0.128   6.690  0.4693 -0.2965  0.7767
 6405SOL    HW124062   1.411   0.057   6.703  1.0533  0.4269  1.9705
 6405SOL    HW224063   1.355   0.181   6.770 -0.2858  0.8479  0.0922
 6406SOL     OW24064   3.706   1.024   4.901 -0.1358  0.1742  0.1543
 6406SOL    HW124065   3.761   1.057   4.830 -0.4353 -0.6549 -0.4616
 6406SOL    HW224066   3.727   0.931   4.906 -0.2753  0.1855  1.0120
 6407SOL     OW24067   1.940   0.894   7.333  0.5615  0.3655 -0.3788
 6407SOL    HW124068   1.932   0.799   7.343  0.1574  0.4385  0.0119
 6407SOL    HW224069   1.934   0.909   7.239 -1.2723  0.1741 -0.2977
 6408SOL     OW24070   3.595   1.985   6.514 -0.2953  0.8077  0.6204
 6408SOL    HW124071   3.549   2.005   6.432  0.6968  2.6030  0.4738
 6408SOL    HW224072   3.533   2.007   6.583  0.2396  3.0770  0.4183
 6409SOL     OW24073   1.730   0.588   3.134 -0.3177  0.3768  0.4512
 6409SOL    HW124074   1.704   0.501   3.105 -3.1688  0.9482  1.1390
 6409SOL    HW224075   1.760   0.576   3.224 -2.1512  0.3092  1.0688
 6410SOL     OW24076   3.458   0.263   4.106  0.1535 -0.2438 -0.3612
 6410SOL    HW124077   3.493   0.350   4.129 -0.0171 -0.0503 -0.8145
 6410SOL    HW224078   3.394   0.243   4.174 -0.8683  0.6346 -1.0469
 6411SOL     OW24079   1.947   1.633   6.767  0.0228 -0.0233  0.9079
 6411SOL    HW124080   1.852   1.634   6.781 -0.0743  1.2100  0.2470
 6411SOL    HW224081   1.974   1.544   6.791 -1.3023 -0.3952  1.0670
 6412SOL     OW24082   3.979   0.169   7.562 -0.1590  0.3402 -0.2404
 6412SOL    HW124083   3.948   0.116   7.488 -0.2309 -0.0984  0.1031
 6412SOL    HW224084   3.924   0.248   7.559 -0.3383  0.2068 -0.4997
 6413SOL     OW24085   2.077   2.600   6.099 -0.6849 -0.7675 -0.2835
 6413SOL    HW124086   2.155   2.647   6.129 -0.3379 -1.5319  0.0438
 6413SOL    HW224087   2.010   2.667   6.090 -0.3465 -0.2805  0.6990
 6414SOL     OW24088   5.170   0.713   5.861  0.6143  0.1223 -0.2347
 6414SOL    HW124089   5.134   0.645   5.918  0.3357 -0.1391 -0.7270
 6414SOL    HW224090   5.114   0.789   5.876  0.9279  0.2478  0.3186
 6415SOL     OW24091   2.877   2.850   6.945 -0.0729  0.1094  0.4282
 6415SOL    HW124092   2.801   2.808   6.906 -1.6978  1.1439  2.4184
 6415SOL    HW224093   2.933   2.777   6.973 -1.5056 -0.6890  1.2292
 6416SOL     OW24094   3.197   1.270   4.215 -0.0202 -0.3144  0.0668
 6416SOL    HW124095   3.200   1.250   4.122 -0.5521 -1.2801  0.2507
 6416SOL    HW224096   3.264   1.337   4.227  0.8299 -0.9878 -0.8136
 6417SOL     OW24097   3.871   1.620   6.006  0.0972 -0.3761  0.4347
 6417SOL    HW124098   3.921   1.573   5.939  0.0452  1.9840 -1.3028
 6417SOL    HW224099   3.804   1.558   6.034 -0.7946 -0.9163 -2.7410
 6418SOL     OW24100   4.181   1.646   6.559 -0.5714  0.0778 -0.3793
 6418SOL    HW124101   4.168   1.562   6.603 -1.0757 -0.5119 -1.6380
 6418SOL    HW224102   4.269   1.642   6.524  0.1603  0.8981  1.2854
 6419SOL     OW24103   3.136   0.433   8.428 -0.3541 -0.4327 -0.5158
 6419SOL    HW124104   3.077   0.492   8.381 -0.9562 -0.2139  0.5158
 6419SOL    HW224105   3.111   0.346   8.398  0.2547 -0.2109 -1.7206
 6420SOL     OW24106   3.186   2.056   6.915 -0.0231 -0.1686  0.5434
 6420SOL    HW124107   3.271   2.018   6.892  0.0986 -0.1225  0.8988
 6420SOL    HW224108   3.178   2.133   6.859 -0.0145 -0.4063  0.2198
 6421SOL     OW24109   3.261   2.242   9.510  0.2968  0.3891  0.7578
 6421SOL    HW124110   3.176   2.237   9.554 -1.3195 -0.6725 -2.3000
 6421SOL    HW224111   3.281   2.151   9.487  0.5053  0.9803 -1.6118
 6422SOL     OW24112   2.600   1.629   8.056 -0.9102  0.4770 -0.0608
 6422SOL    HW124113   2.636   1.668   8.136  0.1121 -0.8379  0.1407
 6422SOL    HW224114   2.676   1.613   8.001 -1.0957 -2.6344  0.4928
 6423SOL     OW24115   2.647   2.359   5.985 -0.2393  0.1857  0.8923
 6423SOL    HW124116   2.676   2.268   5.994  0.1104  0.3771  1.7390
 6423SOL    HW224117   2.554   2.356   6.008 -1.2924 -0.6598 -3.1453
 6424SOL     OW24118   3.274   1.808   7.521  0.5581 -0.4667 -0.2203
 6424SOL    HW124119   3.191   1.763   7.538  0.6942 -0.5819  0.1606
 6424SOL    HW224120   3.333   1.774   7.589  0.7594  0.0236 -0.1483
 6425SOL     OW24121   3.363   0.998   7.974  0.2239 -0.6063  0.0478
 6425SOL    HW124122   3.450   0.957   7.966 -0.7476 -2.8283  0.5551
 6425SOL    HW224123   3.313   0.937   8.028 -1.6202  0.7465 -0.1003
 6426SOL     OW24124   2.031   0.072   5.023 -0.3222  0.6239 -0.3056
 6426SOL    HW124125   1.999   0.018   4.951 -0.6996  1.2005 -0.5722
 6426SOL    HW224126   1.963   0.065   5.091 -0.5288  1.0382 -0.4728
 6427SOL     OW24127   2.243   1.224   7.369  0.1839 -0.2120  0.1488
 6427SOL    HW124128   2.258   1.133   7.345  1.1292  0.4537 -1.8407
 6427SOL    HW224129   2.186   1.258   7.300  1.8598  1.3758 -0.4908
 6428SOL     OW24130   3.334   0.940   6.948 -0.2406 -0.4284 -0.2706
 6428SOL    HW124131   3.300   0.980   7.027 -1.5600 -1.0595 -0.4988
 6428SOL    HW224132   3.402   1.000   6.917 -1.7879  1.3324 -0.3090
 6429SOL     OW24133   3.830   1.700   6.665 -0.6728 -0.4524  0.0832
 6429SOL    HW124134   3.766   1.663   6.606 -2.7519  2.7962  0.1930
 6429SOL    HW224135   3.889   1.750   6.609 -1.9066  1.5964  0.5594
 6430SOL     OW24136   3.287   1.348   5.160  0.1953  0.2445 -0.3125
 6430SOL    HW124137   3.344   1.357   5.237  0.2340  2.7360 -0.5862
 6430SOL    HW224138   3.199   1.360   5.194  0.2086  1.2874 -0.6251
 6431SOL     OW24139   1.770   0.715   5.927 -0.2608  0.4425  0.4728
 6431SOL    HW124140   1.682   0.724   5.964 -0.2513  0.5508  0.4719
 6431SOL    HW224141   1.785   0.799   5.883 -0.9601 -0.3258 -1.2662
 6432SOL     OW24142   3.292   3.289   5.058 -0.7041 -0.3456 -0.3741
 6432SOL    HW124143   3.343   3.213   5.028 -2.1531 -0.8614 -1.6215
 6432SOL    HW224144   3.283   3.276   5.153 -0.9358 -1.7595 -0.5703
 6433SOL     OW24145   2.508   2.313   5.532 -0.2992 -0.5830  0.1059
 6433SOL    HW124146   2.464   2.340   5.612 -1.1454  0.0514 -0.5731
 6433SOL    HW224147   2.474   2.371   5.464  0.6151 -0.9315 -0.6712
 6434SOL     OW24148   1.640   0.306   6.114 -0.9147  0.0373 -0.1131
 6434SOL    HW124149   1.676   0.353   6.189 -1.2333  1.0871 -0.6081
 6434SOL    HW224150   1.564   0.259   6.149  0.9329 -2.2765  0.9658
 6435SOL     OW24151   2.083   1.544   7.119  0.0332 -0.7906 -0.1599
 6435SOL    HW124152   2.025   1.475   7.084  0.4167 -0.7520 -0.8745
 6435SOL    HW224153   2.075   1.616   7.056  0.0576 -0.3913  0.2966
 6436SOL     OW24154   4.473   1.372   7.282 -0.1367  0.2427 -0.0220
 6436SOL    HW124155   4.463   1.412   7.369 -2.2474 -1.3630  0.5447
 6436SOL    HW224156   4.417   1.424   7.225 -1.5164 -0.8105  0.3474
 6437SOL     OW24157   1.921   9.497   8.026  0.1067  0.1803  0.6010
 6437SOL    HW124158   1.974   9.571   7.997 -0.7152 -0.0585 -1.6128
 6437SOL    HW224159   1.831   9.522   8.006 -0.0316 -2.1592 -2.0232
 6438SOL     OW24160   2.523   1.678   7.439  0.4307  0.2398  0.1982
 6438SOL    HW124161   2.466   1.607   7.408 -0.9253  2.5283 -2.8064
 6438SOL    HW224162   2.477   1.712   7.516 -1.1736  0.6225 -0.8927
 6439SOL     OW24163   1.674   0.645   5.038  0.0677 -0.0102  0.8055
 6439SOL    HW124164   1.583   0.618   5.052  0.5012 -0.7529  2.3539
 6439SOL    HW224165   1.688   0.636   4.944 -1.8131  1.2644  0.3749
 6440SOL     OW24166   2.648   0.790   6.552 -0.0163 -1.2183 -0.0607
 6440SOL    HW124167   2.628   0.717   6.610 -1.3544 -0.6505  0.2258
 6440SOL    HW224168   2.600   0.769   6.471  0.7618 -1.3537 -0.4932
 6441SOL     OW24169   4.852   8.887   5.166 -0.5984  0.3021 -0.5063
 6441SOL    HW124170   4.909   8.964   5.167  1.9747 -1.5363 -0.7411
 6441SOL    HW224171   4.837   8.867   5.258 -0.6747  0.6440 -0.4436
 6442SOL     OW24172   2.581   9.166   7.215 -0.7209 -0.4855 -0.1752
 6442SOL    HW124173   2.490   9.144   7.238 -0.9980  0.6043 -0.1939
 6442SOL    HW224174   2.605   9.235   7.277 -0.2901  0.0244 -0.9030
 6443SOL     OW24175   3.956   1.495   5.726  0.4627  0.7810 -0.7903
 6443SOL    HW124176   3.936   1.434   5.655  2.1196 -0.3115 -0.3646
 6443SOL    HW224177   4.050   1.510   5.718  0.9229 -0.2991  1.8654
 6444SOL     OW24178   2.206   0.819   8.479 -0.2219 -0.1873 -0.0665
 6444SOL    HW124179   2.129   0.864   8.444  0.2097  0.4477 -0.2164
 6444SOL    HW224180   2.242   0.880   8.544 -0.0792 -0.6515  0.2946
 6445SOL     OW24181   3.877   2.338   5.972  0.2119  0.9680  0.0332
 6445SOL    HW124182   3.796   2.291   5.953  1.0347  0.0665 -1.3475
 6445SOL    HW224183   3.849   2.428   5.988 -0.8849  1.0900 -2.3761
 6446SOL     OW24184   3.700   1.546   7.754 -0.1470  0.0422 -0.0365
 6446SOL    HW124185   3.754   1.487   7.805 -2.1575 -0.5830  1.4024
 6446SOL    HW224186   3.739   1.633   7.768  1.3941 -0.6047 -0.2757
 6447SOL     OW24187   4.416   1.621   8.109 -0.3890 -0.3994  0.1322
 6447SOL    HW124188   4.351   1.588   8.047 -0.0630 -1.0148  0.1140
 6447SOL    HW224189   4.387   1.588   8.194 -0.2132 -0.5078  0.1498
 6448SOL     OW24190   2.785   0.905   6.136  0.6309  0.5213  0.4920
 6448SOL    HW124191   2.716   0.840   6.149 -0.9933  2.1562  0.2863
 6448SOL    HW224192   2.740   0.989   6.141  2.3971  1.5998 -1.0469
 6449SOL     OW24193   3.654   1.454   6.125 -0.2527 -0.1588  0.2082
 6449SOL    HW124194   3.574   1.508   6.128 -0.1439  0.0146 -0.0209
 6449SOL    HW224195   3.627   1.374   6.080  0.0229  0.4451 -1.0636
 6450SOL     OW24196   2.870   0.868   5.641 -0.1325 -0.9044 -0.1502
 6450SOL    HW124197   2.953   0.880   5.595  0.6964  0.1203  1.5550
 6450SOL    HW224198   2.826   0.953   5.635  0.1737 -0.6269  1.2824
 6451SOL     OW24199   2.266   0.748   6.057  0.7228  0.4761 -0.2722
 6451SOL    HW124200   2.274   0.660   6.021  1.4832  0.7731 -0.8284
 6451SOL    HW224201   2.229   0.734   6.145  0.5072 -0.3653 -0.4909
 6452SOL     OW24202   2.979   0.450   8.981 -0.4332 -0.1378 -0.5313
 6452SOL    HW124203   2.989   0.423   8.890 -1.1898  0.4897 -0.8005
 6452SOL    HW224204   2.884   0.453   8.995 -0.3170 -0.3698  0.3129
 6453SOL     OW24205   2.729   1.339   8.484  0.2603 -0.5137 -0.1338
 6453SOL    HW124206   2.758   1.396   8.412 -0.7866 -0.3218 -0.4115
 6453SOL    HW224207   2.740   1.250   8.449  1.6405 -0.4864  0.2050
 6454SOL     OW24208   1.412   0.740   6.765  0.2804  0.2098  0.5099
 6454SOL    HW124209   1.435   0.648   6.770  1.2126  0.4821  1.4778
 6454SOL    HW224210   1.496   0.786   6.763 -0.1729  1.0720  0.9027
 6455SOL     OW24211   3.824   0.873   6.021 -0.6783  0.0912  0.1675
 6455SOL    HW124212   3.829   0.942   6.087  0.9421 -1.4837  1.7271
 6455SOL    HW224213   3.749   0.819   6.048 -0.9016  0.2714 -0.0923
 6456SOL     OW24214   2.984   0.066   6.366  0.0844 -0.1397  0.5754
 6456SOL    HW124215   2.968  -0.014   6.417 -1.0241 -0.1409  0.2332
 6456SOL    HW224216   2.897   0.102   6.351  0.5061  0.5408 -0.2321
 6457SOL     OW24217   3.038   9.673   4.193  0.3665  0.0735  0.3000
 6457SOL    HW124218   3.070   9.763   4.185  0.6640 -0.1307 -0.8724
 6457SOL    HW224219   2.990   9.657   4.112 -2.5476  0.2915  1.9140
 6458SOL     OW24220   4.674   1.089   8.027  0.3541 -0.0179  0.0304
 6458SOL    HW124221   4.737   1.136   8.082  0.6322 -1.4922  1.0003
 6458SOL    HW224222   4.594   1.140   8.032  1.2043  1.3986 -0.5018
 6459SOL     OW24223   2.853   1.560   6.578  0.2666  0.7846  0.3183
 6459SOL    HW124224   2.937   1.592   6.543  0.2931  1.3687  0.8996
 6459SOL    HW224225   2.860   1.574   6.672  0.3421 -1.1328  0.6208
 6460SOL     OW24226   4.782   2.119   6.534  0.6672 -0.2311 -0.2505
 6460SOL    HW124227   4.860   2.161   6.497  0.7980  0.1966  0.5043
 6460SOL    HW224228   4.817   2.047   6.586  0.4015 -1.8311 -2.2298
 6461SOL     OW24229   1.934   1.781   6.504 -0.6852 -0.3656 -0.0173
 6461SOL    HW124230   1.843   1.754   6.498 -0.7497  0.0685 -1.0564
 6461SOL    HW224231   1.952   1.783   6.598 -1.2204 -2.1767  0.1464
 6462SOL     OW24232   2.127   1.051   6.405 -0.4328  0.0362 -0.5555
 6462SOL    HW124233   2.061   1.119   6.422 -0.1573  0.2229 -0.2259
 6462SOL    HW224234   2.099   0.977   6.458 -0.1098  0.2830 -0.0407
 6463SOL     OW24235   2.004   1.380   7.494  0.4137 -0.5042  0.1917
 6463SOL    HW124236   1.971   1.299   7.454 -1.0611 -0.6460  1.6908
 6463SOL    HW224237   2.070   1.349   7.556  0.3009 -0.5037  0.3100
 6464SOL     OW24238   2.237   0.653   6.335 -0.3868 -0.5621 -0.5110
 6464SOL    HW124239   2.158   0.599   6.326 -1.1786  0.5704 -0.5171
 6464SOL    HW224240   2.212   0.721   6.397  1.1579 -1.2111  0.8559
 6465SOL     OW24241   3.321   1.261   6.662  0.4377  0.1550  0.1454
 6465SOL    HW124242   3.349   1.170   6.675 -0.5771 -0.1704  0.1425
 6465SOL    HW224243   3.401   1.313   6.670  1.1880 -0.8311 -0.8418
 6466SOL     OW24244   3.943   1.582   8.823  0.5055 -0.1494 -0.0251
 6466SOL    HW124245   3.965   1.498   8.865  2.3703  0.5545  0.4877
 6466SOL    HW224246   4.014   1.596   8.760 -1.4852 -0.4647 -2.3988
 6467SOL     OW24247   2.162   0.432   4.958  0.1894  0.3398  0.2073
 6467SOL    HW124248   2.092   0.473   5.009  0.6742  0.1151  1.0644
 6467SOL    HW224249   2.206   0.505   4.914 -1.2422  0.3907 -1.1975
 6468SOL     OW24250   2.661   1.028   6.945  0.4113 -0.5800  0.3023
 6468SOL    HW124251   2.569   1.046   6.924  0.4951 -0.2970  0.1727
 6468SOL    HW224252   2.710   1.096   6.898  0.6295 -0.1959  1.0730
 6469SOL     OW24253   3.394   2.050   8.608  0.1390 -0.0348  0.0945
 6469SOL    HW124254   3.369   2.083   8.694  1.2105  1.0454  0.0096
 6469SOL    HW224255   3.452   1.976   8.626  0.3155  0.1538  0.3030
 6470SOL     OW24256   3.001   0.727   6.444  0.1018 -0.0572  0.1140
 6470SOL    HW124257   2.996   0.738   6.349  0.0015 -0.9388  0.0217
 6470SOL    HW224258   2.978   0.636   6.460 -0.8717  0.3412  1.0742
 6471SOL     OW24259   4.001   0.850   5.576  0.4466 -0.0147  0.6002
 6471SOL    HW124260   3.945   0.819   5.647 -1.2673 -2.8713 -1.9156
 6471SOL    HW224261   3.981   0.944   5.570 -1.3696 -0.2637  2.1040
 6472SOL     OW24262   4.145   9.039   7.014  0.4988  0.1096 -0.2024
 6472SOL    HW124263   4.155   9.126   6.976  2.1186 -0.2857 -0.7266
 6472SOL    HW224264   4.107   9.055   7.101  2.5542  1.5205  0.4971
 6473SOL     OW24265   2.915   4.581   5.655 -0.2226  0.3355 -0.6141
 6473SOL    HW124266   2.966   4.561   5.577 -3.1187  0.4878 -2.6103
 6473SOL    HW224267   2.907   4.497   5.700 -0.0643 -0.1072 -1.4017
 6474SOL     OW24268   1.531   1.252   5.754 -0.3173  0.4135  0.0903
 6474SOL    HW124269   1.512   1.287   5.841 -2.3780 -0.1208 -0.1203
 6474SOL    HW224270   1.521   1.157   5.763  0.7518  0.2538 -0.4156
 6475SOL     OW24271   3.571   0.830   6.636 -0.0220 -0.1833  0.3471
 6475SOL    HW124272   3.570   0.922   6.662  0.1485  0.4622 -1.8233
 6475SOL    HW224273   3.532   0.829   6.548  1.9603 -1.8614 -0.5802
 6476SOL     OW24274   2.957   3.248   5.904  0.4638  0.6562  0.5639
 6476SOL    HW124275   2.995   3.162   5.920  1.5573  0.4386 -2.7952
 6476SOL    HW224276   2.918   3.273   5.988  1.9812 -2.1489  2.1853
 6477SOL     OW24277   4.054   9.675   7.858  0.5422  0.5565 -0.4189
 6477SOL    HW124278   4.045   9.750   7.799  1.6640 -1.1284 -2.8383
 6477SOL    HW224279   3.966   9.660   7.892  0.2119  2.6444 -0.2608
 6478SOL     OW24280   1.325   0.384   5.225  0.3845 -0.2868  0.6277
 6478SOL    HW124281   1.377   0.319   5.274 -0.3936 -1.1466  0.3338
 6478SOL    HW224282   1.251   0.334   5.191 -1.3206  1.1759  2.0861
 6479SOL     OW24283   1.708   1.628   5.491 -0.0845  0.2942  0.4711
 6479SOL    HW124284   1.800   1.654   5.490 -0.2484  0.9514 -2.6514
 6479SOL    HW224285   1.659   1.710   5.496 -0.4985  0.2404 -1.8507
 6480SOL     OW24286   0.930   0.866   6.392 -0.3175 -0.3278 -0.4319
 6480SOL    HW124287   0.844   0.893   6.359 -0.6046 -0.7113  0.0043
 6480SOL    HW224288   0.923   0.772   6.404 -0.6894 -0.0209  2.0910
 6481SOL     OW24289   2.983   0.277   6.721 -1.2509  0.6682  0.4612
 6481SOL    HW124290   2.962   0.340   6.790 -2.3300 -1.1255  1.8210
 6481SOL    HW224291   2.928   0.201   6.740  0.3439 -0.8749 -0.8722
 6482SOL     OW24292   2.478   1.006   6.533 -0.0218  0.4146 -0.3090
 6482SOL    HW124293   2.411   0.990   6.600 -0.8282  1.6221 -0.8216
 6482SOL    HW224294   2.550   0.947   6.558 -0.0597  1.2557  1.9592
 6483SOL     OW24295   3.508   0.712   6.377  0.2019  0.0220 -0.1625
 6483SOL    HW124296   3.413   0.716   6.374  0.1802 -0.0962  0.3237
 6483SOL    HW224297   3.534   0.684   6.289 -0.2091  0.0371 -0.2897
 6484SOL     OW24298   2.608   1.574   5.660 -0.6503 -0.0661 -0.4451
 6484SOL    HW124299   2.601   1.534   5.746  2.2116 -2.3681 -1.1822
 6484SOL    HW224300   2.552   1.519   5.604  0.8665 -1.2465 -0.8488
 6485SOL     OW24301   2.504   0.210   8.558 -0.1842  0.1216  0.1906
 6485SOL    HW124302   2.533   0.248   8.475 -0.5639  0.2015  0.0954
 6485SOL    HW224303   2.547   0.125   8.562 -0.2376  0.0806 -0.1294
 6486SOL     OW24304   3.230   2.204   7.161  0.1436  0.0265 -0.3295
 6486SOL    HW124305   3.318   2.224   7.129  0.3981 -1.8713 -0.8966
 6486SOL    HW224306   3.196   2.139   7.100 -0.5513 -1.3652  1.4986
 6487SOL     OW24307   2.048   0.166   8.131 -0.4839 -0.0298  0.0732
 6487SOL    HW124308   1.978   0.226   8.106  1.1314  1.3923 -1.1361
 6487SOL    HW224309   2.070   0.192   8.221 -2.0088 -0.9909  0.7382
 6488SOL     OW24310   2.134   1.186   6.881 -0.2907  0.1795 -0.2461
 6488SOL    HW124311   2.054   1.134   6.871 -0.4769  0.0191  1.8049
 6488SOL    HW224312   2.103   1.277   6.885 -0.3776  0.1252  0.4344
 6489SOL     OW24313   1.775   1.794   4.207  0.2177 -0.2861 -0.6359
 6489SOL    HW124314   1.812   1.755   4.287  3.2184  0.7189 -1.4613
 6489SOL    HW224315   1.733   1.874   4.236 -2.6039 -2.1086  0.5224
 6490SOL     OW24316   2.585   0.435   7.263  0.3254  0.1791 -0.0259
 6490SOL    HW124317   2.500   0.454   7.302 -0.5872 -0.4244 -1.6422
 6490SOL    HW224318   2.600   0.506   7.200  0.7066 -0.0740 -0.2285
 6491SOL     OW24319   2.294   0.157   5.895 -0.1738  0.3225  0.3879
 6491SOL    HW124320   2.335   0.156   5.808 -0.8892 -0.9640  0.0634
 6491SOL    HW224321   2.200   0.153   5.878 -0.4284  2.3710  1.1665
 6492SOL     OW24322   3.189   0.977   4.035 -0.2022  0.5167 -0.6402
 6492SOL    HW124323   3.137   0.992   3.956  0.3777 -0.1224 -1.1609
 6492SOL    HW224324   3.245   0.902   4.012 -1.2277 -0.7651  0.9780
 6493SOL     OW24325   2.445   1.428   7.035  0.3369  0.0312 -0.6118
 6493SOL    HW124326   2.353   1.454   7.025  0.1356 -0.4180  0.0292
 6493SOL    HW224327   2.445   1.334   7.014  0.6126 -0.0161 -0.4047
 6494SOL     OW24328   2.555   1.198   7.686 -0.2787 -0.2665 -0.2175
 6494SOL    HW124329   2.553   1.262   7.615 -1.8661  1.2679  1.1548
 6494SOL    HW224330   2.511   1.121   7.650  0.1994 -0.0224 -1.3507
 6495SOL     OW24331   3.230   1.689   8.946  0.1834 -0.4463 -0.1559
 6495SOL    HW124332   3.313   1.656   8.980 -0.1880 -0.6342  0.5983
 6495SOL    HW224333   3.166   1.666   9.014 -0.7022 -1.4166 -1.3014
 6496SOL     OW24334   3.324   2.299   6.799 -0.7021  0.0737  0.4510
 6496SOL    HW124335   3.354   2.230   6.740  0.7309 -0.0931  1.3546
 6496SOL    HW224336   3.244   2.333   6.758 -0.8382 -1.4080 -0.5330
 6497SOL     OW24337   2.870   1.135   7.422  0.4541  0.3534 -0.1991
 6497SOL    HW124338   2.916   1.129   7.339  0.9053 -0.4879  0.0954
 6497SOL    HW224339   2.787   1.089   7.407 -0.2654  1.8026 -0.7077
 6498SOL     OW24340   2.934   1.048   3.883  0.3728  0.6464 -0.0153
 6498SOL    HW124341   2.838   1.048   3.881  0.3766 -0.3962 -0.3413
 6498SOL    HW224342   2.961   1.052   3.791  0.6177 -2.3911 -0.1225
 6499SOL     OW24343   2.056   1.222   7.172  0.4507 -0.0712  0.1969
 6499SOL    HW124344   1.962   1.224   7.189  0.2881 -0.0132 -0.6754
 6499SOL    HW224345   2.064   1.180   7.087  1.3513 -1.7976  1.1092
 6500SOL     OW24346   3.743   1.854   7.816  0.2542 -0.0369  0.0074
 6500SOL    HW124347   3.738   1.949   7.825 -0.2367 -0.1855  1.2904
 6500SOL    HW224348   3.653   1.824   7.824  0.0613 -0.4096 -2.9536
 6501SOL     OW24349   3.964   0.394   9.102 -0.2300  0.8600 -0.6422
 6501SOL    HW124350   3.899   0.416   9.168  0.9878  1.8063  0.2752
 6501SOL    HW224351   4.029   0.340   9.148 -1.6104 -2.2226 -2.1457
 6502SOL     OW24352   4.241   1.946   6.665  0.3734 -0.5085 -0.2327
 6502SOL    HW124353   4.217   2.004   6.593  0.6929 -0.0839  0.0080
 6502SOL    HW224354   4.203   1.861   6.640  0.8771 -0.4775 -1.1225
 6503SOL     OW24355   2.234   2.607   5.846  0.0016  0.0039 -0.1531
 6503SOL    HW124356   2.148   2.568   5.858 -0.7883  1.0417 -2.2900
 6503SOL    HW224357   2.288   2.536   5.811 -0.0616 -0.5344  0.8065
 6504SOL     OW24358   1.480   1.080   6.143  0.1634 -0.0448  0.5653
 6504SOL    HW124359   1.522   1.155   6.102  1.2141 -0.4248  0.9123
 6504SOL    HW224360   1.479   1.013   6.075  2.4149 -0.8616  1.2833
 6505SOL     OW24361   2.734   0.688   5.820  0.4639 -0.4001  0.3223
 6505SOL    HW124362   2.771   0.766   5.778  1.6927 -2.6335 -2.9822
 6505SOL    HW224363   2.735   0.622   5.751 -1.9297 -2.9423  2.6225
 6506SOL     OW24364   5.252   2.478   7.895  0.1886  0.3109  0.5038
 6506SOL    HW124365   5.302   2.549   7.856  0.8193 -0.9810 -1.1319
 6506SOL    HW224366   5.162   2.495   7.867  0.2279  0.8625  0.7124
 6507SOL     OW24367   1.900   0.921   6.245  0.3898 -0.2809  0.4564
 6507SOL    HW124368   1.921   0.940   6.337 -1.0789  0.3137  0.6716
 6507SOL    HW224369   1.847   0.995   6.216  1.3672 -0.1523 -1.0832
 6508SOL     OW24370   3.371   1.747   5.525 -0.2529 -0.9064  0.4978
 6508SOL    HW124371   3.290   1.703   5.553 -0.4728 -0.5835  0.3819
 6508SOL    HW224372   3.438   1.679   5.528 -0.5617 -1.2145  0.4502
 6509SOL     OW24373   3.287   1.531   8.326  0.2965  0.1569  0.5482
 6509SOL    HW124374   3.239   1.518   8.244  0.2913  1.6456  0.3103
 6509SOL    HW224375   3.356   1.464   8.324 -0.7210 -0.9063  0.1184
 6510SOL     OW24376   4.356   2.172   7.887  0.2912 -0.3272 -0.2463
 6510SOL    HW124377   4.445   2.160   7.854  0.0377 -1.2742 -0.6149
 6510SOL    HW224378   4.367   2.187   7.981  0.7617 -2.1163  0.0095
 6511SOL     OW24379   1.737   0.512   6.277 -0.0871 -0.1386 -0.6385
 6511SOL    HW124380   1.659   0.548   6.319  0.7262 -0.2479  0.9858
 6511SOL    HW224381   1.788   0.589   6.252 -1.4408 -0.0125 -3.1746
 6512SOL     OW24382   2.466   1.138   5.678 -0.6193  0.3879  0.4057
 6512SOL    HW124383   2.467   1.233   5.672 -2.2215  0.3054 -1.5427
 6512SOL    HW224384   2.390   1.118   5.734 -1.7171  0.1935 -1.1253
 6513SOL     OW24385   3.131   9.659   6.135 -0.2487  0.1065  0.3438
 6513SOL    HW124386   3.110   9.705   6.217 -2.1303  1.9472 -1.1252
 6513SOL    HW224387   3.184   9.722   6.086  1.2294 -1.1510  0.2779
 6514SOL     OW24388   3.418   0.347   7.069 -0.4460  0.5247 -0.0015
 6514SOL    HW124389   3.409   0.442   7.076 -2.7490  0.4647 -1.4940
 6514SOL    HW224390   3.397   0.327   6.977 -0.7628 -1.4951  0.4748
 6515SOL     OW24391   3.075   1.311   3.597  0.2376  0.1359  0.5826
 6515SOL    HW124392   3.136   1.383   3.583 -0.8983  1.4103  2.0080
 6515SOL    HW224393   3.005   1.326   3.534  0.2439  0.0257  0.5502
 6516SOL     OW24394   3.205   1.289   6.143 -0.0139 -0.3544 -0.3440
 6516SOL    HW124395   3.111   1.310   6.141  0.2762  1.1449  0.3807
 6516SOL    HW224396   3.222   1.269   6.235  0.7267  1.2014 -0.1218
 6517SOL     OW24397   4.326   2.091   6.277  0.0232  0.2954 -0.1085
 6517SOL    HW124398   4.403   2.143   6.251  0.8292 -0.4151  0.8151
 6517SOL    HW224399   4.275   2.081   6.196  1.1929  0.2821 -0.8582
 6518SOL     OW24400   3.997   0.539   6.226  0.6180  0.5480  0.2971
 6518SOL    HW124401   3.997   0.497   6.140  1.9268  1.2046 -0.0313
 6518SOL    HW224402   3.906   0.533   6.255  0.0803  0.7127 -1.3116
 6519SOL     OW24403   3.455   9.974   4.909 -0.3207 -0.6038 -0.2285
 6519SOL    HW124404   3.420   9.974   4.821  1.1827 -0.5263 -0.8425
 6519SOL    HW224405   3.451  10.066   4.937 -0.6130 -0.5981 -0.2889
 6520SOL     OW24406   3.252   1.099   4.451 -0.2151 -0.3031  0.0118
 6520SOL    HW124407   3.205   1.164   4.505 -1.9999 -3.0751  1.9555
 6520SOL    HW224408   3.207   1.102   4.367  1.6579  3.0553 -0.9602
 6521SOL     OW24409   3.148   0.771   5.237  0.1091 -0.2446  0.3966
 6521SOL    HW124410   3.080   0.749   5.301  1.2960 -0.4596  1.5970
 6521SOL    HW224411   3.227   0.728   5.270  0.8252 -0.0462 -1.0174
 6522SOL     OW24412   2.949   0.566   6.830 -0.6394  0.3065  0.6759
 6522SOL    HW124413   2.950   0.564   6.735  0.5537 -1.8870  0.6987
 6522SOL    HW224414   2.886   0.635   6.852 -1.6565  0.1786 -1.6792
 6523SOL     OW24415   1.546   0.524   7.490 -0.2625  0.9048 -0.4842
 6523SOL    HW124416   1.528   0.551   7.581 -0.7855  0.8294 -0.5621
 6523SOL    HW224417   1.475   0.564   7.439 -1.2459 -0.8996 -0.5560
 6524SOL     OW24418   2.676   0.561   7.815  0.1931  0.4751 -0.5330
 6524SOL    HW124419   2.605   0.616   7.849  0.5931  1.0565 -0.6356
 6524SOL    HW224420   2.721   0.529   7.893  1.2462  1.9857 -0.5048
 6525SOL     OW24421   3.769   1.411   0.062 -0.0958  0.3346  0.4049
 6525SOL    HW124422   3.824   1.479   0.023  0.2083  0.2026  0.5960
 6525SOL    HW224423   3.800   1.405   0.153 -0.0830 -0.0954  0.3749
 6526SOL     OW24424   2.882   1.867   7.877  0.2270  0.0125 -0.1584
 6526SOL    HW124425   2.832   1.787   7.891  0.2104  0.2358  1.0978
 6526SOL    HW224426   2.816   1.935   7.867  0.2512 -0.0406 -0.6967
 6527SOL     OW24427   3.442   9.990   8.305 -0.3106  0.1979  0.1068
 6527SOL    HW124428   3.424   9.896   8.306  0.4922  0.0459  1.2466
 6527SOL    HW224429   3.500  10.004   8.380  2.5102  1.0292 -2.1420
 6528SOL     OW24430   2.354   1.067   8.152 -0.8012  0.2479 -0.1488
 6528SOL    HW124431   2.426   1.066   8.089 -0.0960  0.4305  0.6385
 6528SOL    HW224432   2.336   0.975   8.170  1.4191  0.1804  2.0679
 6529SOL     OW24433   2.234   2.195   7.587  0.1281  0.0140 -0.7732
 6529SOL    HW124434   2.192   2.153   7.512  1.9563 -2.2188 -0.5878
 6529SOL    HW224435   2.174   2.178   7.660  0.0817 -0.8884 -1.0183
 6530SOL     OW24436   0.582   1.240   8.832 -0.5666  0.3818 -0.2328
 6530SOL    HW124437   0.537   1.320   8.805 -0.5515  0.0924 -1.1078
 6530SOL    HW224438   0.609   1.199   8.751  1.0420  0.4100  0.2652
 6531SOL     OW24439   2.378   1.580   0.311 -0.8271 -0.0583 -0.3603
 6531SOL    HW124440   2.328   1.534   0.243  1.5234 -1.0565 -1.4554
 6531SOL    HW224441   2.444   1.517   0.339 -0.6265  0.9869  1.5806
 6532SOL     OW24442   2.856   0.896   9.831 -0.0176  0.6557 -0.1982
 6532SOL    HW124443   2.894   0.821   9.876 -0.0346  0.9742  0.3595
 6532SOL    HW224444   2.779   0.919   9.883 -0.5686  0.4565 -0.9180
 6533SOL     OW24445   3.280   0.667   7.921 -0.1485  0.3997 -0.2636
 6533SOL    HW124446   3.303   0.752   7.883  1.1548  0.3118  0.2981
 6533SOL    HW224447   3.301   0.604   7.852 -0.4548  0.4778 -0.4279
 6534SOL     OW24448   0.741   1.762   8.170  0.1751  0.1696 -0.2889
 6534SOL    HW124449   0.710   1.687   8.119 -0.6429  1.5091 -1.8016
 6534SOL    HW224450   0.663   1.795   8.216  0.7552 -0.5698  1.2727
 6535SOL     OW24451   2.960   2.471   8.342 -0.2484  0.4532  0.5866
 6535SOL    HW124452   2.936   2.558   8.372 -1.9334  0.2500 -0.1392
 6535SOL    HW224453   2.889   2.444   8.284  0.2401 -1.4034  0.7934
 6536SOL     OW24454   9.424   1.488   8.393  0.0978 -0.0428 -0.7450
 6536SOL    HW124455   9.402   1.395   8.385 -2.5464  0.5986 -1.1549
 6536SOL    HW224456   9.465   1.510   8.309 -1.5691 -0.2285 -1.6120
 6537SOL     OW24457   3.711   1.557   9.407  0.1570 -0.1605  0.6975
 6537SOL    HW124458   3.802   1.528   9.394  0.3354  0.3593  0.7571
 6537SOL    HW224459   3.693   1.537   9.499 -0.0030 -0.8352  0.5248
 6538SOL     OW24460   3.469   1.050   8.327 -0.0433 -0.3789  0.0391
 6538SOL    HW124461   3.381   1.035   8.361 -0.0141 -0.7748 -0.0662
 6538SOL    HW224462   3.498   0.965   8.296  0.8696 -0.5116  1.2262
 6539SOL     OW24463   2.913   0.150   8.438 -0.1962  0.0756 -0.3875
 6539SOL    HW124464   2.858   0.219   8.475  0.3584  0.4685 -0.2988
 6539SOL    HW224465   2.855   0.104   8.377 -0.6052  0.5210 -0.3375
 6540SOL     OW24466   1.628   0.626   7.216  0.0394 -0.1990  0.1022
 6540SOL    HW124467   1.675   0.606   7.136  1.5394 -1.6474  1.3194
 6540SOL    HW224468   1.695   0.628   7.284 -0.7657  3.8029  0.9327
 6541SOL     OW24469   3.599   1.628   8.529  0.0015  0.2022 -0.1971
 6541SOL    HW124470   3.613   1.556   8.591  0.0763  1.5162  1.3651
 6541SOL    HW224471   3.663   1.613   8.460 -0.1800 -1.3910 -0.0397
 6542SOL     OW24472   3.046   1.877   6.589 -0.7511  0.1285  1.3351
 6542SOL    HW124473   3.127   1.928   6.590 -0.2429 -0.5599 -1.3877
 6542SOL    HW224474   3.070   1.795   6.632  0.4229 -0.6214 -0.6580
 6543SOL     OW24475   3.145   0.838   6.766 -0.5804 -0.1752  0.0407
 6543SOL    HW124476   3.208   0.881   6.824 -1.4243  2.0246 -0.6529
 6543SOL    HW224477   3.060   0.870   6.794 -1.3305 -2.1418  0.1223
 6544SOL     OW24478   2.919   2.884   7.841  0.1124  0.0871 -0.0521
 6544SOL    HW124479   2.876   2.799   7.839  1.1950 -0.4319 -2.0380
 6544SOL    HW224480   2.899   2.919   7.928 -2.7309 -0.9495 -0.2469
 6545SOL     OW24481   2.994   1.550   9.063 -0.4549  0.0101  0.8985
 6545SOL    HW124482   2.963   1.459   9.067 -1.9624  0.4336 -0.6600
 6545SOL    HW224483   2.930   1.600   9.114 -0.3219  0.3749  0.7124
 6546SOL     OW24484   1.970   0.237   7.764  0.7236 -0.3770 -0.3576
 6546SOL    HW124485   2.016   0.157   7.790 -0.1075 -1.4188 -2.0454
 6546SOL    HW224486   1.877   0.214   7.767  0.4795  0.4970 -0.9335
 6547SOL     OW24487   4.484   1.231   9.056  0.3237  0.5625 -0.1216
 6547SOL    HW124488   4.490   1.325   9.039 -0.7392  0.6898  0.1418
 6547SOL    HW224489   4.432   1.224   9.136 -0.1175 -0.2614 -0.4681
 6548SOL     OW24490   2.134   0.806   7.889 -0.0002 -0.3760 -0.2876
 6548SOL    HW124491   2.093   0.770   7.967 -2.2104  0.8707 -0.8172
 6548SOL    HW224492   2.106   0.898   7.888  1.8215  0.1795 -1.3527
 6549SOL     OW24493   2.801   0.757   7.219 -0.1573 -0.4934 -0.1493
 6549SOL    HW124494   2.706   0.744   7.228 -0.7775  1.5517 -2.9324
 6549SOL    HW224495   2.831   0.678   7.174 -0.4116 -1.4506  1.3311
 6550SOL     OW24496   2.427   1.718   8.659  0.5701 -0.0820 -0.0124
 6550SOL    HW124497   2.405   1.645   8.717  0.6364  0.1246  0.2718
 6550SOL    HW224498   2.384   1.696   8.576  2.3401 -1.4856 -0.5776
 6551SOL     OW24499   1.245   0.807   9.472  0.1911 -0.1517 -0.2279
 6551SOL    HW124500   1.274   0.722   9.440  3.1357  0.1931  1.2818
 6551SOL    HW224501   1.214   0.853   9.394  2.6007 -1.0796 -1.8027
 6552SOL     OW24502   3.130   2.738   9.220 -0.2387 -0.4734  0.8099
 6552SOL    HW124503   3.046   2.695   9.205  0.3094 -1.0554 -0.6562
 6552SOL    HW224504   3.190   2.667   9.238  0.1163 -0.1204  1.0119
 6553SOL     OW24505   2.935   2.625   0.778 -0.0742  0.3939  0.1839
 6553SOL    HW124506   2.871   2.628   0.849 -0.9817 -1.2120 -0.5299
 6553SOL    HW224507   3.002   2.563   0.809  0.2566  0.7571  0.2072
 6554SOL     OW24508   0.789   9.874   8.543  0.2106 -0.4394 -0.4709
 6554SOL    HW124509   0.700   9.858   8.510  0.6966 -2.2204 -0.9479
 6554SOL    HW224510   0.827   9.787   8.553  1.5505  0.2714  0.7430
 6555SOL     OW24511   4.250   1.026   8.045  0.5365  0.0455  0.0012
 6555SOL    HW124512   4.290   0.953   7.999  0.2116 -1.1061  1.5171
 6555SOL    HW224513   4.322   1.069   8.091  0.3500 -0.9288  1.2424
 6556SOL     OW24514   2.413   2.548   8.262 -0.8454 -0.1136 -0.2884
 6556SOL    HW124515   2.348   2.601   8.215 -1.5335 -0.1526  0.5927
 6556SOL    HW224516   2.363   2.507   8.333 -0.1425 -1.2680 -0.4516
 6557SOL     OW24517   2.018   0.386   1.187  0.0936 -0.8853  0.4105
 6557SOL    HW124518   1.926   0.391   1.213 -0.0849 -1.5852 -0.0828
 6557SOL    HW224519   2.015   0.359   1.095  0.7954 -0.9782  0.4171
 6558SOL     OW24520   3.373   0.666   0.017 -0.1928 -0.1778 -0.3401
 6558SOL    HW124521   3.293   0.656   0.069  0.9932 -2.8074  1.0902
 6558SOL    HW224522   3.411   0.748   0.049 -0.8565 -0.3888  1.0652
 6559SOL     OW24523   1.231   0.417   9.504 -0.1872  0.0548 -0.2568
 6559SOL    HW124524   1.268   0.470   9.434 -0.5859 -0.5597 -0.9345
 6559SOL    HW224525   1.303   0.405   9.565 -0.2609  1.9174  0.2357
 6560SOL     OW24526   1.912   9.982   7.988  0.1477  0.3775 -0.0318
 6560SOL    HW124527   1.962  10.038   8.047  0.8785  0.6608 -0.8959
 6560SOL    HW224528   1.821  10.001   8.007  0.3856  1.2220  0.2839
 6561SOL     OW24529   3.479   9.336   8.372 -0.4494 -0.5480  0.1158
 6561SOL    HW124530   3.387   9.360   8.361  0.1930  2.9064  1.6320
 6561SOL    HW224531   3.497   9.353   8.464  2.5602  2.2562 -0.8957
 6562SOL     OW24532   2.731   0.069   8.093  0.2543 -0.1030 -0.1682
 6562SOL    HW124533   2.710   0.083   8.000  0.6746  1.3590 -0.0535
 6562SOL    HW224534   2.739  -0.027   8.101 -0.9408 -0.3243 -1.3800
 6563SOL     OW24535   2.166   0.562   9.273 -0.1409  0.0407  0.3150
 6563SOL    HW124536   2.214   0.481   9.259 -1.8062 -0.9704  0.3453
 6563SOL    HW224537   2.101   0.541   9.341 -1.7522  0.8957 -0.9257
 6564SOL     OW24538   2.878   2.442   7.074  0.5733 -0.2186  0.5213
 6564SOL    HW124539   2.885   2.488   6.990 -0.7828 -0.0410  0.5047
 6564SOL    HW224540   2.814   2.373   7.058  0.7845 -0.5868  1.2395
 6565SOL     OW24541   2.236   1.225   7.884  0.2081  0.2884  0.1801
 6565SOL    HW124542   2.322   1.193   7.910  0.3484  0.8807  0.4354
 6565SOL    HW224543   2.245   1.245   7.791 -0.3413 -1.9797 -0.3964
 6566SOL     OW24544   3.760   1.134   7.650  0.4149  0.4063 -0.5152
 6566SOL    HW124545   3.843   1.101   7.616  0.9547  3.1278 -1.9993
 6566SOL    HW224546   3.784   1.178   7.732  0.1796 -0.2210 -0.1092
 6567SOL     OW24547   2.294   0.331   9.216 -0.3175  0.2085 -0.3273
 6567SOL    HW124548   2.286   0.237   9.233 -2.0236 -0.0101 -2.1581
 6567SOL    HW224549   2.388   0.347   9.216  0.0109 -1.5493 -0.1925
 6568SOL     OW24550   2.021   0.769   8.159  0.3543  0.5722  0.1319
 6568SOL    HW124551   1.925   0.770   8.159  0.3039 -1.2579  2.4796
 6568SOL    HW224552   2.046   0.853   8.197 -0.3713  0.2908  1.2569
 6569SOL     OW24553   3.599   9.881   6.768  0.4886 -0.2908  0.1308
 6569SOL    HW124554   3.608   9.864   6.674  0.7832  0.8812 -0.0643
 6569SOL    HW224555   3.617   9.975   6.777 -1.5051  0.0292  1.0827
 6570SOL     OW24556   3.611   1.601   0.274  0.1920 -0.2724 -0.1510
 6570SOL    HW124557   3.534   1.585   0.329  0.2611  1.3815  0.4802
 6570SOL    HW224558   3.602   1.539   0.201 -1.2675 -0.7184  0.3793
 6571SOL     OW24559   3.399   2.747   7.699 -0.0818  0.2319 -0.7531
 6571SOL    HW124560   3.354   2.691   7.635 -2.1913  1.0816 -0.0641
 6571SOL    HW224561   3.329   2.799   7.738  1.3455  0.6121  1.3772
 6572SOL     OW24562   1.983   2.251   8.185  0.3177  0.2483 -0.4593
 6572SOL    HW124563   2.040   2.250   8.261  0.6566  0.3699 -0.7116
 6572SOL    HW224564   2.037   2.216   8.114  0.1384  0.5407 -0.7397
 6573SOL     OW24565   2.218   0.904   7.343  0.4646  0.3508  0.6566
 6573SOL    HW124566   2.123   0.909   7.349  0.5261  1.3194  0.9425
 6573SOL    HW224567   2.235   0.830   7.285 -0.5603  2.8082 -2.9104
 6574SOL     OW24568   1.927   1.398   7.825  0.1478 -0.3647 -0.4890
 6574SOL    HW124569   1.969   1.314   7.843  0.9517  0.1579  0.0780
 6574SOL    HW224570   1.999   1.460   7.814 -0.4561  0.4285 -0.0592
 6575SOL     OW24571   2.276   0.453   7.290 -1.0266 -0.6595  0.1923
 6575SOL    HW124572   2.204   0.513   7.310 -0.4699 -0.3651  1.3193
 6575SOL    HW224573   2.250   0.371   7.333 -0.2123 -0.2563  1.4850
 6576SOL     OW24574   2.778   0.401   8.746 -0.1833  0.2182 -0.2400
 6576SOL    HW124575   2.688   0.380   8.770 -0.3472  1.8336  0.6309
 6576SOL    HW224576   2.769   0.473   8.683  0.4845 -0.0755 -0.6820
 6577SOL     OW24577   2.601   9.967   9.707 -0.4650 -0.5529 -0.3550
 6577SOL    HW124578   2.558  10.000   9.786 -1.3470 -0.0960 -1.0148
 6577SOL    HW224579   2.671  10.030   9.689 -1.1173  0.0791 -0.6952
 6578SOL     OW24580   3.156   9.980   7.553 -0.0413 -0.0716 -0.6968
 6578SOL    HW124581   3.120   9.970   7.641  0.6557 -0.4179 -0.4491
 6578SOL    HW224582   3.246  10.011   7.567  0.0238  0.0026 -1.2866
 6579SOL     OW24583   2.385   2.172   8.487  0.0108 -0.5780  0.0611
 6579SOL    HW124584   2.452   2.157   8.554  1.0748  1.6753 -0.4509
 6579SOL    HW224585   2.377   2.267   8.482 -2.1772 -0.7893 -0.9528
 6580SOL     OW24586   2.398   9.742   9.071 -0.4175 -0.2870  0.3398
 6580SOL    HW124587   2.372   9.731   8.979 -1.2045  0.7206  0.4396
 6580SOL    HW224588   2.350   9.674   9.117  0.7592 -1.4613 -0.1192
 6581SOL     OW24589   3.095   9.705   7.668  0.2204 -0.0414  0.3163
 6581SOL    HW124590   3.077   9.771   7.734  1.2175 -0.1772  0.7319
 6581SOL    HW224591   3.168   9.740   7.617 -0.6676  0.1533 -0.8534
 6582SOL     OW24592   3.540   1.409   8.693  0.2728 -0.6389 -0.0624
 6582SOL    HW124593   3.471   1.393   8.629  0.3859 -0.6889 -0.1732
 6582SOL    HW224594   3.499   1.395   8.778 -0.2282  0.6960 -0.0728
 6583SOL     OW24595   2.506   1.207   7.945 -0.6006  0.3949  0.4875
 6583SOL    HW124596   2.553   1.190   7.864 -1.1630  0.4922  0.1412
 6583SOL    HW224597   2.574   1.236   8.006  0.1722 -1.9146  0.7490
 6584SOL     OW24598   2.630   0.251   8.267  0.0316 -0.1804  0.4476
 6584SOL    HW124599   2.559   0.293   8.217  1.4520  1.3224 -0.3547
 6584SOL    HW224600   2.667   0.187   8.206  2.4807  2.4106 -0.9369
 6585SOL     OW24601   3.703   2.322   7.299 -0.0469  0.7402  0.2250
 6585SOL    HW124602   3.675   2.337   7.209  1.6664  3.6362  0.1140
 6585SOL    HW224603   3.625   2.337   7.352 -0.0822  3.4061 -0.4901
 6586SOL     OW24604   2.947   9.381   7.593 -0.0594 -0.0003 -0.3120
 6586SOL    HW124605   3.023   9.395   7.538  1.0374  0.6774  1.3293
 6586SOL    HW224606   2.955   9.291   7.623  0.6190  0.3672  0.6232
 6587SOL     OW24607   3.509   0.659   6.831  0.2085 -0.0899 -0.5378
 6587SOL    HW124608   3.523   0.710   6.752  1.6100  0.1430 -0.1650
 6587SOL    HW224609   3.526   0.569   6.805 -0.9067 -0.2141 -0.8681
 6588SOL     OW24610   1.652   0.398   9.017 -0.4292  0.0842 -0.0924
 6588SOL    HW124611   1.597   0.319   9.016 -0.6825  0.2679 -0.6086
 6588SOL    HW224612   1.613   0.455   8.951 -0.2686  0.6591  0.3053
 6589SOL     OW24613   2.944   2.546   7.801 -0.2144  0.5141 -0.2629
 6589SOL    HW124614   2.909   2.565   7.714 -1.0849 -0.5505 -0.1598
 6589SOL    HW224615   2.876   2.492   7.842  1.1067 -0.7138  0.3280
 6590SOL     OW24616   3.364   9.158   7.002  0.0356 -0.2990  0.1994
 6590SOL    HW124617   3.428   9.229   6.990 -1.6320  0.8423 -2.2288
 6590SOL    HW224618   3.322   9.179   7.086  0.0387  1.1950 -0.1488
 6591SOL     OW24619   3.257   2.650   8.152  0.4389 -0.0741 -0.1567
 6591SOL    HW124620   3.334   2.598   8.128  0.4835  0.2344 -0.6833
 6591SOL    HW224621   3.184   2.605   8.109  0.4291  0.0849 -0.3061
 6592SOL     OW24622   4.610   0.845   5.417 -0.2700 -0.1845  0.6766
 6592SOL    HW124623   4.612   0.768   5.359 -0.1757 -0.0538  0.5079
 6592SOL    HW224624   4.678   0.828   5.482 -0.2516 -0.2442  0.6418
 6593SOL     OW24625   1.151   1.649   0.306  0.2189  0.0706  0.3856
 6593SOL    HW124626   1.137   1.738   0.273 -0.8838  0.1689  1.0897
 6593SOL    HW224627   1.074   1.631   0.360 -0.3666 -1.9511 -1.0799
 6594SOL     OW24628   2.348   1.778   8.386  0.6062  0.1801 -0.5717
 6594SOL    HW124629   2.398   1.855   8.358  0.1930  0.9881  0.8894
 6594SOL    HW224630   2.367   1.712   8.319  1.5800  1.2988 -1.4226
 6595SOL     OW24631   2.857   8.987   8.132  0.0520 -0.0881  0.2466
 6595SOL    HW124632   2.815   8.914   8.178  1.5757 -0.3921  1.1861
 6595SOL    HW224633   2.862   9.056   8.197 -0.0086  0.3343 -0.1979
 6596SOL     OW24634   3.316   9.714   8.309  0.6386  0.4063 -0.5148
 6596SOL    HW124635   3.256   9.660   8.257  2.0555 -1.1700 -0.5309
 6596SOL    HW224636   3.262   9.745   8.382  0.1367 -2.1955  0.2740
 6597SOL     OW24637   3.457   1.838   7.890 -0.6578 -0.6650  0.3335
 6597SOL    HW124638   3.405   1.909   7.852  0.4191  0.1384  0.3269
 6597SOL    HW224639   3.395   1.767   7.904 -1.7651  0.3113  0.4200
 6598SOL     OW24640   2.505   0.874   9.619 -0.0314 -0.3773 -0.0422
 6598SOL    HW124641   2.413   0.899   9.610  0.3192  1.1982  0.7903
 6598SOL    HW224642   2.526   0.888   9.711  1.4907  0.7763 -0.5478
 6599SOL     OW24643   4.936   0.235   7.303  0.3648  0.0413  0.0321
 6599SOL    HW124644   4.884   0.308   7.270 -0.8922 -1.4654 -1.4306
 6599SOL    HW224645   4.942   0.250   7.397 -1.8456  0.8038  0.0756
 6600SOL     OW24646   2.949   1.578   6.851 -0.1960 -0.6781  0.7230
 6600SOL    HW124647   2.999   1.501   6.823  1.1024  0.4081 -0.0185
 6600SOL    HW224648   3.004   1.618   6.918 -0.1946  0.3773  0.0966
 6601SOL     OW24649   3.317   1.417   0.181 -0.2753  0.0114 -0.7093
 6601SOL    HW124650   3.404   1.380   0.195 -0.2448  0.6817  1.0544
 6601SOL    HW224651   3.308   1.483   0.250 -2.1840 -0.0662 -0.8530
 6602SOL     OW24652   3.366   1.255   7.262  0.5683 -0.4237  0.2444
 6602SOL    HW124653   3.453   1.228   7.232  0.2766 -0.1953 -0.8409
 6602SOL    HW224654   3.306   1.220   7.195 -0.1309 -0.2228  0.7604
 6603SOL     OW24655   2.833   0.434   8.113  0.3848 -0.2385  0.4257
 6603SOL    HW124656   2.868   0.494   8.179  0.0456  1.5485 -0.9599
 6603SOL    HW224657   2.740   0.426   8.135  0.4880 -0.4670  0.7765
 6604SOL     OW24658   4.320   0.975   9.507 -0.0865  0.0227  0.6772
 6604SOL    HW124659   4.350   1.054   9.551 -0.5630  0.6423 -0.1072
 6604SOL    HW224660   4.225   0.974   9.522 -0.2802  0.3243 -0.4597
 6605SOL     OW24661   3.270   0.695   8.845 -0.2289 -0.0345  0.4875
 6605SOL    HW124662   3.219   0.626   8.803  1.0831 -0.9046  0.3054
 6605SOL    HW224663   3.290   0.661   8.932 -0.5611  0.6000  0.8170
 6606SOL     OW24664   2.470   2.248   8.975 -0.1348 -0.1651 -0.0901
 6606SOL    HW124665   2.531   2.253   8.901  0.4782  0.1829  0.4288
 6606SOL    HW224666   2.434   2.337   8.982 -0.0026 -0.1313  0.1801
 6607SOL     OW24667   3.744   1.420   8.970  0.2059 -0.0757  0.4242
 6607SOL    HW124668   3.706   1.457   8.891 -0.5713  0.6654  1.1281
 6607SOL    HW224669   3.741   1.325   8.958 -2.4623 -0.0452  0.7364
 6608SOL     OW24670   2.282   1.494   7.428 -0.5061  0.4074  0.1729
 6608SOL    HW124671   2.211   1.555   7.407  0.5993  1.3266 -0.9848
 6608SOL    HW224672   2.243   1.407   7.414 -0.9621  0.9227 -1.9970
 6609SOL     OW24673   3.411   9.966   9.093 -0.0191  0.4731 -0.1014
 6609SOL    HW124674   3.354   9.993   9.022 -0.9559  2.0025  1.1846
 6609SOL    HW224675   3.351   9.939   9.163  0.8763 -2.3183 -0.3237
 6610SOL     OW24676   1.718   1.661   0.638 -0.1180 -0.6335 -0.9953
 6610SOL    HW124677   1.631   1.679   0.675 -0.9140 -0.3452 -2.9704
 6610SOL    HW224678   1.777   1.715   0.691 -1.1089 -0.8757  0.4173
 6611SOL     OW24679   2.366   0.912   6.949  0.2159 -0.6351  0.3220
 6611SOL    HW124680   2.311   0.850   6.997  0.9420 -0.9764  0.7181
 6611SOL    HW224681   2.362   0.882   6.858  0.3346 -1.1026  0.4670
 6612SOL     OW24682   2.633   9.627   9.164  0.0764  0.3340 -0.0104
 6612SOL    HW124683   2.570   9.685   9.121 -0.5176  0.9633  1.6896
 6612SOL    HW224684   2.630   9.546   9.113 -1.1463  0.8189 -0.7236
 6613SOL     OW24685   3.808   9.134   7.770 -0.1365 -0.2073 -0.3387
 6613SOL    HW124686   3.785   9.197   7.838  1.9455 -0.5443  0.6996
 6613SOL    HW224687   3.877   9.176   7.720  0.4834 -1.2065 -0.3340
 6614SOL     OW24688   2.975   2.221   7.262 -0.3282  0.4514 -0.3229
 6614SOL    HW124689   2.957   2.312   7.240  0.4818  0.1400 -2.3558
 6614SOL    HW224690   3.060   2.202   7.222 -0.0045 -0.9167  0.9312
 6615SOL     OW24691   2.743   0.649   7.560 -0.1646 -0.1854 -0.0180
 6615SOL    HW124692   2.767   0.572   7.508  1.7121  0.2588  0.1403
 6615SOL    HW224693   2.721   0.615   7.646  0.2008 -0.5985 -0.0854
 6616SOL     OW24694   3.401   2.943   8.814  0.2476  0.2919  0.6338
 6616SOL    HW124695   3.352   3.001   8.873  0.8629  0.3459  1.0928
 6616SOL    HW224696   3.476   2.995   8.785  0.1620  0.1286  0.1155
 6617SOL     OW24697   4.295   1.147   7.184  0.3506 -0.0363 -0.0746
 6617SOL    HW124698   4.303   1.190   7.099  0.0853 -0.0757 -0.1207
 6617SOL    HW224699   4.366   1.183   7.237  1.1701 -0.7782 -0.6452
 6618SOL     OW24700   3.752   0.619   8.398 -0.5824  0.2014 -0.2984
 6618SOL    HW124701   3.766   0.707   8.434  0.4970 -0.9983  2.3082
 6618SOL    HW224702   3.840   0.584   8.384 -0.9350 -1.5928  1.6427
 6619SOL     OW24703   2.007   1.395   8.848  0.1507 -0.0969  0.2570
 6619SOL    HW124704   2.027   1.488   8.836  1.1354 -0.4232 -0.5671
 6619SOL    HW224705   1.949   1.373   8.775  1.5608 -0.6341 -0.7261
 6620SOL     OW24706   3.328   2.223   8.840  0.4728 -0.1802  0.1839
 6620SOL    HW124707   3.251   2.244   8.892  0.8370 -1.9063  1.4846
 6620SOL    HW224708   3.342   2.300   8.785 -1.5447  0.5719  0.6778
 6621SOL     OW24709   1.707   0.427   9.744  0.3176  0.2690 -0.2497
 6621SOL    HW124710   1.752   0.354   9.702 -0.3230  0.1074 -0.6618
 6621SOL    HW224711   1.736   0.425   9.835 -1.0343 -1.5785  0.1699
 6622SOL     OW24712   3.236   0.276   8.992  0.6457 -0.6363  0.4996
 6622SOL    HW124713   3.316   0.324   8.969  0.8023 -1.3516 -0.4707
 6622SOL    HW224714   3.174   0.344   9.020  0.3315  0.3135 -2.3531
 6623SOL     OW24715   0.793   8.416   6.714 -0.2721  0.0941 -0.0542
 6623SOL    HW124716   0.760   8.506   6.720 -1.6521 -0.5256  2.4921
 6623SOL    HW224717   0.722   8.367   6.673 -0.9197 -0.4591  1.6849
 6624SOL     OW24718   1.058   9.277   9.466 -0.0264  0.2034  0.3459
 6624SOL    HW124719   1.036   9.363   9.503  0.5135 -0.2586  1.7709
 6624SOL    HW224720   1.132   9.296   9.407 -0.2366  0.7964  0.2652
 6625SOL     OW24721   1.446   1.707   8.970  0.8863 -0.0575  0.4568
 6625SOL    HW124722   1.478   1.698   9.060  2.4199  1.7849  0.1347
 6625SOL    HW224723   1.521   1.685   8.915 -0.0272 -1.1065 -0.3863
 6626SOL     OW24724   2.290   0.072   8.052  0.0196  0.2044 -0.5626
 6626SOL    HW124725   2.198   0.094   8.064 -0.4648 -1.7373 -0.5788
 6626SOL    HW224726   2.301   0.067   7.957  0.2028  0.6788 -0.5660
 6627SOL     OW24727   3.765   1.148   8.617  0.2198  0.9921 -0.7041
 6627SOL    HW124728   3.843   1.203   8.606  0.6995  0.3778 -0.3584
 6627SOL    HW224729   3.744   1.155   8.710  1.0898 -0.5114 -0.3933
 6628SOL     OW24730   2.624   0.850   7.975 -0.0977  0.4460 -0.4610
 6628SOL    HW124731   2.577   0.836   8.057 -0.8263 -0.1346 -0.9753
 6628SOL    HW224732   2.572   0.804   7.909 -0.3836  2.2627 -1.5285
 6629SOL     OW24733   2.735   1.236   8.743 -0.1622 -0.2786  0.2681
 6629SOL    HW124734   2.776   1.288   8.674  1.5820 -1.5409  0.3107
 6629SOL    HW224735   2.749   1.287   8.823  0.8093 -0.4220  0.1903
 6630SOL     OW24736   3.526   3.502   8.554  0.2407  0.5215  0.3582
 6630SOL    HW124737   3.523   3.433   8.488 -0.9978  1.1756 -0.2774
 6630SOL    HW224738   3.521   3.455   8.637  2.3771 -0.3469  0.0391
 6631SOL     OW24739   2.522   0.295   8.855  0.2588  0.0644 -0.5354
 6631SOL    HW124740   2.471   0.280   8.775 -0.0908  2.5127 -0.7891
 6631SOL    HW224741   2.507   0.387   8.877  0.5188 -0.5188  2.2627
 6632SOL     OW24742   3.551   0.763   8.256  0.4634 -0.0746  0.5751
 6632SOL    HW124743   3.606   0.693   8.291  1.6866 -0.8231 -2.6644
 6632SOL    HW224744   3.462   0.729   8.261  0.9166 -1.3233  0.2926
 6633SOL     OW24745   2.397   1.070   6.273  0.1262 -0.1438 -0.1651
 6633SOL    HW124746   2.306   1.088   6.297  0.0900 -0.6884  0.1075
 6633SOL    HW224747   2.439   1.045   6.355  1.3243  3.2582  0.3066
 6634SOL     OW24748   2.684   1.382   7.222  0.1530  0.9459 -0.3717
 6634SOL    HW124749   2.597   1.392   7.184  0.2596  0.9371 -0.6170
 6634SOL    HW224750   2.732   1.460   7.194 -0.3418  1.8780  1.3051
 6635SOL     OW24751   1.575   9.989   9.175  0.1826 -0.3387  0.3364
 6635SOL    HW124752   1.663   9.977   9.212 -0.2667 -0.5790  1.3680
 6635SOL    HW224753   1.586   9.976   9.081  1.0642 -1.4422  0.5812
 6636SOL     OW24754   3.048   3.325   9.397 -0.6478  0.0037 -0.0777
 6636SOL    HW124755   3.134   3.322   9.354 -1.3070 -1.4555 -1.3323
 6636SOL    HW224756   3.054   3.259   9.465 -1.0876 -0.7666 -0.7802
 6637SOL     OW24757   3.021   0.352   0.382 -0.2920 -0.2518  0.0047
 6637SOL    HW124758   2.955   0.350   0.313 -0.4145 -2.5459  0.1474
 6637SOL    HW224759   2.972   0.339   0.463 -0.0803  1.8572  0.5023
 6638SOL     OW24760   9.884   2.489   7.777 -0.6542  0.0673 -0.5830
 6638SOL    HW124761   9.838   2.421   7.826 -1.7016 -0.0209 -1.6682
 6638SOL    HW224762   9.960   2.444   7.739 -0.4289 -0.1088  0.0796
 6639SOL     OW24763   2.090   3.802   7.442 -1.1453  0.0070  0.8665
 6639SOL    HW124764   2.062   3.799   7.534 -2.9112  1.4096  0.3908
 6639SOL    HW224765   2.014   3.770   7.393 -1.8476  3.5021 -0.4209
 6640SOL     OW24766   4.428   0.780   8.480 -0.2750 -0.2450  0.1292
 6640SOL    HW124767   4.514   0.805   8.445 -0.4517  0.0866 -0.0629
 6640SOL    HW224768   4.400   0.856   8.530 -1.2903  0.3354 -1.3205
 6641SOL     OW24769   2.604   0.869   8.932 -0.4169 -0.4856 -0.5065
 6641SOL    HW124770   2.623   0.840   8.843 -1.8167 -0.9362 -0.6757
 6641SOL    HW224771   2.509   0.857   8.941 -0.4173  0.3801  0.7455
 6642SOL     OW24772   1.128   1.834   9.342  0.1193  0.3903  0.3878
 6642SOL    HW124773   1.049   1.884   9.320 -0.9923 -1.6944 -0.5898
 6642SOL    HW224774   1.114   1.749   9.300  1.3727 -1.1677  2.9906
 6643SOL     OW24775   2.617   9.574   7.260  0.4905 -0.3418 -0.2270
 6643SOL    HW124776   2.536   9.613   7.228  0.5123 -1.7646 -2.1312
 6643SOL    HW224777   2.665   9.646   7.300 -1.4648  0.6255  0.4528
 6644SOL     OW24778   2.989   0.634   8.321 -0.6120 -0.1844  0.6413
 6644SOL    HW124779   2.966   0.645   8.413  0.6016 -2.5206  1.2800
 6644SOL    HW224780   2.972   0.719   8.281 -0.4970  1.0633  3.1625
 6645SOL     OW24781   1.375   1.721   8.357  0.4522  0.3177  0.0299
 6645SOL    HW124782   1.346   1.776   8.285 -0.6199 -1.8721 -1.2816
 6645SOL    HW224783   1.294   1.691   8.398  1.0126 -0.2193  0.7541
 6646SOL     OW24784   3.222   9.754   9.119  0.3132  0.3447 -0.4092
 6646SOL    HW124785   3.245   9.712   9.202 -2.5014  0.8515  0.6513
 6646SOL    HW224786   3.270   9.703   9.053  0.4275 -1.7683  1.2601
 6647SOL     OW24787   2.835   0.987   9.015  0.0561 -0.7998 -0.2040
 6647SOL    HW124788   2.901   0.973   8.947  1.3800  2.4937  0.2778
 6647SOL    HW224789   2.751   0.976   8.970  0.9027  0.6204 -2.2416
 6648SOL     OW24790   2.929   1.627   4.359  0.3280  0.2063  0.6283
 6648SOL    HW124791   2.953   1.655   4.448  1.2204  1.6411 -0.0524
 6648SOL    HW224792   2.964   1.538   4.352  0.1946  0.0547  1.7327
 6649SOL     OW24793   0.591   1.226   9.423  0.7699 -0.0615  0.0609
 6649SOL    HW124794   0.630   1.279   9.354  1.3510  0.2098  0.5895
 6649SOL    HW224795   0.651   1.152   9.434  0.6385 -0.1466  0.2158
 6650SOL     OW24796   2.435   1.296   8.356 -0.0570 -0.4617 -0.4806
 6650SOL    HW124797   2.463   1.233   8.289 -3.7227 -1.0146 -1.5661
 6650SOL    HW224798   2.395   1.367   8.306  0.0291  0.6426  1.0045
 6651SOL     OW24799   3.432   1.964   9.904 -0.3579  0.1809  0.2674
 6651SOL    HW124800   3.464   1.931   9.989 -0.6548  0.4938  0.4999
 6651SOL    HW224801   3.403   1.886   9.858 -2.4712  0.2742  1.4129
 6652SOL     OW24802   3.899   1.853   8.537 -0.0043  0.1221  0.5480
 6652SOL    HW124803   3.989   1.882   8.553 -0.4502  1.8333  0.0864
 6652SOL    HW224804   3.859   1.847   8.624  0.4150 -0.2044  0.7210
 6653SOL     OW24805   0.901   0.261   9.983 -0.5974 -0.0853 -0.1620
 6653SOL    HW124806   0.817   0.282   9.942 -2.0511 -1.8008  1.8619
 6653SOL    HW224807   0.893   0.293  10.073  0.4068 -1.4501  0.4286
 6654SOL     OW24808   3.617   1.510   6.862  0.0491 -0.6294 -0.1010
 6654SOL    HW124809   3.628   1.424   6.903 -0.2898 -0.7693 -0.2937
 6654SOL    HW224810   3.611   1.490   6.768 -1.7868 -0.5729 -0.0153
 6655SOL     OW24811   2.619   4.184   7.161 -0.4842  0.4852 -0.4556
 6655SOL    HW124812   2.550   4.127   7.194 -1.7921  3.0103  1.3086
 6655SOL    HW224813   2.575   4.239   7.096  0.0652  1.4706 -0.0021
 6656SOL     OW24814   0.906   1.942   8.072  0.0549 -0.7266 -0.6160
 6656SOL    HW124815   0.826   1.901   8.105 -0.2459 -1.1275 -1.8029
 6656SOL    HW224816   0.943   1.988   8.147 -3.3931  2.8234 -0.9844
 6657SOL     OW24817   2.450   0.367   8.101  0.3954 -0.2613  0.5146
 6657SOL    HW124818   2.458   0.352   8.007  0.7909  1.3473  0.2797
 6657SOL    HW224819   2.391   0.443   8.109  0.0948 -0.5882  1.5711
 6658SOL     OW24820   0.826   1.425   8.883 -0.2217 -0.0843 -0.0561
 6658SOL    HW124821   0.744   1.377   8.881  0.5557 -1.4497  0.7636
 6658SOL    HW224822   0.819   1.486   8.809 -1.4626 -1.0085 -0.7211
 6659SOL     OW24823   0.652   1.380   8.508 -0.2288 -0.0518  0.1930
 6659SOL    HW124824   0.626   1.456   8.456 -0.5611 -0.3065 -0.0150
 6659SOL    HW224825   0.746   1.370   8.491  0.0875  1.1096  1.2601
 6660SOL     OW24826   3.200   0.846   8.163 -0.8894 -0.4260 -0.1516
 6660SOL    HW124827   3.238   0.774   8.213 -0.4660  0.0656  0.2469
 6660SOL    HW224828   3.116   0.813   8.133 -0.6338 -1.1369 -0.0915
 6661SOL     OW24829   3.751   0.097   7.805  0.4568  0.4713 -0.1292
 6661SOL    HW124830   3.826   0.153   7.826  1.7574 -0.7064 -1.5494
 6661SOL    HW224831   3.785   0.008   7.810 -0.8246 -0.0803 -0.9226
 6662SOL     OW24832   1.827   0.843   8.484 -0.5004 -0.0924 -0.4510
 6662SOL    HW124833   1.901   0.899   8.463 -0.8187  0.6731  0.4315
 6662SOL    HW224834   1.781   0.831   8.401 -0.3271  0.8007 -0.6817
 6663SOL     OW24835   2.543   0.707   7.100  0.4786  0.1072 -0.1834
 6663SOL    HW124836   2.501   0.791   7.080  0.7510  0.2041 -0.3465
 6663SOL    HW224837   2.479   0.642   7.071 -1.0367  0.2412  2.6790
 6664SOL     OW24838   2.649   0.921   7.583  0.2056 -0.1174 -0.1286
 6664SOL    HW124839   2.565   0.938   7.540 -1.1744 -3.6202  1.0206
 6664SOL    HW224840   2.680   0.839   7.544  3.1015  1.0882 -0.4823
 6665SOL     OW24841   3.422   1.347   8.939 -0.7477  0.4397 -0.2356
 6665SOL    HW124842   3.481   1.301   8.999 -0.3525  2.6208  1.0684
 6665SOL    HW224843   3.335   1.335   8.977 -0.6011  1.0682  0.3068
 6666SOL     OW24844   2.455   1.958   8.893  0.5535  0.0366 -0.0504
 6666SOL    HW124845   2.478   2.033   8.948 -2.6505  0.4468  0.8619
 6666SOL    HW224846   2.478   1.881   8.945  3.0151  0.3521 -0.6200
 6667SOL     OW24847   5.360   2.365   0.112  0.0785  0.2814  1.2091
 6667SOL    HW124848   5.389   2.344   0.023  0.8871  1.6464  1.1296
 6667SOL    HW224849   5.314   2.287   0.141 -0.0517 -0.2522 -0.3516
 6668SOL     OW24850   2.390  10.000   8.324  0.0058 -0.6289  0.0463
 6668SOL    HW124851   2.433   9.920   8.292  1.2490  0.3278 -0.7173
 6668SOL    HW224852   2.366  10.047   8.245  0.2826  0.2851  0.5015
 6669SOL     OW24853   1.646   0.564   8.377 -0.4154 -0.4223 -0.3234
 6669SOL    HW124854   1.635   0.618   8.299 -0.6806  0.0337  0.0284
 6669SOL    HW224855   1.731   0.591   8.412 -1.5896  1.4805  1.1709
 6670SOL     OW24856   2.280   0.315   7.647 -0.2629  0.4531  0.0793
 6670SOL    HW124857   2.205   0.272   7.688 -0.6826  1.4112  0.3064
 6670SOL    HW224858   2.254   0.327   7.556 -1.0454  2.2863  0.5288
 6671SOL     OW24859   3.674   0.124   9.681 -0.1510 -0.5844 -0.4881
 6671SOL    HW124860   3.708   0.036   9.695 -0.9724 -1.0752 -1.5352
 6671SOL    HW224861   3.741   0.182   9.717  0.0082 -1.6522  0.9785
 6672SOL     OW24862   3.192   1.676   7.931 -1.1072 -0.0929  0.0776
 6672SOL    HW124863   3.175   1.711   8.018 -1.0020 -0.1067  0.1038
 6672SOL    HW224864   3.129   1.605   7.921 -1.5070  0.2785 -0.0822
 6673SOL     OW24865   1.121   1.622   8.541 -0.1396 -0.2614  0.9769
 6673SOL    HW124866   1.056   1.601   8.473  0.4576  0.1518  0.2662
 6673SOL    HW224867   1.149   1.536   8.573  0.7392 -0.5172 -0.4305
 6674SOL     OW24868   4.471   1.217   8.162 -0.6229 -0.4339 -0.3647
 6674SOL    HW124869   4.393   1.234   8.216 -0.1790 -0.9987  0.4592
 6674SOL    HW224870   4.518   1.301   8.163  0.3608 -0.9611  1.7486
 6675SOL     OW24871   2.683   1.474   0.305  0.0308 -0.0195 -0.2399
 6675SOL    HW124872   2.669   1.379   0.301  1.7432 -0.4387  2.2837
 6675SOL    HW224873   2.769   1.487   0.265  0.3900  0.2915  0.6219
 6676SOL     OW24874   2.082   0.457   7.910  0.2992 -0.3096 -0.2227
 6676SOL    HW124875   2.073   0.381   7.852  0.3445  0.2467 -0.9735
 6676SOL    HW224876   2.022   0.521   7.874  0.4570  0.1042  0.2548
 6677SOL     OW24877   2.820   2.698   8.362 -0.0592  0.3565 -0.1590
 6677SOL    HW124878   2.730   2.707   8.396 -0.3291 -2.0819 -0.1086
 6677SOL    HW224879   2.861   2.782   8.380 -2.3667  1.5330 -0.2254
 6678SOL     OW24880   2.285   0.272   8.324 -0.6479 -0.6538  0.6015
 6678SOL    HW124881   2.261   0.364   8.332 -1.2418 -0.8109  0.6708
 6678SOL    HW224882   2.321   0.265   8.236 -0.9503 -0.4253  0.4563
 6679SOL     OW24883   3.680   0.712   9.713 -0.2771  0.1493 -0.7170
 6679SOL    HW124884   3.636   0.679   9.791 -0.2486  0.5263 -0.5435
 6679SOL    HW224885   3.665   0.644   9.647 -0.2100 -0.2166 -0.3555
 6680SOL     OW24886   0.479   0.654   7.986 -0.3166  0.1445 -0.2166
 6680SOL    HW124887   0.466   0.737   8.032 -0.5788 -0.5950  1.0549
 6680SOL    HW224888   0.456   0.673   7.895  0.5029  1.6926 -0.1066
 6681SOL     OW24889   1.960   0.757   8.717  0.5575  0.1257 -0.2993
 6681SOL    HW124890   1.925   0.765   8.628  0.6055  1.1059 -0.2365
 6681SOL    HW224891   2.024   0.828   8.723  0.7164 -0.0840  0.4418
 6682SOL     OW24892   2.987   3.573   9.532 -0.2694  0.0733 -0.1157
 6682SOL    HW124893   2.950   3.537   9.612 -0.1244 -0.7498 -0.4202
 6682SOL    HW224894   3.013   3.497   9.480 -2.5829  0.4744 -1.9980
 6683SOL     OW24895   4.002   9.585   9.616  0.3380  0.2569 -0.0770
 6683SOL    HW124896   3.916   9.556   9.647 -0.1734  2.6209  0.8173
 6683SOL    HW224897   4.049   9.504   9.598 -1.3681 -1.1044  1.3600
 6684SOL     OW24898   4.669   0.683   7.558  0.1101  0.2924  0.4219
 6684SOL    HW124899   4.709   0.644   7.636 -0.3515 -1.9680 -0.4457
 6684SOL    HW224900   4.575   0.668   7.569 -0.1484  1.7074  0.3347
 6685SOL     OW24901   1.025   9.774   7.341 -0.6620  0.5306  0.0161
 6685SOL    HW124902   1.113   9.780   7.378 -0.1848  0.8490 -1.1370
 6685SOL    HW224903   0.967   9.770   7.417  0.2760  1.3765  0.7917
 6686SOL     OW24904   4.234   0.702   9.501 -0.3713 -0.0147 -0.3927
 6686SOL    HW124905   4.284   0.782   9.486 -1.6847  1.5000  2.9736
 6686SOL    HW224906   4.278   0.660   9.575 -0.5810 -1.7305 -1.2006
 6687SOL     OW24907   3.498   0.381   8.970 -0.1041 -0.1521  0.4167
 6687SOL    HW124908   3.587   0.417   8.961  0.0297 -0.8535 -1.1799
 6687SOL    HW224909   3.450   0.449   9.017  1.5837 -0.2755  2.4061
 6688SOL     OW24910   2.381   0.516   7.005 -0.8701  0.3721  0.3288
 6688SOL    HW124911   2.345   0.483   7.088 -2.2758  0.3562 -0.2780
 6688SOL    HW224912   2.424   0.441   6.966 -0.4843  0.2962  0.8866
 6689SOL     OW24913   2.240   1.339   7.656  0.2665 -0.3839 -0.0798
 6689SOL    HW124914   2.283   1.371   7.576  0.6762  1.1585  0.7274
 6689SOL    HW224915   2.215   1.419   7.702  2.7508 -1.2003  2.7952
 6690SOL     OW24916   3.417   1.617   7.669  0.1739 -0.0612  0.0955
 6690SOL    HW124917   3.508   1.638   7.690 -0.6916  1.4189  2.4781
 6690SOL    HW224918   3.397   1.540   7.721 -1.0452  1.8154  2.4709
 6691SOL     OW24919   0.705   2.432   8.506  0.1001 -0.0254 -1.3005
 6691SOL    HW124920   0.718   2.526   8.521 -0.1267  0.0912 -1.8054
 6691SOL    HW224921   0.613   2.416   8.525  0.5569 -0.5261  0.6339
 6692SOL     OW24922   2.520   9.427   9.368 -0.5087 -0.0445  0.4666
 6692SOL    HW124923   2.537   9.519   9.344 -1.3699 -0.1690 -0.6294
 6692SOL    HW224924   2.605   9.384   9.359 -0.3120  0.4369  0.0230
 6693SOL     OW24925   4.792   9.881   0.788 -0.1242 -0.2709  0.4900
 6693SOL    HW124926   4.841   9.954   0.748 -0.3947 -0.8842 -1.0069
 6693SOL    HW224927   4.860   9.822   0.821  0.2122 -1.4047 -2.1006
 6694SOL     OW24928   1.147   1.193   8.923  0.4346 -0.3370  0.4459
 6694SOL    HW124929   1.188   1.270   8.884 -0.4910 -0.3142 -0.5118
 6694SOL    HW224930   1.211   1.161   8.987  1.7139  0.0136 -0.6247
 6695SOL     OW24931   2.477   1.820   9.856 -0.3876  0.4790 -0.1575
 6695SOL    HW124932   2.411   1.854   9.917 -0.0484 -1.1943  1.1847
 6695SOL    HW224933   2.494   1.731   9.887  1.6417  0.4882 -1.2017
 6696SOL     OW24934   1.632   2.617   9.223 -0.0291 -0.5333  0.2580
 6696SOL    HW124935   1.666   2.654   9.304 -0.3911 -0.3105  0.3068
 6696SOL    HW224936   1.695   2.549   9.200  1.3879  1.0093 -0.5534
 6697SOL     OW24937   3.309   1.491   9.429  0.1846  0.1785  0.7190
 6697SOL    HW124938   3.241   1.428   9.451  1.0864 -1.7253 -1.7854
 6697SOL    HW224939   3.370   1.488   9.502  0.3999 -2.1067  0.4532
 6698SOL     OW24940   4.429   9.691   8.476  0.5348  0.0194 -0.9602
 6698SOL    HW124941   4.491   9.671   8.406  0.6306 -0.1007 -0.8418
 6698SOL    HW224942   4.351   9.723   8.431  0.6820  0.1640 -1.1103
 6699SOL     OW24943   3.302   9.199   7.595 -0.0175 -0.2662  0.1008
 6699SOL    HW124944   3.350   9.255   7.656 -1.0358 -0.1672  0.8249
 6699SOL    HW224945   3.231   9.162   7.647 -0.5911 -0.5918 -0.8992
 6700SOL     OW24946   3.814   2.238   9.429  0.4557 -0.3906 -0.2836
 6700SOL    HW124947   3.774   2.315   9.389 -0.0080  0.5343  1.8616
 6700SOL    HW224948   3.865   2.198   9.359  1.3077  2.2841 -1.2393
 6701SOL     OW24949   3.550   1.773   9.022 -0.0224 -0.1114 -0.6209
 6701SOL    HW124950   3.475   1.832   9.027  0.2477  0.2895 -1.1667
 6701SOL    HW224951   3.516   1.687   9.048 -0.6598  0.0777 -0.8242
 6702SOL     OW24952   3.224   0.169   6.559  0.0180  0.0493  0.4968
 6702SOL    HW124953   3.197   0.117   6.483  0.1319  1.1248 -0.2757
 6702SOL    HW224954   3.151   0.228   6.575  0.4415  0.5495  0.5842
 6703SOL     OW24955   1.456   1.425   8.221  0.2878 -0.5188 -0.3028
 6703SOL    HW124956   1.383   1.378   8.181  0.3778 -0.5905 -0.3825
 6703SOL    HW224957   1.420   1.461   8.303  0.1927 -0.6405 -0.2931
 6704SOL     OW24958   2.591   9.929   8.551 -0.2959 -0.4515  0.2976
 6704SOL    HW124959   2.658   9.913   8.485  0.3406  2.4585  0.1747
 6704SOL    HW224960   2.527   9.859   8.538  0.1575 -0.3177 -2.9778
 6705SOL     OW24961   4.014   1.086   5.817  0.3413  0.3086 -0.2975
 6705SOL    HW124962   4.041   1.105   5.727 -3.5653  0.1644 -1.5561
 6705SOL    HW224963   4.062   1.006   5.839  1.5711  0.5015 -2.0932
 6706SOL     OW24964   3.578   2.552   9.741  0.1314  0.9419 -0.0486
 6706SOL    HW124965   3.499   2.538   9.689  0.1895 -1.2647  0.4219
 6706SOL    HW224966   3.605   2.464   9.769  2.0886  1.7710  0.7744
 6707SOL     OW24967   2.817   1.766   9.921 -0.1662 -0.2125 -0.3274
 6707SOL    HW124968   2.907   1.746   9.895 -0.6660 -0.7722 -1.7133
 6707SOL    HW224969   2.779   1.681   9.944 -0.4684 -0.0429 -0.1929
 6708SOL     OW24970   3.884   0.242   0.990 -0.0611  0.4033 -0.0314
 6708SOL    HW124971   3.952   0.184   1.022 -0.9607 -1.2959 -1.1094
 6708SOL    HW224972   3.806   0.218   1.041  0.0361  2.0375  0.9050
 6709SOL     OW24973   3.505   2.618   0.184 -0.2327 -0.3573 -0.4691
 6709SOL    HW124974   3.559   2.545   0.156  0.3028 -0.5032  0.8865
 6709SOL    HW224975   3.440   2.579   0.242 -0.8076  0.0454 -0.8399
 6710SOL     OW24976   2.371   1.531   9.151  0.2116 -0.0072  0.3816
 6710SOL    HW124977   2.277   1.524   9.133  0.8978 -0.8825 -3.1774
 6710SOL    HW224978   2.393   1.452   9.199 -0.3886 -1.1440 -1.1826
 6711SOL     OW24979   1.870   1.052   9.384 -1.0695  0.1749 -0.9028
 6711SOL    HW124980   1.780   1.027   9.407 -1.0005  0.6103 -0.1327
 6711SOL    HW224981   1.920   0.971   9.390 -0.6543  0.5819  2.4944
 6712SOL     OW24982   2.693   2.543   8.904 -0.1162 -0.0989 -0.0786
 6712SOL    HW124983   2.623   2.601   8.934  0.4778 -0.0493  1.2362
 6712SOL    HW224984   2.651   2.457   8.899 -0.2187 -0.1145  0.9423
 6713SOL     OW24985   2.584   2.586   0.715 -0.0561 -0.1307 -1.2047
 6713SOL    HW124986   2.640   2.525   0.762  0.0733  0.3108 -0.7834
 6713SOL    HW224987   2.534   2.531   0.654 -0.5976 -0.7618 -0.1991
 6714SOL     OW24988   4.028   9.963   8.864  0.1694  0.1391 -0.7384
 6714SOL    HW124989   3.966   9.917   8.808  1.0797 -1.8403 -0.1899
 6714SOL    HW224990   3.974  10.020   8.918 -0.9853 -0.1240 -1.6068
 6715SOL     OW24991   3.168   0.288   0.110 -0.4302 -0.1047 -0.0249
 6715SOL    HW124992   3.136   0.329   0.191  1.2422 -1.5046  1.3976
 6715SOL    HW224993   3.108   0.215   0.094  0.1151 -0.7485  0.8175
 6716SOL     OW24994   2.009   1.264   0.710  0.4628  0.0918 -1.1994
 6716SOL    HW124995   2.056   1.180   0.715  1.4857  0.7338 -0.0963
 6716SOL    HW224996   2.029   1.309   0.791 -3.9624 -0.5710  0.4290
 6717SOL     OW24997   3.116   0.478   9.239  0.5951  0.5194  0.2980
 6717SOL    HW124998   3.041   0.473   9.179 -0.4083  1.9878  1.4038
 6717SOL    HW224999   3.159   0.560   9.216  0.3461  0.9709  1.4153
 6718SOL     OW25000   3.844   1.835   8.867  0.9453 -0.1944 -0.2880
 6718SOL    HW125001   3.881   1.746   8.871  0.8511 -0.4232 -3.2414
 6718SOL    HW225002   3.917   1.890   8.841  0.3438  0.0868 -1.4409
 6719SOL     OW25003   3.375   1.949   8.923 -0.0041  0.4815 -0.4296
 6719SOL    HW125004   3.314   1.898   8.870  0.0245 -0.6835  0.6427
 6719SOL    HW225005   3.340   2.038   8.921 -0.9386  0.1133 -0.9954
 6720SOL     OW25006   3.231   0.101   9.604  0.0241  0.4415 -0.3401
 6720SOL    HW125007   3.267   0.141   9.683  0.8074  1.6857 -1.3107
 6720SOL    HW225008   3.206   0.176   9.549 -1.8472 -0.4022 -0.6852
 6721SOL     OW25009   2.592   1.304   9.783  0.5551 -1.2068  0.2200
 6721SOL    HW125010   2.576   1.398   9.785 -0.7998 -1.4658  2.2171
 6721SOL    HW225011   2.581   1.280   9.691 -0.1987  0.3848 -0.1240
 6722SOL     OW25012   1.808   0.752   0.266  0.0512 -0.0498  0.1184
 6722SOL    HW125013   1.855   0.687   0.318  0.5373 -0.1103 -0.3895
 6722SOL    HW225014   1.874   0.818   0.244 -0.1494 -0.0165 -0.3959
 6723SOL     OW25015   2.046   0.070   8.463 -0.4274  0.4032 -0.0749
 6723SOL    HW125016   1.986   0.030   8.400 -2.3229  2.9419  0.0627
 6723SOL    HW225017   1.992   0.132   8.511  2.1103  2.0035  0.7510
 6724SOL     OW25018   3.561   2.037   1.306  0.5705  0.1379  0.0830
 6724SOL    HW125019   3.558   2.081   1.221  1.2494 -0.1197 -0.0792
 6724SOL    HW225020   3.527   1.950   1.289 -1.8050  0.9147  0.6247
 6725SOL     OW25021   2.967   0.918   9.288  0.3811 -0.3978  0.2990
 6725SOL    HW125022   3.054   0.909   9.252  0.4796  1.1359  0.1123
 6725SOL    HW225023   2.972   0.995   9.345 -0.8436 -0.2949  0.2941
 6726SOL     OW25024   1.478   2.051   9.410  0.2118 -0.2463 -0.4874
 6726SOL    HW125025   1.466   2.144   9.393 -1.0684 -0.3583 -0.2895
 6726SOL    HW225026   1.416   2.032   9.481  0.8840 -1.1239 -0.1266
 6727SOL     OW25027   2.207   1.062   0.461  0.8085 -0.6137  0.3141
 6727SOL    HW125028   2.221   1.146   0.418 -0.6328 -1.6481 -2.2939
 6727SOL    HW225029   2.256   1.000   0.408 -0.5882 -1.8552  0.4447
 6728SOL     OW25030   3.208   1.021   0.297 -0.0636  0.5592  0.1438
 6728SOL    HW125031   3.155   0.984   0.226 -0.1623  3.7934 -1.5423
 6728SOL    HW225032   3.144   1.060   0.356  0.1110 -0.9909  1.4013
 6729SOL     OW25033   4.273   2.170   2.306  0.6154 -0.1524  0.5114
 6729SOL    HW125034   4.314   2.088   2.332  2.8536  1.2492  1.5532
 6729SOL    HW225035   4.210   2.188   2.376  0.5002 -0.6871  0.5509
 6730SOL     OW25036   1.237   3.470   1.919 -0.3196  0.3291 -0.2668
 6730SOL    HW125037   1.243   3.434   1.830  0.1780  0.1396 -0.1599
 6730SOL    HW225038   1.164   3.423   1.959 -2.3766  2.4072 -1.4788
 6731SOL     OW25039   3.374   0.603   9.750  0.6094  0.4571 -0.0034
 6731SOL    HW125040   3.413   0.515   9.749  1.2684  0.7471 -0.2214
 6731SOL    HW225041   3.378   0.630   9.841 -0.3844 -0.0848  0.2028
 6732SOL     OW25042   1.818   0.433   8.756 -0.3449  0.3817  0.3135
 6732SOL    HW125043   1.870   0.439   8.836  0.1628 -0.2080  0.0378
 6732SOL    HW225044   1.847   0.351   8.715 -1.8380 -0.1789  0.3838
 6733SOL     OW25045   2.942   0.146   0.092  0.2824  0.1293 -0.4634
 6733SOL    HW125046   2.882   0.077   0.062  0.8444 -0.5115 -0.1173
 6733SOL    HW225047   2.889   0.198   0.152  0.4617 -1.2758  0.9466
 6734SOL     OW25048   3.938   0.053   0.673 -0.1254 -0.1526  0.3797
 6734SOL    HW125049   3.891   0.052   0.756 -1.4841  0.8884 -0.3624
 6734SOL    HW225050   3.909   0.133   0.630  0.8519 -0.4938 -0.9487
 6735SOL     OW25051   4.588   1.612   1.174 -0.0315  0.4538  0.1149
 6735SOL    HW125052   4.573   1.520   1.149  1.3610  0.2094  0.1624
 6735SOL    HW225053   4.503   1.640   1.209 -0.6656 -0.6131 -0.4969
 6736SOL     OW25054   2.414   9.714   8.386 -0.1124  0.1003 -0.3020
 6736SOL    HW125055   2.483   9.716   8.319  0.1995  2.3168  0.0591
 6736SOL    HW225056   2.456   9.676   8.463  0.8611  1.8575  0.0558
 6737SOL     OW25057   2.979   9.943   8.078  0.4336 -0.0848  0.0166
 6737SOL    HW125058   2.965   9.868   8.135 -0.9529 -0.5961 -0.9697
 6737SOL    HW225059   2.902   9.998   8.091  1.4398  1.1640  0.7180
 6738SOL     OW25060   2.385   1.099   9.804 -1.1299 -0.1369  0.6446
 6738SOL    HW125061   2.408   1.030   9.865  0.3493  0.7539  1.1286
 6738SOL    HW225062   2.465   1.153   9.797 -1.1081 -0.4516 -2.3586
 6739SOL     OW25063   2.462   0.264   9.555 -0.0773  0.1946  0.6920
 6739SOL    HW125064   2.512   0.254   9.636 -1.1754 -0.4437  1.2952
 6739SOL    HW225065   2.397   0.331   9.576 -1.2538 -0.9688  0.7693
 6740SOL     OW25066   3.360   9.613   1.120  0.0401  0.2434  0.2102
 6740SOL    HW125067   3.433   9.658   1.163  0.0342 -1.4273  2.0227
 6740SOL    HW225068   3.401   9.546   1.066 -0.1098 -0.2926  0.7529
 6741SOL     OW25069   1.255   9.786   9.508 -0.3886 -0.0840 -0.6021
 6741SOL    HW125070   1.315   9.850   9.468 -0.6476  0.8396  0.4566
 6741SOL    HW225071   1.312   9.719   9.543  0.0075  0.5255 -0.0663
 6742SOL     OW25072   2.113   0.289   9.713 -0.6744 -0.3275  0.4244
 6742SOL    HW125073   2.170   0.213   9.721  0.3564  0.3141 -0.5815
 6742SOL    HW225074   2.105   0.303   9.619 -0.1596  1.2978  0.6034
 6743SOL     OW25075   3.754   9.603   8.837  0.1365 -0.1725 -0.4375
 6743SOL    HW125076   3.814   9.568   8.772 -0.1492 -0.7825 -0.3710
 6743SOL    HW225077   3.674   9.621   8.788 -0.1144 -0.7303 -0.2317
 6744SOL     OW25078   1.928   0.922   0.021 -0.3747 -0.4888  0.7832
 6744SOL    HW125079   2.010   0.886   0.055 -0.4394 -1.7999 -0.4060
 6744SOL    HW225080   1.955   0.997  -0.032 -0.0880  0.1068  1.7670
 6745SOL     OW25081   1.998   0.490   9.054 -0.1677  0.9469  0.5756
 6745SOL    HW125082   2.060   0.531   9.115 -1.7926  3.3603  0.6509
 6745SOL    HW225083   1.915   0.534   9.071 -1.9054 -2.0852  0.3236
 6746SOL     OW25084   4.431   0.885   0.190  0.2462 -0.9816  0.0348
 6746SOL    HW125085   4.517   0.897   0.151  0.1741  1.4189  0.5591
 6746SOL    HW225086   4.370   0.898   0.118  0.2950 -2.6600 -0.3318
 6747SOL     OW25087   2.940   0.875   8.774  0.0270 -0.0270 -0.2111
 6747SOL    HW125088   2.863   0.833   8.736 -1.8618 -0.1960  3.5204
 6747SOL    HW225089   2.974   0.810   8.836  1.2047  1.3198  0.5926
 6748SOL     OW25090   2.890   8.995   8.964 -0.0771  0.2782  0.6099
 6748SOL    HW125091   2.956   9.057   8.934 -0.7007  0.3516 -0.6039
 6748SOL    HW225092   2.810   9.019   8.916 -1.1192  0.4774  2.3794
 6749SOL     OW25093   2.262   0.536   9.535  0.5127 -0.2906 -0.1755
 6749SOL    HW125094   2.297   0.578   9.614 -1.2327  2.8916 -1.0080
 6749SOL    HW225095   2.274   0.600   9.466 -3.0641 -0.7303 -1.3278
 6750SOL     OW25096   4.114   1.210   0.139 -0.1248  0.3112  0.2044
 6750SOL    HW125097   4.120   1.115   0.133 -1.5942  0.2323 -0.2149
 6750SOL    HW225098   4.141   1.241   0.052  0.3340  0.2833  0.3351
 6751SOL     OW25099   2.090   0.856   0.274 -0.0797  0.3757 -0.4050
 6751SOL    HW125100   2.170   0.865   0.325  1.1365  1.3524 -2.4203
 6751SOL    HW225101   2.078   0.761   0.265  0.5743  0.2161  0.2887
 6752SOL     OW25102   1.979   0.457   9.472 -0.1010 -0.8095  0.4987
 6752SOL    HW125103   1.891   0.494   9.476 -0.7887 -2.2030 -1.0753
 6752SOL    HW225104   2.031   0.511   9.531 -1.8010  0.6115  0.7211
 6753SOL     OW25105   3.815   0.074   9.394  0.3445  0.2334 -0.2609
 6753SOL    HW125106   3.726   0.110   9.399  0.0829 -0.4792  0.2437
 6753SOL    HW225107   3.863   0.122   9.462  1.0550  2.5473 -2.3144
 6754SOL     OW25108   3.066   1.990   9.965 -0.6490 -0.2208  0.3626
 6754SOL    HW125109   2.989   2.036   9.932  0.1824 -0.9483 -2.7062
 6754SOL    HW225110   3.138   2.053   9.957 -0.0711 -1.0451 -1.1205
 6755SOL     OW25111   4.413   0.413   9.896 -0.1365  0.2609 -0.0380
 6755SOL    HW125112   4.431   0.507   9.901 -2.1661  0.5505  2.9455
 6755SOL    HW225113   4.450   0.376   9.976 -0.1542 -1.3703 -0.7448
 6756SOL     OW25114   3.892   1.155   9.089 -0.1456  0.9283 -0.0480
 6756SOL    HW125115   3.823   1.164   9.155  0.4745 -0.1669  0.7675
 6756SOL    HW225116   3.964   1.114   9.136  0.7664  1.2974 -1.1064
 6757SOL     OW25117   2.550   0.594   1.228 -0.8053 -0.0489  0.2935
 6757SOL    HW125118   2.564   0.680   1.269  0.1929 -0.5289  0.9840
 6757SOL    HW225119   2.621   0.540   1.262  0.9570 -0.0715 -3.1640
 6758SOL     OW25120   3.136   2.484   9.027  0.6511 -0.2010  0.0628
 6758SOL    HW125121   3.063   2.546   9.033  1.7778  0.9519  2.3856
 6758SOL    HW225122   3.212   2.533   9.057  1.1400 -3.3718  4.5269
 6759SOL     OW25123   4.154   0.363   9.884  0.1436 -0.4853  0.3865
 6759SOL    HW125124   4.244   0.395   9.872 -0.0137  0.4977  1.6921
 6759SOL    HW225125   4.107   0.393   9.806  0.7137 -0.1188  0.1817
 6760SOL     OW25126   3.366   2.240   0.787  0.1060  0.0044  0.3337
 6760SOL    HW125127   3.376   2.240   0.692  1.1224  0.3051  0.4381
 6760SOL    HW225128   3.279   2.203   0.802  0.3532 -0.9982 -0.6634
 6761SOL     OW25129   2.881   2.962   0.530 -0.3567  0.3243  0.6185
 6761SOL    HW125130   2.812   2.898   0.517  0.3143 -0.5771  1.4787
 6761SOL    HW225131   2.930   2.931   0.606  0.5421  1.3437  0.4764
 6762SOL     OW25132   1.410   1.762   1.321 -0.1304  0.0360 -0.0518
 6762SOL    HW125133   1.462   1.701   1.373  1.3323 -0.1513 -1.6515
 6762SOL    HW225134   1.334   1.783   1.375  1.7670  0.5317  2.4807
 6763SOL     OW25135   2.464   2.791   0.448 -0.1028 -0.5727 -0.8229
 6763SOL    HW125136   2.410   2.859   0.486  0.5606 -0.3444 -0.2823
 6763SOL    HW225137   2.411   2.711   0.454 -0.3291 -0.3752 -0.1896
 6764SOL     OW25138   0.892   1.133   8.271 -0.0473  0.8419  0.6556
 6764SOL    HW125139   0.985   1.148   8.255 -0.0687  0.4005  0.0721
 6764SOL    HW225140   0.890   1.084   8.353  0.1709  1.7121  1.1865
 6765SOL     OW25141   2.046   1.530   9.151  0.1283 -0.2840 -0.4325
 6765SOL    HW125142   2.007   1.593   9.091  0.2199 -0.1979 -0.4009
 6765SOL    HW225143   2.031   1.445   9.109 -1.5122 -0.4006  0.3578
 6766SOL     OW25144   2.167   1.311   0.337  0.7573 -0.3802 -0.3983
 6766SOL    HW125145   2.098   1.256   0.302 -1.5129  1.4057  1.1430
 6766SOL    HW225146   2.197   1.363   0.262 -0.3264 -0.3954 -0.8472
 6767SOL     OW25147   2.527   2.831   1.367 -0.0392 -0.6191  0.1697
 6767SOL    HW125148   2.537   2.737   1.384  1.5888 -0.6110 -0.6940
 6767SOL    HW225149   2.434   2.848   1.382 -0.0500 -2.0383  1.9529
 6768SOL     OW25150   2.786   0.346   0.243  0.1563  0.3693 -0.1673
 6768SOL    HW125151   2.806   0.413   0.178  0.3923  2.1475  1.6715
 6768SOL    HW225152   2.691   0.338   0.242  0.2304 -0.4655 -1.5277
 6769SOL     OW25153   0.968   1.387   9.101  0.1748  0.1237  0.1623
 6769SOL    HW125154   0.944   1.424   9.016 -3.0693 -1.9352  0.0800
 6769SOL    HW225155   1.038   1.325   9.082 -0.2065  0.0319 -0.9545
 6770SOL     OW25156   2.475   2.045   2.347  0.4213  0.1745  0.2405
 6770SOL    HW125157   2.515   1.991   2.416 -0.7738 -1.3168 -0.1974
 6770SOL    HW225158   2.518   2.017   2.266 -1.6299 -1.6403 -0.2713
 6771SOL     OW25159   2.808   9.858   8.392  0.4845 -0.1345 -0.3223
 6771SOL    HW125160   2.743   9.813   8.339 -0.3338 -0.1269  0.6601
 6771SOL    HW225161   2.889   9.809   8.376 -0.3031 -1.7115  0.4006
 6772SOL     OW25162   2.256   3.938   8.823 -0.0612 -0.0983 -0.0788
 6772SOL    HW125163   2.163   3.946   8.846  0.0972  1.9101 -0.0664
 6772SOL    HW225164   2.257   3.872   8.753 -1.5798  0.3974 -0.5932
 6773SOL     OW25165   2.494   2.902   0.192 -0.3299 -0.6860  0.0248
 6773SOL    HW125166   2.495   2.874   0.283  0.1248  2.5986  1.0969
 6773SOL    HW225167   2.407   2.877   0.160 -1.1822 -0.2360  1.9186
 6774SOL     OW25168   0.608   4.071   9.078 -0.8435  0.1069  0.2436
 6774SOL    HW125169   0.603   3.980   9.049  0.9353  0.1073 -0.0739
 6774SOL    HW225170   0.635   4.066   9.169  1.6725  0.3793 -0.4601
 6775SOL     OW25171   2.445   1.551   9.927  0.5777 -0.3269  0.3749
 6775SOL    HW125172   2.531   1.528   9.962 -0.1349 -1.7649  1.2319
 6775SOL    HW225173   2.384   1.495   9.975 -0.6332 -0.8479 -1.7234
 6776SOL     OW25174   1.765   2.217   0.710  0.4313 -0.0035 -0.4108
 6776SOL    HW125175   1.687   2.166   0.735 -0.0843  0.9520 -0.0484
 6776SOL    HW225176   1.796   2.174   0.630 -1.5229  0.6794 -1.5941
 6777SOL     OW25177   4.217   3.338   1.841  0.0664  0.0629 -0.1019
 6777SOL    HW125178   4.271   3.406   1.881  0.6796 -0.3517 -0.2273
 6777SOL    HW225179   4.191   3.375   1.757  0.7678 -0.0376 -0.3638
 6778SOL     OW25180   2.796   2.907   1.925  0.3008  0.5598 -0.4492
 6778SOL    HW125181   2.857   2.944   1.862 -0.0862  1.5092 -0.2835
 6778SOL    HW225182   2.715   2.893   1.876 -0.5273  2.8400  0.1694
 6779SOL     OW25183   4.160   2.652   0.203 -0.6658  0.2398 -0.1878
 6779SOL    HW125184   4.113   2.574   0.235 -0.6033  0.4577  0.4539
 6779SOL    HW225185   4.230   2.617   0.149  0.9043 -0.2835  2.1043
 6780SOL     OW25186   1.698   3.621   9.011  0.1458  0.1538  0.3223
 6780SOL    HW125187   1.781   3.583   8.981 -0.4465 -1.0309  0.1416
 6780SOL    HW225188   1.666   3.559   9.076 -1.4755 -0.3444 -0.9161
 6781SOL     OW25189   1.932   2.630   0.962  0.4219  0.4000  0.4939
 6781SOL    HW125190   1.939   2.554   1.020 -0.5098  0.4441  0.6603
 6781SOL    HW225191   1.846   2.621   0.921  1.3058  0.0461 -1.3375
 6782SOL     OW25192   3.008   2.862   1.605 -0.1312 -0.1892 -0.2366
 6782SOL    HW125193   2.964   2.920   1.666  0.1046 -0.1973 -0.0561
 6782SOL    HW225194   3.097   2.898   1.599  0.0416 -0.5913 -0.0490
 6783SOL     OW25195   1.264   2.690   1.216 -0.3851  0.7050  0.3703
 6783SOL    HW125196   1.234   2.737   1.138  0.7070  0.3567 -0.2786
 6783SOL    HW225197   1.184   2.663   1.260 -1.0299  0.1907 -1.0732
 6784SOL     OW25198   1.930   3.241   0.692  0.9464 -0.3939  0.6620
 6784SOL    HW125199   1.857   3.258   0.632  1.7427  0.1517 -0.1519
 6784SOL    HW225200   1.909   3.293   0.770  1.0056  0.6054  0.0149
 6785SOL     OW25201   3.726   1.510   9.715  0.1842 -0.2403 -0.2690
 6785SOL    HW125202   3.779   1.431   9.713 -0.2225 -0.4987 -0.9611
 6785SOL    HW225203   3.677   1.505   9.797  1.2942  0.0492  0.4227
 6786SOL     OW25204   1.811   2.128   1.502  0.0065 -0.3589 -0.2564
 6786SOL    HW125205   1.739   2.172   1.546 -1.3849 -2.0905 -0.7341
 6786SOL    HW225206   1.769   2.069   1.440  1.8475 -1.1324 -0.8120
 6787SOL     OW25207   2.253   2.359   0.372 -0.3608 -0.2524 -0.0885
 6787SOL    HW125208   2.198   2.437   0.363 -1.4540 -1.0827 -0.7793
 6787SOL    HW225209   2.302   2.354   0.290 -2.7840 -2.1270 -1.5225
 6788SOL     OW25210   1.451   2.680   0.543  0.2454 -0.3470  0.7063
 6788SOL    HW125211   1.451   2.770   0.576 -0.9619  0.1848 -0.7030
 6788SOL    HW225212   1.544   2.660   0.531  0.4422  1.7405 -1.6529
 6789SOL     OW25213   2.227   2.853   2.133  0.0798 -0.5576  0.0484
 6789SOL    HW125214   2.270   2.823   2.213  2.3596  0.1814 -0.8515
 6789SOL    HW225215   2.173   2.779   2.105 -0.2762 -1.0332  1.9327
 6790SOL     OW25216   3.577   3.158   0.321 -0.0646 -0.1203  0.3427
 6790SOL    HW125217   3.568   3.064   0.306  1.3914 -0.0794 -0.9084
 6790SOL    HW225218   3.665   3.178   0.291 -0.5598  1.7460  0.0979
 6791SOL     OW25219   0.634   3.303   1.367  0.2765  0.6599  0.1160
 6791SOL    HW125220   0.556   3.274   1.320  0.7209 -0.1585 -0.1187
 6791SOL    HW225221   0.635   3.250   1.447 -0.2342  1.7362  0.8612
 6792SOL     OW25222   2.708   2.749   0.544 -0.1139  0.0034  0.3476
 6792SOL    HW125223   2.674   2.699   0.617  0.3178  0.7495  1.0714
 6792SOL    HW225224   2.631   2.772   0.492 -0.4125 -0.5738  0.5331
 6793SOL     OW25225   3.819   1.711   2.497 -0.2129  0.1468 -0.2725
 6793SOL    HW125226   3.883   1.761   2.546 -0.3337 -0.4687  0.5236
 6793SOL    HW225227   3.736   1.725   2.543 -0.2646 -0.7109 -0.0976
 6794SOL     OW25228   1.374   2.354   8.589  1.1879  0.3967 -0.0683
 6794SOL    HW125229   1.389   2.440   8.629 -2.2351  1.1313 -0.1343
 6794SOL    HW225230   1.365   2.294   8.663  1.9364  0.4162  0.0362
 6795SOL     OW25231   3.053   2.885   0.770 -0.0816 -0.2817 -0.8438
 6795SOL    HW125232   2.969   2.909   0.810  0.1601  0.7634 -0.9551
 6795SOL    HW225233   3.053   2.789   0.773 -0.6898 -0.2690  0.3722
 6796SOL     OW25234   1.720   3.898   0.497 -0.0553  0.0594 -0.3002
 6796SOL    HW125235   1.627   3.919   0.503 -0.1304  0.2480 -1.8996
 6796SOL    HW225236   1.759   3.974   0.455  0.9717  0.3292  1.0957
 6797SOL     OW25237   3.959   2.658   1.615  0.2021 -0.2608 -0.2140
 6797SOL    HW125238   3.922   2.731   1.565 -0.1025 -1.0700 -1.2055
 6797SOL    HW225239   4.017   2.614   1.552 -1.1896 -2.0659 -0.2698
 6798SOL     OW25240   3.278   3.320   1.029 -0.0969  0.6182 -0.2715
 6798SOL    HW125241   3.295   3.389   1.092 -2.7460  1.2924 -0.2056
 6798SOL    HW225242   3.305   3.357   0.945 -0.4647  1.3191 -0.0850
 6799SOL     OW25243   0.520   1.203   0.715  0.0661 -0.0704 -0.1445
 6799SOL    HW125244   0.494   1.135   0.778 -0.0057 -0.0429 -0.1449
 6799SOL    HW225245   0.437   1.236   0.680  0.0376  1.0456  0.9305
 6800SOL     OW25246   2.330   4.033   1.134 -0.5001  0.4047  0.3834
 6800SOL    HW125247   2.292   4.097   1.194 -0.6416  0.8968 -0.2322
 6800SOL    HW225248   2.378   3.972   1.191 -0.4267  1.0104  0.9731
 6801SOL     OW25249   2.537   3.241   2.437  0.3852  0.3940  0.5331
 6801SOL    HW125250   2.504   3.295   2.509 -0.2791  0.8484 -0.1121
 6801SOL    HW225251   2.533   3.152   2.470 -0.5082  0.5477  0.8335
 6802SOL     OW25252   2.043   3.147   9.800  0.6372 -0.2059 -0.4514
 6802SOL    HW125253   2.004   3.217   9.853  1.8475  0.1419 -0.0143
 6802SOL    HW225254   1.987   3.143   9.722  1.3288  2.1808 -1.1270
 6803SOL     OW25255   0.656   2.970   1.404 -0.0709 -0.4240  0.1922
 6803SOL    HW125256   0.618   2.889   1.437 -0.5334 -0.2880 -0.0087
 6803SOL    HW225257   0.678   2.951   1.312 -0.5856 -0.1861  0.0165
 6804SOL     OW25258   3.311   3.265   9.641 -0.7848 -0.0675  0.2590
 6804SOL    HW125259   3.268   3.179   9.634 -1.2240  0.0756  1.1436
 6804SOL    HW225260   3.376   3.264   9.571  1.6376 -2.5247  2.4231
 6805SOL     OW25261   2.271   3.260   1.321  0.9647  0.0355 -0.3173
 6805SOL    HW125262   2.216   3.216   1.256 -0.2217  0.1559  0.5922
 6805SOL    HW225263   2.265   3.204   1.399  0.4575  1.1333  0.4420
 6806SOL     OW25264   1.282   2.064   1.513  0.0294 -0.9043 -0.8524
 6806SOL    HW125265   1.244   2.113   1.586  0.7901 -0.1063 -0.9832
 6806SOL    HW225266   1.306   1.979   1.550  2.2146  0.1803  0.3232
 6807SOL     OW25267   2.306   4.571   2.204  0.2555 -0.6705  0.3721
 6807SOL    HW125268   2.303   4.524   2.120 -0.4806 -0.3490  0.2106
 6807SOL    HW225269   2.243   4.642   2.193  0.5487 -0.3144  1.0158
 6808SOL     OW25270   3.401   5.228   0.754  0.3564  0.2565 -0.0601
 6808SOL    HW125271   3.444   5.153   0.794  0.3521  0.5061  0.4241
 6808SOL    HW225272   3.435   5.231   0.665  0.9376  0.1352  0.1526
 6809SOL     OW25273   2.318   2.635   9.392  0.2949 -0.0658 -0.5012
 6809SOL    HW125274   2.324   2.680   9.475  0.6227  1.3469 -1.2824
 6809SOL    HW225275   2.231   2.596   9.391  0.4409 -0.4181  0.6617
 6810SOL     OW25276   2.937   1.287   9.082 -0.3388 -0.5302 -0.6328
 6810SOL    HW125277   2.937   1.222   9.012  1.4820 -1.1586 -0.0617
 6810SOL    HW225278   2.866   1.259   9.140  0.6918 -2.2663 -0.1846
 6811SOL     OW25279   1.276   1.232   1.696  0.2285  0.1451 -0.0936
 6811SOL    HW125280   1.293   1.315   1.740 -0.0164  0.2057 -0.1145
 6811SOL    HW225281   1.355   1.179   1.713  1.2252  1.0726 -1.7385
 6812SOL     OW25282   2.817   1.755   9.235  0.2398 -0.1843  0.3396
 6812SOL    HW125283   2.816   1.762   9.331 -0.3769 -0.2639  0.3439
 6812SOL    HW225284   2.824   1.845   9.204  1.6875 -0.2487  0.4713
 6813SOL     OW25285   0.611   0.466   2.250 -0.3374  0.6434 -0.5036
 6813SOL    HW125286   0.632   0.446   2.341  2.3062  0.7082 -1.0842
 6813SOL    HW225287   0.588   0.382   2.212 -0.7639  0.5095  0.0350
 6814SOL     OW25288   2.212   2.052   1.562 -0.4162  0.1180  0.3841
 6814SOL    HW125289   2.244   1.994   1.493 -2.4925 -2.1043  1.2042
 6814SOL    HW225290   2.136   2.096   1.523 -0.3987  0.3359  0.5940
 6815SOL     OW25291   2.184   2.654   2.387  0.0856 -0.0366 -0.1604
 6815SOL    HW125292   2.184   2.656   2.483 -2.2637 -0.1580 -0.1368
 6815SOL    HW225293   2.201   2.563   2.364  0.2944 -0.0720  0.1334
 6816SOL     OW25294   3.580   2.655   2.178 -0.8779  0.2873 -0.2516
 6816SOL    HW125295   3.513   2.608   2.130 -0.8347  0.8752 -0.8980
 6816SOL    HW225296   3.653   2.594   2.184 -0.9749  0.1252 -0.7178
 6817SOL     OW25297   3.547   2.192   0.115 -0.0519  1.0828 -0.2816
 6817SOL    HW125298   3.609   2.131   0.153 -0.6228  0.7545  0.1222
 6817SOL    HW225299   3.566   2.276   0.158 -0.7344  0.7032  0.7695
 6818SOL     OW25300   2.190   1.639   1.242 -0.0451 -0.1944  0.2352
 6818SOL    HW125301   2.199   1.598   1.156 -0.1338 -0.3842  0.3146
 6818SOL    HW225302   2.096   1.637   1.260 -0.0943  0.4460  0.0476
 6819SOL     OW25303   2.419   3.211   9.838  0.0083  0.4434  0.4630
 6819SOL    HW125304   2.353   3.280   9.833  0.3380  0.8383  1.4886
 6819SOL    HW225305   2.399   3.165   9.919  0.4853  0.0490  0.3549
 6820SOL     OW25306   1.471   2.826   1.353  0.3923 -0.4675  0.8853
 6820SOL    HW125307   1.397   2.796   1.300 -0.4041  2.7909  0.0528
 6820SOL    HW225308   1.471   2.768   1.429 -1.3680 -2.2172 -0.4053
 6821SOL     OW25309   2.994   3.268   1.440  0.2430 -0.3031  0.5931
 6821SOL    HW125310   3.003   3.195   1.379  1.6483 -0.2943  0.7759
 6821SOL    HW225311   3.076   3.268   1.489  0.7692  2.1238 -0.2201
 6822SOL     OW25312   2.318   3.129   0.075  0.6196  0.6873  0.4655
 6822SOL    HW125313   2.239   3.177   0.102  1.2668  1.5024  0.9342
 6822SOL    HW225314   2.314   3.047   0.124 -0.3844  0.3549 -0.1685
 6823SOL     OW25315   3.634   5.295   1.544 -0.1039  0.1479 -0.1499
 6823SOL    HW125316   3.629   5.350   1.467 -1.0243 -1.2075 -1.0825
 6823SOL    HW225317   3.602   5.209   1.515  0.4345 -0.6370  1.4839
 6824SOL     OW25318   2.859   3.245   0.640 -0.4227 -0.0228  0.4776
 6824SOL    HW125319   2.951   3.269   0.631 -0.1754 -1.3205 -0.7429
 6824SOL    HW225320   2.861   3.161   0.686 -0.9787 -0.1799  0.2215
 6825SOL     OW25321   1.085   2.392   0.410  0.0636 -0.6469  0.1697
 6825SOL    HW125322   1.019   2.423   0.472 -0.2882  0.1533 -0.5819
 6825SOL    HW225323   1.034   2.366   0.333  0.7512  1.7196 -1.1184
 6826SOL     OW25324   4.647   3.139   0.392  0.1425 -0.2878  0.2670
 6826SOL    HW125325   4.729   3.097   0.421  0.4593 -0.0806 -0.3289
 6826SOL    HW225326   4.589   3.066   0.372 -0.3718 -0.4499  2.2063
 6827SOL     OW25327   1.522   2.364   2.295  0.2499 -0.3766 -0.3255
 6827SOL    HW125328   1.606   2.387   2.335 -0.1012  2.7190 -1.1807
 6827SOL    HW225329   1.495   2.284   2.339  3.9146 -1.7639 -0.4175
 6828SOL     OW25330   3.812   2.968   1.224 -0.3579 -0.6746 -0.3571
 6828SOL    HW125331   3.728   3.012   1.215 -0.3121 -0.5056  0.0508
 6828SOL    HW225332   3.872   3.020   1.170 -0.4978 -0.7594 -0.5984
 6829SOL     OW25333   3.008   0.912   9.580 -0.1986  0.1019  0.0724
 6829SOL    HW125334   2.949   0.919   9.655  0.8495 -2.3172  1.1809
 6829SOL    HW225335   2.950   0.907   9.504 -1.4153 -1.4971  1.0781
 6830SOL     OW25336   3.281   2.126   0.126  0.1036  0.0806 -0.5282
 6830SOL    HW125337   3.376   2.127   0.113  0.1684 -1.0999 -0.1176
 6830SOL    HW225338   3.265   2.054   0.186 -1.0207  0.5450 -0.2549
 6831SOL     OW25339   1.396   3.671   0.757 -0.0973 -0.5136 -0.0706
 6831SOL    HW125340   1.431   3.652   0.670  0.1160 -0.7289  0.0622
 6831SOL    HW225341   1.402   3.588   0.804 -0.1018 -0.3668  0.1892
 6832SOL     OW25342   2.708   3.180   9.750  0.0591 -0.4376  0.4793
 6832SOL    HW125343   2.623   3.219   9.765 -0.2960 -0.1466 -2.1054
 6832SOL    HW225344   2.721   3.121   9.825 -2.5659 -0.8020  0.6909
 6833SOL     OW25345   3.764   1.929   1.018  0.5366 -0.3558 -0.6024
 6833SOL    HW125346   3.731   1.844   1.049 -1.5166  0.0972 -1.4319
 6833SOL    HW225347   3.855   1.931   1.046  0.5789 -2.7820 -0.4208
 6834SOL     OW25348   2.267   2.570   9.838 -0.5271 -0.5326  0.2528
 6834SOL    HW125349   2.304   2.524   9.914 -0.5453 -0.2115  0.4545
 6834SOL    HW225350   2.291   2.515   9.763  0.0086 -0.5402  0.4243
 6835SOL     OW25351   1.462   3.254   1.130  0.3010  0.3456  0.3030
 6835SOL    HW125352   1.383   3.253   1.076 -0.5449  0.6287  1.5290
 6835SOL    HW225353   1.474   3.346   1.153  1.0205  0.3083  0.0915
 6836SOL     OW25354   1.144   2.723   0.434 -0.2080  0.2820 -0.6199
 6836SOL    HW125355   1.130   2.752   0.344 -1.4209 -1.8649 -1.1742
 6836SOL    HW225356   1.059   2.735   0.476  0.4162  1.4898  0.3175
 6837SOL     OW25357   2.201   3.270   0.643 -0.3154  0.0920  0.1210
 6837SOL    HW125358   2.110   3.267   0.671 -0.7448 -0.4881 -1.2881
 6837SOL    HW225359   2.222   3.180   0.619  0.2416  0.4456 -0.7449
 6838SOL     OW25360   2.143   3.268   0.237  0.2343  0.6792 -0.1232
 6838SOL    HW125361   2.207   3.241   0.303 -1.0808  0.8347  1.2526
 6838SOL    HW225362   2.062   3.226   0.265 -0.3334  0.7068 -1.6919
 6839SOL     OW25363   1.196   2.534   0.115 -0.1399 -0.4229  0.1697
 6839SOL    HW125364   1.182   2.625   0.141  0.1703 -0.4539  0.4518
 6839SOL    HW225365   1.252   2.498   0.184  0.4454 -0.5887 -0.3881
 6840SOL     OW25366   2.347   1.971   0.086 -0.1615 -0.2373  0.4386
 6840SOL    HW125367   2.420   1.940   0.139 -0.1668 -0.2655  0.4295
 6840SOL    HW225368   2.271   1.925   0.121 -0.2759  0.2719  0.8681
 6841SOL     OW25369   2.554   2.589   9.591 -0.1106 -0.0794  0.2048
 6841SOL    HW125370   2.605   2.577   9.672 -0.9490  0.3821  0.8106
 6841SOL    HW225371   2.571   2.679   9.565  0.4542 -0.3397 -0.3514
 6842SOL     OW25372   3.774   2.451   2.220  0.0943 -0.0156 -0.2276
 6842SOL    HW125373   3.712   2.467   2.291  0.4329  1.4100 -0.2147
 6842SOL    HW225374   3.799   2.359   2.229 -2.9623 -0.9580 -1.0358
 6843SOL     OW25375   2.253   2.058   2.934  0.8372 -0.1356 -0.1800
 6843SOL    HW125376   2.238   2.135   2.878 -0.8404  0.4740  1.0496
 6843SOL    HW225377   2.214   1.985   2.885 -0.2019  0.3128 -0.0371
 6844SOL     OW25378   1.967   3.018   1.366  0.2840 -0.1003  0.0313
 6844SOL    HW125379   1.885   2.969   1.367  0.7490 -0.8929  0.8192
 6844SOL    HW225380   1.999   3.010   1.276  0.5978 -1.6813  0.2588
 6845SOL     OW25381   3.754   2.555   1.047 -0.4329  0.1501 -0.1585
 6845SOL    HW125382   3.765   2.491   0.976 -1.5988 -0.2088 -0.0286
 6845SOL    HW225383   3.836   2.605   1.047 -0.6452  0.5460 -2.1498
 6846SOL     OW25384   2.096   1.582   2.196  0.2753  0.4076 -0.0598
 6846SOL    HW125385   2.091   1.645   2.124 -0.4952 -0.6226 -0.9315
 6846SOL    HW225386   2.182   1.540   2.185  0.6864  1.1323  0.3781
 6847SOL     OW25387   2.186   1.789   1.689 -0.4256 -0.4816  0.2727
 6847SOL    HW125388   2.242   1.866   1.680  0.7114 -1.5639 -2.7431
 6847SOL    HW225389   2.105   1.812   1.643  0.0654 -1.1779 -0.9765
 6848SOL     OW25390   3.051   2.157   3.191 -0.4822  0.2938  0.2113
 6848SOL    HW125391   3.083   2.176   3.103 -0.1452  1.8972  0.6788
 6848SOL    HW225392   2.963   2.121   3.177  1.5137 -4.5470 -1.1161
 6849SOL     OW25393   4.446   0.705   9.714  0.2433  0.1801 -0.3474
 6849SOL    HW125394   4.454   0.801   9.712  2.4346  0.0540  0.8015
 6849SOL    HW225395   4.450   0.684   9.808 -1.8146 -0.9391 -0.4880
 6850SOL     OW25396   2.728   2.727   1.680 -0.5980 -0.2653 -0.0294
 6850SOL    HW125397   2.790   2.712   1.608  0.1631  0.8808  0.3746
 6850SOL    HW225398   2.715   2.640   1.719  1.9519 -0.2988  0.8434
 6851SOL     OW25399   2.285   1.636   9.707  0.1787  0.1136  0.0327
 6851SOL    HW125400   2.207   1.645   9.762  0.1850 -0.6134  0.1649
 6851SOL    HW225401   2.359   1.642   9.767  0.1716 -1.3848  0.2180
 6852SOL     OW25402   4.362   1.772   9.933 -0.2123 -0.1208 -0.0632
 6852SOL    HW125403   4.403   1.686   9.923 -0.3282 -0.1408 -0.3807
 6852SOL    HW225404   4.283   1.755   9.984 -0.0471 -0.1465  0.1866
 6853SOL     OW25405   2.007   3.852   0.782  0.1130  0.1779  0.1812
 6853SOL    HW125406   2.097   3.859   0.812  0.0365 -1.6795  0.8828
 6853SOL    HW225407   1.968   3.938   0.802  1.7541  1.0768 -0.3535
 6854SOL     OW25408   2.920   3.450   0.444 -0.1492 -0.1400  0.1806
 6854SOL    HW125409   2.981   3.451   0.518 -0.1904  0.4927  0.2113
 6854SOL    HW225410   2.973   3.473   0.368 -0.3668  0.5005  0.2218
 6855SOL     OW25411   1.483   2.196   1.407 -0.0541  0.5327 -0.3914
 6855SOL    HW125412   1.432   2.130   1.454  1.2957 -2.1899 -2.5202
 6855SOL    HW225413   1.432   2.215   1.328  0.0338  1.2632 -0.2729
 6856SOL     OW25414   2.993   3.818   0.254  0.5099 -0.1866  0.2047
 6856SOL    HW125415   3.005   3.851   0.165  0.7533 -1.7003 -0.3337
 6856SOL    HW225416   3.036   3.733   0.254 -1.1995 -1.0741  1.2110
 6857SOL     OW25417   2.189   3.375   2.314 -0.6242  0.0803  0.3599
 6857SOL    HW125418   2.245   3.450   2.332 -0.5135  0.1880 -0.4060
 6857SOL    HW225419   2.212   3.311   2.381  0.2057  0.2350  0.2289
 6858SOL     OW25420   1.516   1.923   1.108  0.3683 -0.1755  0.2247
 6858SOL    HW125421   1.467   1.912   1.189  2.1953  0.4886  1.4459
 6858SOL    HW225422   1.453   1.963   1.048 -0.4786  1.0279  1.8668
 6859SOL     OW25423   3.956   3.315   2.083  0.3413 -0.2142 -0.0368
 6859SOL    HW125424   3.992   3.235   2.044 -0.8322 -0.6025 -0.3257
 6859SOL    HW225425   3.920   3.363   2.009 -0.6242 -0.2897  0.3836
 6860SOL     OW25426   2.539   2.825   1.087 -0.3354 -0.2887  0.5774
 6860SOL    HW125427   2.538   2.807   1.181  0.7197  1.3203  0.9140
 6860SOL    HW225428   2.492   2.908   1.078  1.7309  0.8656  0.0091
 6861SOL     OW25429   2.667   1.632   2.427 -0.7953 -0.4152 -0.7129
 6861SOL    HW125430   2.641   1.547   2.392  0.2736 -1.6854  1.4614
 6861SOL    HW225431   2.593   1.690   2.407 -2.6938 -2.4937  0.0418
 6862SOL     OW25432   0.954   0.835   1.195  0.3528  0.3910 -0.5196
 6862SOL    HW125433   0.989   0.775   1.261  0.2030  0.4026 -0.4308
 6862SOL    HW225434   0.941   0.781   1.117 -0.0102  0.2605 -0.3651
 6863SOL     OW25435   1.112   0.746   0.685 -0.5070  0.0519 -0.1739
 6863SOL    HW125436   1.040   0.692   0.717 -0.7849  0.2802 -0.4115
 6863SOL    HW225437   1.070   0.825   0.649  0.0044  1.2692  1.8311
 6864SOL     OW25438   2.187   3.391   9.990 -0.1391 -0.4408 -0.0044
 6864SOL    HW125439   2.200   3.376  10.083 -0.3642 -0.8902 -0.0405
 6864SOL    HW225440   2.100   3.354   9.972 -1.8445  3.1945  0.3867
 6865SOL     OW25441   1.510   2.686   2.119 -0.4116  0.2509 -0.5729
 6865SOL    HW125442   1.462   2.624   2.174 -0.7089  1.8855  1.0547
 6865SOL    HW225443   1.483   2.665   2.030 -0.2454 -2.1666 -0.0876
 6866SOL     OW25444   4.033   0.027   2.115 -1.1533 -0.3266  0.3961
 6866SOL    HW125445   4.088   0.037   2.037  0.9576 -2.1035  1.6191
 6866SOL    HW225446   4.013   0.117   2.142  0.5193  0.3356 -0.5175
 6867SOL     OW25447   2.648   2.204   0.059  0.3325  0.3263 -0.3988
 6867SOL    HW125448   2.690   2.119   0.066  0.3668  0.4740  1.4444
 6867SOL    HW225449   2.691   2.258   0.125 -0.9892  1.2182 -0.2283
 6868SOL     OW25450   1.576   4.404   1.727 -0.3288  1.0440 -0.0209
 6868SOL    HW125451   1.512   4.336   1.750  0.9768  0.1073  0.9529
 6868SOL    HW225452   1.610   4.434   1.812  0.6729  1.3734 -0.5329
 6869SOL     OW25453   2.666   0.941   2.096 -0.6625 -0.8512  0.1674
 6869SOL    HW125454   2.750   0.970   2.062 -0.1443 -2.6235 -0.1084
 6869SOL    HW225455   2.610   0.936   2.018 -0.7783 -0.5060  0.2278
 6870SOL     OW25456   1.830   2.543   0.006 -0.0250  0.2041  0.2623
 6870SOL    HW125457   1.756   2.590  -0.032  0.3006  0.1363 -0.4691
 6870SOL    HW225458   1.821   2.555   0.101 -1.2478 -0.2280  0.2057
 6871SOL     OW25459   1.081   1.879   1.875 -0.2898 -0.6603 -0.0775
 6871SOL    HW125460   1.007   1.827   1.908 -0.0907 -1.6235 -1.1039
 6871SOL    HW225461   1.140   1.814   1.836  1.0221  0.1142  0.5575
 6872SOL     OW25462   4.438   3.305   0.497 -0.4743  0.2397 -0.4476
 6872SOL    HW125463   4.495   3.230   0.479 -0.7406  0.2224 -1.2158
 6872SOL    HW225464   4.404   3.288   0.585 -0.0722 -0.2437 -0.3793
 6873SOL     OW25465   3.324   2.410   4.758  0.1659  0.0329  0.4454
 6873SOL    HW125466   3.359   2.466   4.689  0.0462 -2.0293 -1.3157
 6873SOL    HW225467   3.241   2.452   4.782 -0.5590 -0.1018 -1.7678
 6874SOL     OW25468   2.875   1.985   1.775  0.0809  0.3208  0.6689
 6874SOL    HW125469   2.936   1.950   1.840  0.4255  0.1867  0.2770
 6874SOL    HW225470   2.788   1.963   1.809  0.2489  0.5772  1.2657
 6875SOL     OW25471   0.837   2.561   0.919  0.7755 -0.7340  1.0364
 6875SOL    HW125472   0.773   2.622   0.956  2.2870  0.6925  1.3669
 6875SOL    HW225473   0.832   2.484   0.975 -2.2942 -1.6103 -0.3127
 6876SOL     OW25474   3.509   1.479   0.977 -0.0051  0.4457  0.3099
 6876SOL    HW125475   3.582   1.514   1.028  2.0262 -1.4519 -1.2266
 6876SOL    HW225476   3.432   1.494   1.033  1.3406  3.4626  1.4871
 6877SOL     OW25477   3.734   2.687   8.948  0.1223  0.0402  0.1854
 6877SOL    HW125478   3.802   2.621   8.939 -1.2308 -1.2939 -0.4035
 6877SOL    HW225479   3.655   2.646   8.913 -0.4765  2.3987 -1.4218
 6878SOL     OW25480   1.223   2.375   1.698  0.0899 -0.5600  0.1446
 6878SOL    HW125481   1.133   2.402   1.713 -0.5278 -1.2722 -2.0810
 6878SOL    HW225482   1.217   2.281   1.678  1.3155 -0.5907 -0.1182
 6879SOL     OW25483   0.800   2.787   1.225  0.7912 -0.4412  0.4846
 6879SOL    HW125484   0.858   2.712   1.241 -0.4846 -1.6448 -0.4280
 6879SOL    HW225485   0.755   2.765   1.144  1.5349  2.0435 -0.6529
 6880SOL     OW25486   2.855   2.057   1.491 -0.0532 -0.5350  0.0517
 6880SOL    HW125487   2.838   2.045   1.585 -0.1526  1.3751  0.3079
 6880SOL    HW225488   2.951   2.053   1.483 -0.1279 -2.3977 -0.0356
 6881SOL     OW25489   4.448   3.159   2.005 -0.3306 -0.4095 -0.3576
 6881SOL    HW125490   4.505   3.232   1.982 -2.2720  1.1920 -0.1150
 6881SOL    HW225491   4.505   3.100   2.055  1.6168  0.2251 -1.7468
 6882SOL     OW25492   2.989   3.839   8.613  0.1827  0.1758  0.1542
 6882SOL    HW125493   3.013   3.772   8.550  1.6208  0.5335  0.3183
 6882SOL    HW225494   2.898   3.819   8.635  1.4595 -3.5241  2.4909
 6883SOL     OW25495   2.733   1.170   0.812  0.2496  0.3628 -0.7550
 6883SOL    HW125496   2.710   1.115   0.887  0.1537  1.8075  0.2929
 6883SOL    HW225497   2.653   1.217   0.790  0.2870 -0.0321 -1.7469
 6884SOL     OW25498   1.959   1.371   2.020 -0.6566 -0.0732 -0.0670
 6884SOL    HW125499   1.918   1.301   2.070  0.1177 -2.4128 -2.5605
 6884SOL    HW225500   2.037   1.394   2.070 -0.8636 -1.0837  0.7175
 6885SOL     OW25501   4.488   2.860   1.642 -0.8337  0.2358  0.1464
 6885SOL    HW125502   4.440   2.779   1.629 -2.7029  1.3002  0.2271
 6885SOL    HW225503   4.427   2.917   1.688  1.0700  1.0876  1.6946
 6886SOL     OW25504   5.128   3.802   0.758  0.2953  0.0736 -0.1282
 6886SOL    HW125505   5.043   3.762   0.740  1.1357 -2.4858  1.2814
 6886SOL    HW225506   5.152   3.845   0.676 -1.0886 -1.5606 -1.4418
 6887SOL     OW25507   1.906   2.351   2.763  0.5219 -0.7262  0.0080
 6887SOL    HW125508   1.862   2.268   2.744 -2.4977  0.9737 -0.6903
 6887SOL    HW225509   1.858   2.387   2.838  1.6867  0.4770  0.1950
 6888SOL     OW25510   3.088   0.904   1.625  0.3658 -0.6149 -0.0701
 6888SOL    HW125511   3.025   0.861   1.682  1.1914 -1.3006  0.3210
 6888SOL    HW225512   3.146   0.951   1.684 -0.5178  1.0455 -0.4882
 6889SOL     OW25513   4.382   2.195   0.011  0.1701 -0.0134 -0.2185
 6889SOL    HW125514   4.465   2.207  -0.035  0.3629 -0.5159 -0.0029
 6889SOL    HW225515   4.316   2.226  -0.051  0.3897 -1.1653 -1.0511
 6890SOL     OW25516   2.063   3.207   1.133  0.0387  0.2011  0.0132
 6890SOL    HW125517   2.027   3.125   1.098 -0.4131  0.2010  0.4768
 6890SOL    HW225518   2.128   3.234   1.068 -0.6764  0.1091 -0.7423
 6891SOL     OW25519   2.517   2.310   1.343  0.6018 -0.0332 -0.0654
 6891SOL    HW125520   2.511   2.254   1.420 -2.1306  1.4018  0.8229
 6891SOL    HW225521   2.516   2.249   1.269 -0.8253 -1.2566  0.9277
 6892SOL     OW25522   3.945   3.918   1.713 -0.1464 -0.1522  0.5562
 6892SOL    HW125523   3.875   3.930   1.777  0.3011  2.1868  0.6882
 6892SOL    HW225524   3.992   4.002   1.715  1.6958 -1.1341 -0.6493
 6893SOL     OW25525   1.143   2.862   1.012  0.1663  0.4326 -0.4789
 6893SOL    HW125526   1.051   2.871   0.988  0.0257  0.2528 -0.0208
 6893SOL    HW225527   1.191   2.867   0.929 -0.4205 -1.9411 -0.9997
 6894SOL     OW25528   2.624   2.291   0.454 -0.4050 -0.2067  0.1572
 6894SOL    HW125529   2.582   2.205   0.453  1.6550 -1.3050  3.3435
 6894SOL    HW225530   2.584   2.337   0.527  1.2072  0.1283  0.8533
 6895SOL     OW25531   2.952   3.506   0.797  0.0811 -0.0701  0.0499
 6895SOL    HW125532   2.967   3.459   0.715  0.2793 -0.6852  0.4297
 6895SOL    HW225533   3.031   3.559   0.809  0.0081  0.0965 -0.2054
 6896SOL     OW25534   2.531   1.871   0.285  0.5338 -0.9233  0.1482
 6896SOL    HW125535   2.546   1.937   0.353 -1.5375  0.3451 -0.5631
 6896SOL    HW225536   2.494   1.796   0.332 -0.6806 -0.1355  0.4768
 6897SOL     OW25537   2.716   0.788   0.584  0.0937 -0.1933  0.3210
 6897SOL    HW125538   2.744   0.879   0.580  1.7258 -0.6509  0.8301
 6897SOL    HW225539   2.657   0.784   0.659  2.1006 -0.0760  1.9314
 6898SOL     OW25540   1.426   2.605   8.720  0.2918  0.4441 -0.8761
 6898SOL    HW125541   1.377   2.633   8.798 -0.4688  1.1341 -1.5915
 6898SOL    HW225542   1.518   2.620   8.742  0.0906  0.4449 -0.0338
 6899SOL     OW25543   2.006   3.249   1.483  0.2345  0.3147 -0.5397
 6899SOL    HW125544   1.913   3.237   1.503  0.9933 -1.2406  2.3243
 6899SOL    HW225545   2.035   3.164   1.451  0.5616  0.9672 -2.0172
 6900SOL     OW25546   4.350   2.634   0.435  0.5687 -0.4241  0.1500
 6900SOL    HW125547   4.350   2.539   0.431  0.7918 -0.3724 -1.1376
 6900SOL    HW225548   4.294   2.662   0.362  0.7364  0.4359  0.3406
 6901SOL     OW25549   4.238   2.003   0.791 -0.6384  0.5848 -0.9200
 6901SOL    HW125550   4.316   1.989   0.738  0.4009 -0.6079  0.8694
 6901SOL    HW225551   4.191   1.920   0.790 -0.3617  0.3920  0.3872
 6902SOL     OW25552   2.821   4.436   1.144  0.3746  0.1339  0.1571
 6902SOL    HW125553   2.741   4.478   1.175  0.5819  0.8353 -0.2496
 6902SOL    HW225554   2.796   4.396   1.061  1.1296  2.7452 -1.3804
 6903SOL     OW25555   2.199   2.168   0.833 -0.1288 -0.5307  0.2166
 6903SOL    HW125556   2.135   2.207   0.893 -1.6126 -1.5243 -0.7032
 6903SOL    HW225557   2.210   2.079   0.865  1.0092 -0.2819  0.5285
 6904SOL     OW25558   2.664   3.690   9.941 -0.0671 -0.0918 -0.3152
 6904SOL    HW125559   2.573   3.664   9.925  0.1065  0.0708 -1.6322
 6904SOL    HW225560   2.703   3.616   9.988 -0.3294 -1.0198 -1.5479
 6905SOL     OW25561   2.635   3.435   1.152  0.5217 -0.0479 -0.3027
 6905SOL    HW125562   2.722   3.418   1.118  0.3214 -0.4168 -0.6420
 6905SOL    HW225563   2.644   3.429   1.247  1.2687  1.8347 -0.2426
 6906SOL     OW25564   1.752   1.475   9.268 -0.3217 -0.3782 -0.7628
 6906SOL    HW125565   1.783   1.534   9.337 -0.8783 -0.1015 -0.7481
 6906SOL    HW225566   1.824   1.412   9.257 -0.0159 -0.1196 -0.2903
 6907SOL     OW25567   2.050   3.440   0.471  0.2048  0.4823  0.3213
 6907SOL    HW125568   2.005   3.369   0.425  0.5091  1.5655 -1.7270
 6907SOL    HW225569   2.101   3.396   0.539  0.3946 -1.2607 -0.9160
 6908SOL     OW25570   3.756   3.693   0.991 -0.6472  0.7547 -0.3419
 6908SOL    HW125571   3.826   3.698   0.926 -1.1917  2.0978 -0.8625
 6908SOL    HW225572   3.725   3.603   0.987  1.8814 -0.1944  0.8048
 6909SOL     OW25573   2.974   1.641   1.409 -0.2490  0.1504 -0.4938
 6909SOL    HW125574   2.938   1.725   1.381  1.7829  0.7844 -1.3021
 6909SOL    HW225575   3.012   1.659   1.496 -0.2301 -0.0438 -0.4618
 6910SOL     OW25576   0.420   3.583   1.568  0.2881  0.7644 -0.0454
 6910SOL    HW125577   0.399   3.532   1.490 -0.8737  0.7665  0.2718
 6910SOL    HW225578   0.407   3.523   1.641  4.8872 -0.3875 -0.0162
 6911SOL     OW25579   2.964   1.303   1.695 -0.3571 -0.2540 -0.5265
 6911SOL    HW125580   3.037   1.264   1.744 -1.0501 -1.1504 -0.2074
 6911SOL    HW225581   2.889   1.247   1.714 -1.2742  0.9807 -0.3905
 6912SOL     OW25582   2.707   1.593   9.663  0.3566 -0.1626 -0.0017
 6912SOL    HW125583   2.634   1.610   9.603 -0.1403  0.8721  0.8853
 6912SOL    HW225584   2.699   1.661   9.730  1.3518 -0.8581  0.8265
 6913SOL     OW25585   2.929   1.525   0.201 -0.3599 -0.2840  0.6512
 6913SOL    HW125586   2.991   1.513   0.129  2.6906 -1.7769  3.4026
 6913SOL    HW225587   2.979   1.504   0.280 -3.4260  1.8249  3.3059
 6914SOL     OW25588   1.169   3.138   1.849 -0.4846  0.2208  0.3213
 6914SOL    HW125589   1.182   3.210   1.788  0.0214  0.9874  1.3238
 6914SOL    HW225590   1.125   3.177   1.924  2.0567  0.0552  1.9753
 6915SOL     OW25591   3.551   2.559   0.593 -0.1725  0.1426 -0.4904
 6915SOL    HW125592   3.510   2.638   0.558  1.1661  0.2176 -1.9643
 6915SOL    HW225593   3.610   2.590   0.661 -1.2879  0.1856  0.4787
 6916SOL     OW25594   1.673   2.986   0.594 -0.2038 -0.0869  0.1634
 6916SOL    HW125595   1.682   2.898   0.630 -0.7767 -0.5180 -0.7421
 6916SOL    HW225596   1.579   3.001   0.588 -0.1370  1.3365  2.0969
 6917SOL     OW25597   2.423   3.380   0.229  0.5175  0.4037  0.7014
 6917SOL    HW125598   2.454   3.340   0.148 -0.2086  0.4086  0.4130
 6917SOL    HW225599   2.403   3.306   0.287  1.4157  0.4089  1.0239
 6918SOL     OW25600   3.478   4.382   3.835  0.2895 -0.0983  0.0337
 6918SOL    HW125601   3.556   4.437   3.843  0.7425 -0.4654 -1.6759
 6918SOL    HW225602   3.499   4.303   3.885  0.7557  0.0958  0.1457
 6919SOL     OW25603   4.010   1.807   1.083 -0.8920 -0.2427  0.4747
 6919SOL    HW125604   4.100   1.826   1.056 -1.0151 -0.1842  0.0924
 6919SOL    HW225605   4.014   1.723   1.127 -0.2391  0.8899  2.6664
 6920SOL     OW25606   1.813   2.490   0.750  0.4886  0.2980  0.2340
 6920SOL    HW125607   1.879   2.466   0.815 -0.4013 -1.2580  0.5833
 6920SOL    HW225608   1.775   2.407   0.722 -1.6922  1.1802  0.4188
 6921SOL     OW25609   2.396   4.342   0.589 -0.0459 -0.8846  0.8661
 6921SOL    HW125610   2.431   4.348   0.500 -0.9848  0.5222  0.5878
 6921SOL    HW225611   2.389   4.248   0.606  2.3476 -1.1854  0.3367
 6922SOL     OW25612   3.480   5.696   2.350 -0.3825  0.5081 -0.1152
 6922SOL    HW125613   3.527   5.758   2.406 -0.4735  0.5444 -0.0774
 6922SOL    HW225614   3.392   5.734   2.342 -0.0666  1.0571 -1.1410
 6923SOL     OW25615   3.966   1.680   9.734  0.3111  0.3340  0.0939
 6923SOL    HW125616   3.894   1.636   9.690 -0.9029  0.6003  1.7689
 6923SOL    HW225617   4.043   1.626   9.715 -1.1366 -2.5965  2.1593
 6924SOL     OW25618   3.182   4.432   9.560 -0.3157  0.4116 -0.1718
 6924SOL    HW125619   3.148   4.486   9.631 -0.7800  0.8062 -0.6930
 6924SOL    HW225620   3.123   4.448   9.486  0.6022  0.5899 -0.8832
 6925SOL     OW25621   2.069   2.638   1.240  0.4766 -0.6332  0.6413
 6925SOL    HW125622   1.982   2.653   1.277  0.7999 -0.8946  1.5209
 6925SOL    HW225623   2.092   2.549   1.268  0.8130 -0.7586 -0.0208
 6926SOL     OW25624   3.921   2.129   0.311 -0.0721  0.1429 -0.1378
 6926SOL    HW125625   3.930   2.086   0.396 -1.6521 -0.3964 -0.2399
 6926SOL    HW225626   3.833   2.108   0.282  0.4798  0.2489 -1.9649
 6927SOL     OW25627   1.955   2.499   1.680  0.0763 -0.0535 -0.1684
 6927SOL    HW125628   1.913   2.477   1.763 -0.9768  1.4391 -0.2940
 6927SOL    HW225629   1.942   2.593   1.670  2.9723  0.3635 -0.5016
 6928SOL     OW25630   2.434   2.316   0.866 -0.5923 -0.0124  0.2413
 6928SOL    HW125631   2.407   2.402   0.834 -1.3980  1.1627  3.8927
 6928SOL    HW225632   2.356   2.261   0.855 -0.2240 -0.1881 -1.6492
 6929SOL     OW25633   3.080   4.262   2.007 -0.5079  0.3464 -0.4340
 6929SOL    HW125634   3.104   4.194   1.944 -0.9131 -0.9184  0.7478
 6929SOL    HW225635   3.041   4.332   1.954 -0.8096 -0.6890 -1.5865
 6930SOL     OW25636   2.929   1.443   0.956  0.2627 -0.4760  0.8166
 6930SOL    HW125637   2.978   1.506   1.009 -0.3338 -0.6617  1.5993
 6930SOL    HW225638   2.960   1.357   0.987 -2.5393 -0.6653  3.2870
 6931SOL     OW25639   2.356   2.296   9.751 -0.0801 -0.1567 -0.5094
 6931SOL    HW125640   2.294   2.251   9.808 -0.2550  3.3145  2.2484
 6931SOL    HW225641   2.304   2.322   9.675 -0.8853 -1.2500 -0.3419
 6932SOL     OW25642   2.251   2.358   3.179  0.2083  0.2692  0.3983
 6932SOL    HW125643   2.197   2.314   3.114 -1.2583  1.7035  0.6038
 6932SOL    HW225644   2.313   2.410   3.127  0.0392  0.2185  0.1458
 6933SOL     OW25645   2.013   2.887   1.107  0.0131  0.2529  0.0257
 6933SOL    HW125646   1.988   2.920   1.021 -0.5587  0.1568  0.1514
 6933SOL    HW225647   1.989   2.794   1.105  0.8667  0.0369 -0.0417
 6934SOL     OW25648   1.741   1.773   8.887 -0.6483 -0.2919  0.2496
 6934SOL    HW125649   1.793   1.827   8.827 -0.4176  1.1127  1.6864
 6934SOL    HW225650   1.806   1.720   8.934 -0.6897 -0.1750  0.4408
 6935SOL     OW25651   2.913   2.589   2.105 -0.2195 -0.1246 -0.1634
 6935SOL    HW125652   2.900   2.509   2.054 -1.9346  0.2811 -0.3975
 6935SOL    HW225653   3.005   2.585   2.133  0.2511 -1.2095 -1.7926
 6936SOL     OW25654   2.436   3.025   9.108  0.0438  0.1074 -0.3455
 6936SOL    HW125655   2.350   2.984   9.095 -0.3468  0.1607  1.7309
 6936SOL    HW225656   2.488   2.958   9.152 -0.0272  1.1930  1.4522
 6937SOL     OW25657   4.547   2.291   9.652 -0.4906  0.3148  0.0945
 6937SOL    HW125658   4.478   2.306   9.586 -0.8638  0.9513  0.6216
 6937SOL    HW225659   4.549   2.372   9.703 -1.2081 -0.7079  1.7912
 6938SOL     OW25660   0.864   2.070   1.841  0.5169 -0.5087 -0.1406
 6938SOL    HW125661   0.866   2.153   1.889  0.5999 -1.0614  0.8343
 6938SOL    HW225662   0.934   2.018   1.881  0.1507 -1.2230 -0.4182
 6939SOL     OW25663   3.219   5.427   0.660 -0.0218 -0.6945 -0.2695
 6939SOL    HW125664   3.236   5.343   0.702 -1.1139 -0.9433 -0.3116
 6939SOL    HW225665   3.128   5.447   0.682  0.5914  1.0872  0.7990
 6940SOL     OW25666   0.636   2.926   1.969  0.0815 -0.4135 -0.3294
 6940SOL    HW125667   0.682   2.972   1.898 -0.9463 -1.0844 -1.4464
 6940SOL    HW225668   0.660   2.975   2.048  1.3072  0.3007 -1.1208
 6941SOL     OW25669   2.024   2.010   1.302  0.1779 -0.0793 -0.4796
 6941SOL    HW125670   2.026   2.105   1.291  0.6833 -0.0930 -0.5311
 6941SOL    HW225671   1.933   1.990   1.320  0.0214  0.3845 -0.7469
 6942SOL     OW25672   3.432   2.325   0.509  0.3586 -0.3554  0.5544
 6942SOL    HW125673   3.388   2.355   0.429  0.7776 -0.3944  0.3050
 6942SOL    HW225674   3.469   2.404   0.548  1.0626 -0.4739  0.1441
 6943SOL     OW25675   3.269   3.076   0.749  0.3694 -0.2877  0.1511
 6943SOL    HW125676   3.212   3.149   0.724  0.1697  1.1365  4.4729
 6943SOL    HW225677   3.213   2.999   0.742 -0.9793  0.6264  0.6967
 6944SOL     OW25678   2.671   1.517   9.266 -0.4074 -0.1307 -0.3048
 6944SOL    HW125679   2.739   1.580   9.290 -1.3004  1.0275 -0.7676
 6944SOL    HW225680   2.592   1.550   9.309 -0.8156 -1.1289 -0.2701
 6945SOL     OW25681   3.291   2.018   0.616 -0.5344 -0.2773  0.2801
 6945SOL    HW125682   3.386   2.027   0.622 -0.6162  0.8792 -0.0044
 6945SOL    HW225683   3.277   1.924   0.607  0.4995 -0.5837  1.6786
 6946SOL     OW25684   4.344   3.676   2.535 -0.6017 -0.3992  0.0327
 6946SOL    HW125685   4.308   3.759   2.506 -0.9792  0.1701  2.0204
 6946SOL    HW225686   4.405   3.700   2.605 -0.0480 -1.7127  0.0095
 6947SOL     OW25687   2.626   3.271   0.490  0.3970  0.6860 -0.3112
 6947SOL    HW125688   2.583   3.353   0.512 -0.7336 -0.3310  1.4325
 6947SOL    HW225689   2.698   3.263   0.553 -0.4139 -0.3431  0.5166
 6948SOL     OW25690   1.577   3.751   9.641 -0.4108 -0.5512  0.4484
 6948SOL    HW125691   1.576   3.777   9.550 -0.5222  1.3475  0.9792
 6948SOL    HW225692   1.624   3.667   9.642  0.0881 -0.2997 -1.2575
 6949SOL     OW25693   1.199   3.391   1.654  0.4985 -0.0486  0.2274
 6949SOL    HW125694   1.200   3.319   1.591  1.6790 -0.3215  0.5608
 6949SOL    HW225695   1.275   3.444   1.632  0.0072  0.7507  0.4075
 6950SOL     OW25696   3.355   0.288   1.050 -0.6603  0.0691 -0.2007
 6950SOL    HW125697   3.404   0.206   1.047 -0.8835 -0.0276 -1.5576
 6950SOL    HW225698   3.323   0.300   0.961 -1.5596  1.0740  0.2447
 6951SOL     OW25699   3.470   1.476   0.713 -0.0295 -0.2013 -0.0445
 6951SOL    HW125700   3.540   1.414   0.693  0.0132 -0.8700  2.0967
 6951SOL    HW225701   3.477   1.492   0.807 -0.8002  2.1308 -0.3445
 6952SOL     OW25702   2.287   1.309   0.839 -0.4122 -0.7439  0.2495
 6952SOL    HW125703   2.243   1.230   0.871 -0.5261 -0.3319  1.1082
 6952SOL    HW225704   2.272   1.308   0.744  0.2571 -2.1608  0.1473
 6953SOL     OW25705   1.883   1.868   1.863 -0.5576  0.2896  0.5614
 6953SOL    HW125706   1.919   1.818   1.790  1.8379  0.4531  1.6091
 6953SOL    HW225707   1.880   1.806   1.936 -1.5687  0.5316  0.7407
 6954SOL     OW25708   3.165   1.865   0.217 -0.2891 -0.0741  0.2390
 6954SOL    HW125709   3.077   1.873   0.253 -0.2378  3.1580 -0.2198
 6954SOL    HW225710   3.153   1.873   0.122  0.4601 -0.0913  0.1371
 6955SOL     OW25711   2.873   3.391   9.728  0.0257 -0.0030  0.5163
 6955SOL    HW125712   2.869   3.402   9.823  0.8361 -1.5092  0.7282
 6955SOL    HW225713   2.803   3.328   9.708 -0.1585  0.3265  0.1034
 6956SOL     OW25714   3.395   2.496   0.942  0.2035 -0.3568 -0.0971
 6956SOL    HW125715   3.422   2.411   0.906  0.0114 -0.5238  0.1560
 6956SOL    HW225716   3.310   2.513   0.903  0.0648 -0.4644  0.1607
 6957SOL     OW25717   1.716   2.858   1.244 -0.4902  0.6824  0.2054
 6957SOL    HW125718   1.633   2.834   1.285 -1.1565  0.7251 -1.1107
 6957SOL    HW225719   1.695   2.930   1.186  0.4593  0.6536 -0.1961
 6958SOL     OW25720   3.626   2.860   2.743  0.0553 -0.5931 -0.1943
 6958SOL    HW125721   3.589   2.832   2.827 -1.0079 -2.1681 -1.1629
 6958SOL    HW225722   3.711   2.817   2.739  0.0534 -0.6186  0.0280
 6959SOL     OW25723   0.919   2.066   1.574  0.7972  0.2545 -0.2031
 6959SOL    HW125724   0.875   1.984   1.594 -0.8724  0.6890 -1.9092
 6959SOL    HW225725   0.920   2.114   1.656 -0.5207 -0.4274  0.2170
 6960SOL     OW25726   2.253   2.467   1.457  0.2022  0.1395  0.1866
 6960SOL    HW125727   2.198   2.389   1.463  1.2446 -0.6922 -0.9089
 6960SOL    HW225728   2.296   2.473   1.542 -1.2764  0.5730  0.9155
 6961SOL     OW25729   3.011   3.246   2.609 -0.0041  0.1648  0.1127
 6961SOL    HW125730   2.977   3.269   2.522  1.3432 -0.7820 -0.6863
 6961SOL    HW225731   2.939   3.264   2.669 -0.8514  1.1086 -1.1721
 6962SOL     OW25732   2.962   1.358   1.422  0.5058  0.1583 -0.0777
 6962SOL    HW125733   2.953   1.453   1.416 -0.8254  0.1327  1.2226
 6962SOL    HW225734   2.971   1.341   1.516  0.1565 -1.0517 -0.2591
 6963SOL     OW25735   2.931   2.948   9.971 -0.0438  0.0790  0.1472
 6963SOL    HW125736   2.901   2.906   9.891  1.1707  1.6126 -1.1403
 6963SOL    HW225737   2.869   2.920  10.038 -0.7040 -1.7134 -1.1963
 6964SOL     OW25738   1.601   1.629   2.208  0.6503  0.6232 -0.0761
 6964SOL    HW125739   1.641   1.628   2.295 -0.0516 -1.8019  0.2657
 6964SOL    HW225740   1.513   1.665   2.222  0.1867 -0.6630  0.4195
 6965SOL     OW25741   3.775   2.106   0.791 -0.1314  0.0379 -0.5641
 6965SOL    HW125742   3.729   2.047   0.852 -1.7266  1.9008  0.1053
 6965SOL    HW225743   3.858   2.062   0.773 -0.7560 -1.8215  0.8792
 6966SOL     OW25744   3.360   9.874   0.084  0.0873  0.2126 -0.1627
 6966SOL    HW125745   3.279   9.830   0.110 -0.4036  0.8671 -0.5788
 6966SOL    HW225746   3.411   9.879   0.165 -0.2798 -0.2161  0.0999
 6967SOL     OW25747   2.461   2.523   0.032 -0.2878  0.0922 -0.1943
 6967SOL    HW125748   2.419   2.446   0.071 -0.7885  1.3020  1.7179
 6967SOL    HW225749   2.539   2.536   0.086 -0.1787  0.8998 -0.5465
 6968SOL     OW25750   1.237   2.789   9.884  0.2144 -0.0973  0.1931
 6968SOL    HW125751   1.154   2.823   9.851 -0.3025 -0.2389  1.3232
 6968SOL    HW225752   1.245   2.826   9.971  0.1777 -1.9798  1.0209
 6969SOL     OW25753   5.454   4.012   1.483  0.6406  0.3050  0.2034
 6969SOL    HW125754   5.408   4.020   1.400 -0.4496 -1.2234  0.6466
 6969SOL    HW225755   5.423   4.086   1.535  2.6669  2.3149 -1.3441
 6970SOL     OW25756   3.360   2.463   1.444  0.1111  0.0082  0.0691
 6970SOL    HW125757   3.388   2.430   1.358  0.1428  0.8437 -0.2500
 6970SOL    HW225758   3.345   2.385   1.496 -1.8995 -0.5949 -1.3458
 6971SOL     OW25759   1.979   1.607   2.473 -0.6109  0.8078  0.2520
 6971SOL    HW125760   2.011   1.557   2.398 -1.1706 -0.4447  0.8470
 6971SOL    HW225761   2.052   1.606   2.535 -0.5257  0.9719  0.1567
 6972SOL     OW25762   2.722   2.491   2.827 -0.2797 -0.0806  0.2541
 6972SOL    HW125763   2.797   2.461   2.879 -0.9402 -1.7658  0.2307
 6972SOL    HW225764   2.647   2.483   2.886 -0.8593 -0.9497 -0.5979
 6973SOL     OW25765   1.586   3.953   2.694  0.7640  0.1906 -0.2026
 6973SOL    HW125766   1.543   3.968   2.778  0.1457 -1.4137 -0.2052
 6973SOL    HW225767   1.538   3.880   2.655  1.8519  0.0746 -1.3782
 6974SOL     OW25768   3.109   1.598   2.378  0.2556 -0.0700 -0.3118
 6974SOL    HW125769   3.113   1.657   2.453 -0.2757 -0.0769 -0.2763
 6974SOL    HW225770   3.081   1.514   2.415 -0.9709  0.1785 -0.6597
 6975SOL     OW25771   2.046   0.563   3.859 -0.4962  0.4713 -0.6552
 6975SOL    HW125772   2.064   0.471   3.836 -1.3402  0.4608 -1.3263
 6975SOL    HW225773   2.046   0.565   3.954  0.4653 -0.0407 -0.6440
 6976SOL     OW25774   1.693   2.949   5.073 -0.2319 -0.4364  0.3013
 6976SOL    HW125775   1.733   3.030   5.105  0.9860 -1.6910  2.0453
 6976SOL    HW225776   1.599   2.967   5.072  0.0311  1.0040  0.6251
 6977SOL     OW25777   3.288   2.091   2.358 -0.0170  0.3697  0.7165
 6977SOL    HW125778   3.353   2.106   2.427 -0.5158  0.4200  1.1843
 6977SOL    HW225779   3.214   2.146   2.384  0.3697  1.5634 -0.6718
 6978SOL     OW25780   2.749   3.121   2.298 -0.7046  0.2830  0.2054
 6978SOL    HW125781   2.711   3.041   2.261 -0.8400  0.8768 -0.9487
 6978SOL    HW225782   2.679   3.159   2.352 -1.3812  0.7834 -1.0118
 6979SOL     OW25783   2.985   3.783   3.219  0.7239 -0.3690 -0.1781
 6979SOL    HW125784   3.077   3.806   3.232  0.6308 -1.5780  3.1925
 6979SOL    HW225785   2.939   3.829   3.289 -1.2035 -0.1294 -1.5711
 6980SOL     OW25786   3.120   4.552   3.128 -0.2454 -0.0655 -0.5209
 6980SOL    HW125787   3.030   4.552   3.159  0.0285 -0.5161  0.2749
 6980SOL    HW225788   3.167   4.494   3.188  0.7322  0.7431 -0.4845
 6981SOL     OW25789   1.643   3.341   3.949  0.0580  0.2489  0.3705
 6981SOL    HW125790   1.571   3.298   3.996 -1.3594  1.4234 -0.6497
 6981SOL    HW225791   1.603   3.371   3.867  2.1933 -0.7184 -1.0668
 6982SOL     OW25792   1.814   3.106   3.184  0.2319 -0.1110  0.2441
 6982SOL    HW125793   1.868   3.096   3.262  1.1176 -0.2052 -0.3580
 6982SOL    HW225794   1.725   3.114   3.216  0.2465 -3.1060  1.0968
 6983SOL     OW25795   1.822   1.578   3.046  0.1661 -0.4899 -0.2846
 6983SOL    HW125796   1.779   1.633   3.112 -1.0106  0.1251 -1.5530
 6983SOL    HW225797   1.774   1.495   3.049 -1.3444  0.2815 -1.8783
 6984SOL     OW25798   3.918   1.295   3.324 -0.2583 -0.4066 -0.0323
 6984SOL    HW125799   4.007   1.265   3.302 -0.5659 -0.8827 -0.6299
 6984SOL    HW225800   3.911   1.380   3.280  0.0499 -0.1761  0.3594
 6985SOL     OW25801   1.435   3.508   2.125 -0.0879 -0.1075  0.1331
 6985SOL    HW125802   1.383   3.504   2.045  1.0632  0.9575 -0.6932
 6985SOL    HW225803   1.406   3.588   2.169  0.3885  0.1443 -0.0084
 6986SOL     OW25804   3.079   3.361   3.948 -0.3001  0.1763  0.1281
 6986SOL    HW125805   2.990   3.325   3.946  0.1399 -0.8900 -0.4037
 6986SOL    HW225806   3.066   3.456   3.951 -1.4458  0.0650 -0.9930
 6987SOL     OW25807   2.206   1.972   3.550  0.4246 -0.4134 -0.8236
 6987SOL    HW125808   2.178   1.898   3.496  0.9996  0.3459 -2.1793
 6987SOL    HW225809   2.191   2.049   3.496  0.4704  0.4144  0.3252
 6988SOL     OW25810   4.011   2.229   4.605  0.4037 -0.5501 -0.6519
 6988SOL    HW125811   3.935   2.186   4.565  1.1822 -2.2216 -0.3762
 6988SOL    HW225812   3.984   2.249   4.694 -0.7500  1.6337 -1.4609
 6989SOL     OW25813   2.775   2.930   0.831  0.5450 -0.1377  0.1984
 6989SOL    HW125814   2.736   2.922   0.918  1.0331  1.7504  0.6038
 6989SOL    HW225815   2.702   2.956   0.775  0.6475  0.6264  0.4223
 6990SOL     OW25816   1.052   2.237   3.335  0.0974 -0.0625 -0.3453
 6990SOL    HW125817   0.984   2.186   3.292 -0.0543 -0.5862  0.5147
 6990SOL    HW225818   1.005   2.308   3.379  0.3394  1.0743 -1.8582
 6991SOL     OW25819   1.472   2.373   2.635  0.5520  0.1911 -0.1700
 6991SOL    HW125820   1.540   2.383   2.701  1.4370  0.0817 -1.0457
 6991SOL    HW225821   1.461   2.461   2.598  1.5352 -0.1415 -1.2900
 6992SOL     OW25822   2.139   1.937   2.167 -0.0724 -0.5266 -0.2482
 6992SOL    HW125823   2.162   2.022   2.129 -0.3507 -0.6273 -0.6426
 6992SOL    HW225824   2.123   1.881   2.092  0.5395 -1.0517  0.0120
 6993SOL     OW25825   1.742   3.113   1.987 -0.3098  0.1544 -0.2755
 6993SOL    HW125826   1.720   3.033   2.036 -0.1294 -0.5561 -1.3402
 6993SOL    HW225827   1.832   3.132   2.012 -0.0885 -0.4279 -0.6205
 6994SOL     OW25828   3.749   1.559   3.685  0.4074 -0.5899 -0.3685
 6994SOL    HW125829   3.827   1.585   3.635 -0.0550 -0.6567 -1.1251
 6994SOL    HW225830   3.715   1.483   3.639 -0.6262 -0.0116 -0.5751
 6995SOL     OW25831   3.712   3.629   2.339  0.0797 -0.4256  0.2682
 6995SOL    HW125832   3.764   3.556   2.305  2.1852  0.6798  0.9785
 6995SOL    HW225833   3.671   3.668   2.262 -1.0290 -2.3192 -0.1149
 6996SOL     OW25834   1.131   2.165   2.730  0.6103  0.2382 -0.1531
 6996SOL    HW125835   1.075   2.197   2.659 -1.4797  1.3567  1.9468
 6996SOL    HW225836   1.176   2.090   2.692 -2.3326 -0.7379 -1.9358
 6997SOL     OW25837   1.820   2.945   1.738 -0.3988 -0.9135 -0.2633
 6997SOL    HW125838   1.788   3.035   1.730 -0.7044 -1.2473 -3.4334
 6997SOL    HW225839   1.767   2.907   1.808 -2.5507  0.4510 -1.0932
 6998SOL     OW25840   2.349   5.256   2.860 -0.2640  0.2800  0.2828
 6998SOL    HW125841   2.295   5.239   2.782 -1.0420  1.9991  0.4199
 6998SOL    HW225842   2.403   5.331   2.835  0.6490 -0.1973  0.8333
 6999SOL     OW25843   1.379   0.894   4.544  0.3567  0.2287 -0.1945
 6999SOL    HW125844   1.334   0.868   4.464 -0.8813  0.3173  0.4647
 6999SOL    HW225845   1.408   0.812   4.583  3.9350  0.3170 -2.3837
 7000SOL     OW25846   3.209   2.994   0.384 -0.3866  0.8105 -0.5593
 7000SOL    HW125847   3.202   2.966   0.292 -0.0680 -0.2201 -0.2744
 7000SOL    HW225848   3.203   2.913   0.434  0.6328  1.2477  0.2840
 7001SOL     OW25849   3.474   2.479   4.419 -0.0334 -0.2967 -0.4478
 7001SOL    HW125850   3.498   2.563   4.380  1.2623 -1.4449 -2.2000
 7001SOL    HW225851   3.550   2.423   4.403 -1.4559 -2.2333 -0.5890
 7002SOL     OW25852   1.968   1.906   3.797 -0.0935 -0.4376 -0.0458
 7002SOL    HW125853   1.965   1.990   3.751  3.0655 -0.0813  0.2391
 7002SOL    HW225854   1.938   1.842   3.733  0.0184  0.5948 -1.1399
 7003SOL     OW25855   2.969   2.392   2.939 -0.0285 -0.2413 -0.4078
 7003SOL    HW125856   2.916   2.326   2.895 -0.2153 -0.1399 -0.3348
 7003SOL    HW225857   3.046   2.403   2.883 -1.6170  1.9935 -2.2271
 7004SOL     OW25858   3.529   3.158   0.912 -0.5514  0.0863  0.3638
 7004SOL    HW125859   3.442   3.156   0.873 -0.4264 -1.8487  0.1393
 7004SOL    HW225860   3.582   3.102   0.856 -0.0329 -1.6221  2.4634
 7005SOL     OW25861   1.030   2.745   1.555 -0.3512 -0.3159 -0.2638
 7005SOL    HW125862   1.067   2.811   1.497  0.2370  0.6388  1.1654
 7005SOL    HW225863   0.990   2.681   1.496 -1.7867  1.8058 -1.6516
 7006SOL     OW25864   2.071   1.111   2.848  0.0491  0.3267 -0.4591
 7006SOL    HW125865   1.984   1.139   2.875  0.5258  0.3330  1.1473
 7006SOL    HW225866   2.073   1.017   2.865  0.9063  0.6108  1.1231
 7007SOL     OW25867   3.014   1.764   3.223 -0.1378 -0.3743  0.3831
 7007SOL    HW125868   3.047   1.768   3.133 -4.0941 -1.4361 -1.2250
 7007SOL    HW225869   2.947   1.833   3.227 -1.3256 -1.5865  1.8962
 7008SOL     OW25870   2.848   4.082   1.547 -0.3512 -0.2227 -0.0084
 7008SOL    HW125871   2.850   4.052   1.638  0.5763 -0.0270  0.0364
 7008SOL    HW225872   2.762   4.055   1.515 -0.4540 -0.8037  0.7524
 7009SOL     OW25873   3.597   2.663   1.256  0.2954  0.0203 -0.1237
 7009SOL    HW125874   3.654   2.664   1.179 -1.3784  0.4938 -1.4030
 7009SOL    HW225875   3.522   2.610   1.229 -0.5890  0.6745  0.9879
 7010SOL     OW25876   2.256   1.470   4.218  0.5576  0.6596 -0.1861
 7010SOL    HW125877   2.234   1.431   4.303  0.8925 -0.2298 -0.4956
 7010SOL    HW225878   2.197   1.545   4.209  1.2837  1.4292  1.3314
 7011SOL     OW25879   1.837   1.711   3.540  0.3215 -0.1522 -0.2780
 7011SOL    HW125880   1.782   1.644   3.499  0.3755  0.4394 -1.3023
 7011SOL    HW225881   1.792   1.794   3.523  0.8022  0.1882  0.0916
 7012SOL     OW25882   1.309   2.251   3.282 -0.1350 -0.4760 -0.1450
 7012SOL    HW125883   1.333   2.328   3.231  1.0078 -0.3610  0.5465
 7012SOL    HW225884   1.213   2.252   3.284 -0.1112  1.3932  0.5802
 7013SOL     OW25885   2.545   2.362   3.969 -0.7794 -0.3392  0.4369
 7013SOL    HW125886   2.502   2.362   3.883  0.1499 -2.1136 -0.0584
 7013SOL    HW225887   2.634   2.331   3.951 -0.7173 -1.1940  2.1018
 7014SOL     OW25888   3.374   3.335   4.100  0.1477 -0.2589  0.2067
 7014SOL    HW125889   3.365   3.430   4.105  0.2645 -0.2752  0.7100
 7014SOL    HW225890   3.287   3.304   4.075 -0.3259 -0.1438  1.6727
 7015SOL     OW25891   0.972   0.639   3.689 -0.1359 -0.1092  0.6194
 7015SOL    HW125892   0.913   0.651   3.763  1.1594 -0.3698  1.7077
 7015SOL    HW225893   0.986   0.544   3.685 -0.2670 -0.1050 -0.0141
 7016SOL     OW25894   5.195   3.447   4.318 -0.3487 -0.7332 -0.1439
 7016SOL    HW125895   5.174   3.496   4.397 -1.0670 -2.0537  0.5118
 7016SOL    HW225896   5.181   3.355   4.342  1.3815 -1.3059 -1.2024
 7017SOL     OW25897   3.234   3.113   3.940  0.3262 -0.1610 -0.6618
 7017SOL    HW125898   3.170   3.176   3.906  1.2565  0.7660 -0.7277
 7017SOL    HW225899   3.185   3.062   4.004 -0.5436  0.3736 -0.8835
 7018SOL     OW25900   1.494   2.242   1.931 -0.3966  0.4217  0.4064
 7018SOL    HW125901   1.420   2.214   1.986  0.2055  1.1635  1.6184
 7018SOL    HW225902   1.568   2.190   1.963  0.2691  1.8744  1.2706
 7019SOL     OW25903   1.401   2.357   0.553  0.0517  0.2722 -0.2042
 7019SOL    HW125904   1.474   2.309   0.515 -1.3910 -2.8525  0.8102
 7019SOL    HW225905   1.438   2.400   0.630  1.2469  0.3295 -0.8044
 7020SOL     OW25906   1.289   3.461   2.853  0.4715 -0.0338  0.0460
 7020SOL    HW125907   1.237   3.381   2.843 -2.1927  1.6059  0.5124
 7020SOL    HW225908   1.363   3.448   2.794 -0.2506 -2.5754 -0.3742
 7021SOL     OW25909   2.167   2.734   1.755  0.5494  0.1984  0.2680
 7021SOL    HW125910   2.118   2.722   1.836 -0.8104  0.3764 -0.5146
 7021SOL    HW225911   2.102   2.727   1.686  1.7122 -0.0566 -0.8291
 7022SOL     OW25912   2.532   2.488   2.611 -0.2067  0.1221  0.4371
 7022SOL    HW125913   2.481   2.554   2.657  1.4893  2.3241 -0.7652
 7022SOL    HW225914   2.585   2.447   2.679 -0.4325  0.7795  1.0183
 7023SOL     OW25915   3.106   2.413   0.898  0.0639 -0.6305 -0.4112
 7023SOL    HW125916   3.050   2.402   0.974  0.1440 -1.9032 -0.5203
 7023SOL    HW225917   3.119   2.324   0.865  2.8069 -0.4688  0.0963
 7024SOL     OW25918   1.774   2.045   3.275 -0.0251  0.4147  0.2578
 7024SOL    HW125919   1.808   2.134   3.261 -0.5979  0.4610 -0.8993
 7024SOL    HW225920   1.771   2.007   3.187  1.5972 -1.2632  0.9164
 7025SOL     OW25921   3.875   2.955   2.929  0.3484 -0.1011  0.4958
 7025SOL    HW125922   3.789   2.928   2.960  0.1081  2.2376  1.9981
 7025SOL    HW225923   3.898   2.890   2.862 -1.8475 -1.6827  1.2114
 7026SOL     OW25924   3.302   4.078   0.234  0.8559 -0.0104  0.0376
 7026SOL    HW125925   3.213   4.108   0.255  0.1662 -0.2146 -2.5380
 7026SOL    HW225926   3.293   3.984   0.217  1.6174 -0.0703 -0.0589
 7027SOL     OW25927   3.483   2.471   3.470  0.0918  0.5784 -0.0333
 7027SOL    HW125928   3.519   2.445   3.385  1.3865  0.5222  0.5281
 7027SOL    HW225929   3.469   2.565   3.463 -0.1615  0.5125 -0.4347
 7028SOL     OW25930   1.664   3.167   1.348  0.6235  0.3247 -0.1975
 7028SOL    HW125931   1.652   3.074   1.329 -1.0618  0.4533  0.2042
 7028SOL    HW225932   1.636   3.212   1.268  1.2723  0.4951 -0.3297
 7029SOL     OW25933   2.636   0.286   1.847 -0.0522  0.3068  0.1349
 7029SOL    HW125934   2.651   0.377   1.822 -0.2602  1.0003  2.3806
 7029SOL    HW225935   2.723   0.247   1.849  0.0612  0.5143 -0.5881
 7030SOL     OW25936   1.925   4.879   1.854  0.5850  0.3425 -0.0954
 7030SOL    HW125937   1.899   4.911   1.768 -0.1766 -0.0556 -0.0269
 7030SOL    HW225938   1.873   4.931   1.916  0.0879 -0.3331  0.0582
 7031SOL     OW25939   2.575   2.679   2.090  0.0905 -0.0420  0.2787
 7031SOL    HW125940   2.557   2.611   2.155  0.4561 -0.8743 -0.4751
 7031SOL    HW225941   2.498   2.677   2.032 -0.0181  0.3660  0.4115
 7032SOL     OW25942   2.584   1.944   2.093  0.1085 -0.1693 -0.7232
 7032SOL    HW125943   2.504   1.902   2.124  0.3675  0.8159  1.3639
 7032SOL    HW225944   2.613   1.890   2.019 -1.5737 -1.4759 -0.4487
 7033SOL     OW25945   2.363   3.318   6.095  0.1056 -0.8991  0.4986
 7033SOL    HW125946   2.281   3.289   6.135 -1.0719 -0.0282 -1.2266
 7033SOL    HW225947   2.341   3.401   6.052  1.6766 -1.0959 -0.7358
 7034SOL     OW25948   1.874   0.758   2.182 -0.0973 -0.4511 -0.0713
 7034SOL    HW125949   1.800   0.749   2.122 -1.4100 -0.4451  1.5055
 7034SOL    HW225950   1.834   0.752   2.269  1.6485  0.4654  0.7995
 7035SOL     OW25951   2.977   1.932   4.122 -0.3340 -0.9284  0.1595
 7035SOL    HW125952   2.938   1.916   4.036 -3.1043 -2.0503  1.5536
 7035SOL    HW225953   3.011   1.847   4.150 -0.5240 -0.8323  0.6920
 7036SOL     OW25954   3.459   2.453   2.757 -0.2377 -0.6508  0.0702
 7036SOL    HW125955   3.526   2.476   2.692  0.9270  1.1472  1.8452
 7036SOL    HW225956   3.509   2.431   2.835 -1.7336  2.4562  1.9761
 7037SOL     OW25957   2.218   1.358   4.476 -0.3746 -0.1536  0.2197
 7037SOL    HW125958   2.230   1.326   4.565  1.8526 -0.0164 -0.0011
 7037SOL    HW225959   2.155   1.298   4.436 -2.5262  0.6385  2.3040
 7038SOL     OW25960   5.218   1.922   3.377 -0.3725 -0.3796  0.4499
 7038SOL    HW125961   5.306   1.885   3.384 -1.1423 -2.1534  1.0391
 7038SOL    HW225962   5.197   1.917   3.283  1.2485  2.7356 -0.1386
 7039SOL     OW25963   3.220   3.116   5.276 -0.3747 -0.4117 -0.4087
 7039SOL    HW125964   3.252   3.136   5.364  0.3428  1.0220 -0.9809
 7039SOL    HW225965   3.263   3.034   5.253 -0.0227 -0.4272  0.2903
 7040SOL     OW25966   0.833   1.761   2.163  0.2522 -0.7186 -0.1942
 7040SOL    HW125967   0.796   1.682   2.203 -3.0667  0.7442 -0.1727
 7040SOL    HW225968   0.816   1.749   2.069 -1.6006  0.5493 -0.0575
 7041SOL     OW25969   2.566   2.934   1.759 -0.1332 -0.3917  0.2008
 7041SOL    HW125970   2.596   2.847   1.731 -1.2813 -0.5133 -0.6787
 7041SOL    HW225971   2.471   2.931   1.751 -0.2319  0.7620  0.7391
 7042SOL     OW25972   2.593   1.525   2.839 -0.1768  0.4462  0.2919
 7042SOL    HW125973   2.619   1.439   2.872 -1.2570 -0.1183 -0.3195
 7042SOL    HW225974   2.573   1.511   2.747  0.5989  1.5613 -0.0595
 7043SOL     OW25975   1.854   2.981   2.933  0.1072 -0.2924  0.3327
 7043SOL    HW125976   1.795   3.030   2.875 -0.3394 -0.4886  0.6165
 7043SOL    HW225977   1.854   3.030   3.015 -0.3184 -0.7477  0.6070
 7044SOL     OW25978   2.105   0.916   3.881  0.3828 -0.6466  0.1376
 7044SOL    HW125979   2.027   0.961   3.848  0.3387  1.1236  2.5188
 7044SOL    HW225980   2.071   0.839   3.926 -0.0668  0.3848  1.6007
 7045SOL     OW25981   1.840   3.092   2.401 -0.0725 -0.6576  0.2712
 7045SOL    HW125982   1.920   3.114   2.353 -0.7346 -1.6734 -1.3213
 7045SOL    HW225983   1.859   3.006   2.440 -1.2029 -2.0164 -2.0658
 7046SOL     OW25984   1.979   2.612   3.697  0.6574  0.5964  0.4104
 7046SOL    HW125985   1.953   2.624   3.789  2.6225  0.6260  0.9737
 7046SOL    HW225986   1.913   2.553   3.661 -0.7317  1.4189  1.5640
 7047SOL     OW25987   2.469   4.815   1.625 -0.1542 -0.6942 -0.1376
 7047SOL    HW125988   2.395   4.761   1.652  1.3224 -2.1353  1.1155
 7047SOL    HW225989   2.501   4.856   1.706  2.6692 -2.9867 -0.0142
 7048SOL     OW25990   2.775   2.375   2.289 -0.3135  0.1572 -0.3959
 7048SOL    HW125991   2.833   2.369   2.213 -0.1971 -0.8934 -0.2274
 7048SOL    HW225992   2.826   2.339   2.361 -0.8050  0.1774 -0.0355
 7049SOL     OW25993   2.617   2.220   2.048  0.0108 -0.0507 -0.2618
 7049SOL    HW125994   2.661   2.258   2.124  1.5642  0.0070 -1.1704
 7049SOL    HW225995   2.601   2.129   2.073  0.4828 -0.0254  0.1394
 7050SOL     OW25996   1.997   2.627   2.801 -0.9272 -0.1786 -0.0963
 7050SOL    HW125997   2.085   2.634   2.765 -2.2665  1.9396 -3.1891
 7050SOL    HW225998   1.976   2.533   2.794  0.9681 -0.6749  0.5194
 7051SOL     OW25999   4.103   1.445   2.910  0.3244 -0.7521 -0.3077
 7051SOL    HW126000   4.070   1.374   2.965  0.7520  0.1450  1.1334
 7051SOL    HW226001   4.024   1.492   2.882  0.0884 -1.3404 -0.6359
 7052SOL     OW26002   1.159   3.056   2.259  0.4113 -1.4149  0.1224
 7052SOL    HW126003   1.090   2.994   2.237  0.4763 -0.9026 -1.5452
 7052SOL    HW226004   1.113   3.137   2.282  0.4548 -0.8796 -1.6062
 7053SOL     OW26005   2.195   3.324   3.070  0.2335  0.4317 -0.4468
 7053SOL    HW126006   2.102   3.302   3.067  0.7263 -1.5551 -1.6693
 7053SOL    HW226007   2.204   3.401   3.014 -0.4400 -0.2460 -1.4794
 7054SOL     OW26008   2.829   1.940   2.828 -0.5096 -0.2023 -0.2319
 7054SOL    HW126009   2.906   1.918   2.881 -1.5878 -1.4600  0.8374
 7054SOL    HW226010   2.833   1.880   2.754 -0.0017  0.3092 -0.6206
 7055SOL     OW26011   3.993   2.402   1.840 -0.4013  0.1506 -0.5242
 7055SOL    HW126012   4.058   2.363   1.781  2.0340  1.4334  1.2415
 7055SOL    HW226013   3.962   2.329   1.893  0.8244 -0.1910 -0.2693
 7056SOL     OW26014   0.285   3.335   2.824  0.1814 -0.2953 -0.2111
 7056SOL    HW126015   0.376   3.343   2.853 -0.2012  1.1881  0.5935
 7056SOL    HW226016   0.238   3.402   2.873 -1.0216  0.2201 -2.0380
 7057SOL     OW26017   0.921   1.145   3.348 -0.4237  0.1357 -0.0997
 7057SOL    HW126018   0.875   1.087   3.288  1.0233 -0.5121 -0.6274
 7057SOL    HW226019   0.859   1.162   3.419 -1.6316 -0.2727 -1.0540
 7058SOL     OW26020   2.951   0.976   1.951 -0.3053  0.3392  0.0962
 7058SOL    HW126021   3.006   1.049   1.922 -0.5961  0.2991 -0.5723
 7058SOL    HW226022   2.914   0.941   1.870 -0.8485 -0.0049  0.4936
 7059SOL     OW26023   4.166   2.224   0.977 -0.2528  0.3246  0.1246
 7059SOL    HW126024   4.188   2.280   0.902  0.9933  0.2618  0.4236
 7059SOL    HW226025   4.187   2.135   0.948 -1.0432  0.1497  0.0859
 7060SOL     OW26026   3.142   2.630   2.254  0.5770  0.4131 -0.1989
 7060SOL    HW126027   3.167   2.614   2.345  0.4633  1.5946  0.0543
 7060SOL    HW226028   3.224   2.625   2.205  0.5354 -0.9565 -0.1503
 7061SOL     OW26029   2.537   1.972   1.400 -0.5736 -0.8378 -0.6938
 7061SOL    HW126030   2.572   1.906   1.460  1.4575  1.4184  0.6919
 7061SOL    HW226031   2.451   1.938   1.375 -0.7896 -2.6387  2.2334
 7062SOL     OW26032   1.911   4.454   2.205 -0.3581 -0.3065  0.2398
 7062SOL    HW126033   1.928   4.399   2.282  3.4931  0.1192 -0.2134
 7062SOL    HW226034   1.897   4.542   2.241 -0.9731 -0.5580  0.6126
 7063SOL     OW26035   3.122   3.084   1.931  0.7197 -0.3895 -0.2483
 7063SOL    HW126036   3.047   3.029   1.955  1.0452 -0.9237 -0.4464
 7063SOL    HW226037   3.173   3.029   1.871  2.2013 -0.7003  1.2641
 7064SOL     OW26038   3.680   1.789   2.221  0.3053 -0.2211 -0.1947
 7064SOL    HW126039   3.745   1.760   2.284  1.3451 -0.9260 -1.5768
 7064SOL    HW226040   3.608   1.726   2.230  0.4167 -0.2751  0.3282
 7065SOL     OW26041   2.012   2.216   1.945  0.0920 -0.3256 -0.1110
 7065SOL    HW126042   1.955   2.189   2.017  0.5445 -1.2025 -0.0694
 7065SOL    HW226043   1.955   2.216   1.868 -0.1460 -0.4502  0.0633
 7066SOL     OW26044   1.898   3.300   2.991  0.2737  0.2352  0.4407
 7066SOL    HW126045   1.852   3.237   3.047  0.3123 -0.3327 -0.1565
 7066SOL    HW226046   1.846   3.380   2.997 -1.1167 -0.5496 -0.6282
 7067SOL     OW26047   4.146   2.650   1.830  0.6388  0.6141  0.2907
 7067SOL    HW126048   4.065   2.656   1.780 -0.2469  0.5200  1.6882
 7067SOL    HW226049   4.129   2.584   1.897  1.9587  0.3927  0.4344
 7068SOL     OW26050   3.022   3.124   3.279 -0.4541  0.5554 -0.2171
 7068SOL    HW126051   3.043   3.118   3.372 -0.7121 -2.0333 -0.2972
 7068SOL    HW226052   3.093   3.177   3.242  1.3236 -0.9343  0.9546
 7069SOL     OW26053   2.578   3.478   1.678 -0.3995  0.2751  0.1346
 7069SOL    HW126054   2.613   3.389   1.682  1.1491  0.8813  0.2946
 7069SOL    HW226055   2.515   3.475   1.606  1.7198 -0.2454 -1.7638
 7070SOL     OW26056   1.580   2.762   2.378 -0.5907  1.1989  0.0384
 7070SOL    HW126057   1.529   2.743   2.300 -0.0626 -0.0871 -0.0010
 7070SOL    HW226058   1.532   2.721   2.450  0.3552  0.0297  0.0087
 7071SOL     OW26059   2.163   2.258   2.727 -0.2623  0.2429  0.2873
 7071SOL    HW126060   2.069   2.268   2.711 -0.2340  0.3228  0.1688
 7071SOL    HW226061   2.197   2.219   2.647 -0.5436 -1.8758  1.1816
 7072SOL     OW26062   3.001   2.338   2.559 -0.3339  0.3768  0.1455
 7072SOL    HW126063   3.074   2.297   2.605 -1.0486 -2.2639 -1.0229
 7072SOL    HW226064   2.929   2.336   2.622 -0.5564 -0.7783 -0.1462
 7073SOL     OW26065   3.247   1.361   2.685 -0.1309 -0.4498  0.1448
 7073SOL    HW126066   3.322   1.332   2.737  0.6748 -0.1679 -0.8483
 7073SOL    HW226067   3.255   1.312   2.603 -0.3269  0.5001 -0.4480
 7074SOL     OW26068   4.504   2.484   1.747 -0.0485 -0.0034 -0.3599
 7074SOL    HW126069   4.449   2.535   1.689  0.1170  0.0085 -0.5069
 7074SOL    HW226070   4.507   2.397   1.708 -0.4127 -0.1518 -0.0546
 7075SOL     OW26071   1.462   1.790   2.663  0.3451  0.1353 -0.4206
 7075SOL    HW126072   1.502   1.708   2.691  1.2945 -0.2486 -2.7383
 7075SOL    HW226073   1.528   1.857   2.683  0.6366 -0.0128 -0.8790
 7076SOL     OW26074   1.569   1.980   3.539  0.3521 -0.5169 -0.2370
 7076SOL    HW126075   1.545   2.065   3.502 -0.6322 -1.0470 -0.8380
 7076SOL    HW226076   1.502   1.920   3.506  1.5029 -1.6875 -0.4750
 7077SOL     OW26077   2.629   3.393   1.959 -0.1472  0.3051 -0.2959
 7077SOL    HW126078   2.555   3.391   1.898  0.2298  1.9031 -0.8083
 7077SOL    HW226079   2.589   3.398   2.046 -0.6271  2.3224 -0.6289
 7078SOL     OW26080   2.482   1.795   2.752  0.1583  0.7308  0.9268
 7078SOL    HW126081   2.545   1.837   2.810 -0.2282 -0.1688  2.0246
 7078SOL    HW226082   2.468   1.708   2.790  0.6665 -0.2683 -1.1071
 7079SOL     OW26083   1.166   1.429   4.227 -0.1230 -0.9961  0.8627
 7079SOL    HW126084   1.135   1.385   4.306 -0.8346 -0.2255  1.0166
 7079SOL    HW226085   1.157   1.522   4.246  1.9280 -0.7464  0.7645
 7080SOL     OW26086   2.140   3.514   2.882  0.1853  0.1034 -0.1350
 7080SOL    HW126087   2.190   3.583   2.925  1.1794  0.6338 -2.1104
 7080SOL    HW226088   2.061   3.558   2.851  0.7435  0.3405 -1.2498
 7081SOL     OW26089   0.921   0.572   2.860 -0.5670 -0.1463  0.5086
 7081SOL    HW126090   0.834   0.553   2.826 -0.8977 -1.6372  2.1319
 7081SOL    HW226091   0.922   0.668   2.869 -1.4002  0.0391 -1.1362
 7082SOL     OW26092   1.822   1.203   2.885 -0.0999 -0.2494 -0.2033
 7082SOL    HW126093   1.747   1.259   2.907  0.0787 -0.8920  2.1037
 7082SOL    HW226094   1.785   1.135   2.829 -0.8549  0.5607 -0.7104
 7083SOL     OW26095   2.846   4.590   3.698  0.1567  0.4709  0.6298
 7083SOL    HW126096   2.823   4.531   3.770 -1.4012  0.2805  0.0015
 7083SOL    HW226097   2.891   4.663   3.740 -2.9476  1.5978  2.1679
 7084SOL     OW26098   1.513   1.082   3.266 -0.5065 -0.2469  0.1066
 7084SOL    HW126099   1.423   1.059   3.292 -0.5118 -0.4629 -0.1048
 7084SOL    HW226100   1.506   1.169   3.228 -0.5361 -0.0224  0.6269
 7085SOL     OW26101   3.259   2.274   3.506 -0.4145  0.0249  0.0973
 7085SOL    HW126102   3.343   2.306   3.474 -1.5876 -0.8171 -4.0675
 7085SOL    HW226103   3.253   2.184   3.473 -1.2981 -1.3049  3.6334
 7086SOL     OW26104   4.522   1.243   2.174  0.4022  0.3448 -0.4018
 7086SOL    HW126105   4.518   1.204   2.261  1.3853 -0.5518 -0.7461
 7086SOL    HW226106   4.483   1.177   2.117 -1.5093  1.5009 -0.4688
 7087SOL     OW26107   3.302   1.648   1.765  0.0625 -0.4750 -0.1613
 7087SOL    HW126108   3.221   1.696   1.746  0.9351  0.9802 -0.2411
 7087SOL    HW226109   3.366   1.716   1.784  1.1380 -1.6457  0.4458
 7088SOL     OW26110   2.079   3.649   2.497  0.2053  0.4030 -0.4782
 7088SOL    HW126111   2.068   3.563   2.537  0.3201 -0.0254 -1.3750
 7088SOL    HW226112   1.991   3.675   2.470  0.3525  0.0255 -1.3262
 7089SOL     OW26113   3.066   4.401   3.524  0.2507  0.0843 -0.0696
 7089SOL    HW126114   3.006   4.464   3.563  0.4972  0.0744  0.3319
 7089SOL    HW226115   3.151   4.423   3.562  0.0943 -1.3863  1.1761
 7090SOL     OW26116   0.250   3.956   3.149 -0.0730 -0.4665 -0.0165
 7090SOL    HW126117   0.235   4.036   3.098  0.8570 -0.8802 -0.9409
 7090SOL    HW226118   0.271   3.987   3.237  0.8575  0.3338 -0.5121
 7091SOL     OW26119   3.179   1.686   9.592 -0.0698  0.2036  0.5949
 7091SOL    HW126120   3.088   1.662   9.572 -0.7874  3.1555  0.1616
 7091SOL    HW226121   3.232   1.622   9.545 -1.9014  0.0907 -1.3704
 7092SOL     OW26122   2.852   2.810   1.241  0.2684 -0.1946 -0.1070
 7092SOL    HW126123   2.772   2.860   1.255 -0.3336 -1.1503 -0.1168
 7092SOL    HW226124   2.827   2.739   1.183  0.9403 -0.9555  0.5074
 7093SOL     OW26125   2.977   3.113   1.197 -0.1147 -0.2498  0.2885
 7093SOL    HW126126   2.932   3.032   1.221 -1.7334  0.7996  0.8756
 7093SOL    HW226127   3.059   3.084   1.157 -1.6169 -2.2136 -1.4726
 7094SOL     OW26128   1.863   1.591   1.532  0.0124 -0.0176 -0.0162
 7094SOL    HW126129   1.769   1.612   1.534 -0.2361 -1.0662 -0.1133
 7094SOL    HW226130   1.884   1.565   1.621 -0.1400 -1.1884 -0.3037
 7095SOL     OW26131   3.644   1.616   4.468  0.5329 -0.1895  0.2675
 7095SOL    HW126132   3.608   1.693   4.423  0.8932  0.4170  1.0185
 7095SOL    HW226133   3.696   1.572   4.401 -0.1475 -0.0996 -0.3269
 7096SOL     OW26134   2.986   2.920   2.176 -0.2796 -0.0343  0.3290
 7096SOL    HW126135   3.077   2.911   2.145 -1.1625 -1.5453 -1.9431
 7096SOL    HW226136   2.994   2.928   2.271  2.3459  1.6013  0.0487
 7097SOL     OW26137   1.652   1.590   1.899  0.2195 -0.3523  0.5388
 7097SOL    HW126138   1.567   1.547   1.892  0.6077 -1.1037  0.2588
 7097SOL    HW226139   1.652   1.633   1.984  0.1199 -1.5945  1.1768
 7098SOL     OW26140   1.126   3.893   2.966  0.2950  0.1987 -0.1891
 7098SOL    HW126141   1.107   3.951   2.892 -0.6849 -0.6979 -0.6433
 7098SOL    HW226142   1.041   3.860   2.993  0.6741  0.3990  1.2509
 7099SOL     OW26143   2.534   4.113   0.990 -0.3916  0.2043  0.1365
 7099SOL    HW126144   2.463   4.101   1.053 -0.4831  0.3988  0.0724
 7099SOL    HW226145   2.545   4.027   0.950 -0.6515  0.1937  0.0834
 7100SOL     OW26146   1.884   3.460   4.237  0.2620  0.2529 -0.3770
 7100SOL    HW126147   1.886   3.548   4.275  0.4927 -0.6021  1.6287
 7100SOL    HW226148   1.957   3.414   4.278 -0.1390 -1.0241 -1.0710
 7101SOL     OW26149   2.240   1.459   3.878 -0.1864  0.2073 -0.1533
 7101SOL    HW126150   2.325   1.453   3.920 -0.0727 -0.0503 -0.4193
 7101SOL    HW226151   2.255   1.513   3.800 -0.0385 -0.7242 -0.7775
 7102SOL     OW26152   3.202   3.903   2.962 -0.2437  0.2694 -0.2462
 7102SOL    HW126153   3.233   3.870   3.046  1.1205  0.1801 -0.7840
 7102SOL    HW226154   3.185   3.996   2.978  0.4665  0.3581  0.0087
 7103SOL     OW26155   2.273   0.553   2.174  0.5576  0.3934  0.2015
 7103SOL    HW126156   2.310   0.472   2.209 -0.5938 -0.8392 -1.3648
 7103SOL    HW226157   2.350   0.604   2.147  1.2622 -0.5486  0.3818
 7104SOL     OW26158   4.103   3.101   2.064  0.8118 -0.2996 -0.3698
 7104SOL    HW126159   4.107   3.119   2.158 -0.3623  1.3289 -0.5994
 7104SOL    HW226160   4.070   3.012   2.058 -0.2486  0.0001  0.7694
 7105SOL     OW26161   1.520   1.763   5.267 -0.2605  0.0703 -0.0894
 7105SOL    HW126162   1.442   1.743   5.214 -0.1906  1.7757 -0.8492
 7105SOL    HW226163   1.593   1.754   5.206  0.0188 -0.0719  0.2637
 7106SOL     OW26164   2.364   3.234   4.236 -0.0868 -0.6171  0.6673
 7106SOL    HW126165   2.332   3.229   4.326  0.7317  1.5039  1.1057
 7106SOL    HW226166   2.324   3.313   4.201 -0.8760 -1.7583 -1.0432
 7107SOL     OW26167   1.961   2.991   3.392  0.9454  0.0725  0.5625
 7107SOL    HW126168   1.981   2.898   3.402  0.7556 -0.1940 -1.4169
 7107SOL    HW226169   2.047   3.033   3.387  1.0432  0.1317  2.3670
 7108SOL     OW26170   1.773   1.984   0.133 -0.1929  0.2507  0.1647
 7108SOL    HW126171   1.686   2.025   0.129  0.0884  0.9245  0.9938
 7108SOL    HW226172   1.832   2.054   0.159  0.6557 -0.1470 -0.6483
 7109SOL     OW26173   1.689   4.972   4.197 -0.0737  0.2761 -0.0107
 7109SOL    HW126174   1.622   4.914   4.230 -1.4299  1.7509 -0.0975
 7109SOL    HW226175   1.682   5.051   4.251  1.9263  0.2475  0.3136
 7110SOL     OW26176   3.938   3.317   2.633 -0.5835  0.1533  0.2418
 7110SOL    HW126177   4.015   3.350   2.587 -0.1643 -2.3726 -0.9249
 7110SOL    HW226178   3.873   3.303   2.564 -1.7410  1.2299  1.0850
 7111SOL     OW26179   2.812   1.352   2.592 -0.1796  0.0573 -0.1172
 7111SOL    HW126180   2.740   1.383   2.538 -0.0639 -1.3137 -1.0767
 7111SOL    HW226181   2.878   1.323   2.530  0.6657  0.0888  0.7606
 7112SOL     OW26182   4.625   2.904   2.862 -0.2895 -0.2340 -0.3896
 7112SOL    HW126183   4.693   2.969   2.846  0.2697 -1.3402 -2.6895
 7112SOL    HW226184   4.666   2.820   2.840 -1.6814 -1.1645  0.4272
 7113SOL     OW26185   1.487   3.693   2.582 -0.3486 -0.2248  0.2300
 7113SOL    HW126186   1.438   3.723   2.658 -0.4702  0.3757 -0.0886
 7113SOL    HW226187   1.425   3.699   2.509  0.2046  0.5784 -0.1816
 7114SOL     OW26188   1.576   2.039   0.791  0.1437  0.3000 -0.8598
 7114SOL    HW126189   1.528   1.985   0.728 -0.6985  0.6665 -0.5404
 7114SOL    HW226190   1.512   2.059   0.860  1.6771 -2.0025  1.3072
 7115SOL     OW26191   2.399   4.508   3.845 -0.3008  0.1517 -0.1142
 7115SOL    HW126192   2.365   4.596   3.858  0.0312  0.1917  0.5042
 7115SOL    HW226193   2.338   4.451   3.892 -0.5483  0.0426 -0.5626
 7116SOL     OW26194   4.101   2.589   2.340  0.0125 -0.3725  0.2942
 7116SOL    HW126195   4.070   2.673   2.373 -0.8353 -0.7608  0.5265
 7116SOL    HW226196   4.061   2.581   2.253 -0.4814 -0.8361  0.5578
 7117SOL     OW26197   3.020   2.036   2.182  0.3740 -0.4929 -0.0937
 7117SOL    HW126198   3.014   1.942   2.162  1.7327 -0.3596 -1.0961
 7117SOL    HW226199   3.018   2.039   2.278  0.7647 -1.5739 -0.0422
 7118SOL     OW26200   2.992   3.414   3.608 -0.2091  0.2566 -0.4529
 7118SOL    HW126201   3.005   3.321   3.626  0.1567 -0.0913 -2.3554
 7118SOL    HW226202   2.901   3.431   3.633 -0.2660 -0.6014 -0.0599
 7119SOL     OW26203   2.629   1.728   3.163 -0.5097  0.1822  0.0040
 7119SOL    HW126204   2.581   1.657   3.120 -0.2666  0.3432 -0.5271
 7119SOL    HW226205   2.642   1.794   3.095 -1.5392  1.1503  0.7168
 7120SOL     OW26206   2.132   2.494   4.360  0.8500 -0.3839  0.2208
 7120SOL    HW126207   2.087   2.467   4.440  0.9884  1.3806  0.9032
 7120SOL    HW226208   2.221   2.515   4.389  1.2039 -0.7546 -0.5884
 7121SOL     OW26209   2.529   3.127   1.955  0.2108 -0.0977 -0.1263
 7121SOL    HW126210   2.608   3.182   1.960  1.0545 -1.5029  3.5018
 7121SOL    HW226211   2.553   3.057   1.894  1.6967 -0.3567  0.7207
 7122SOL     OW26212   2.533   4.097   2.775  0.3142 -0.4321 -0.0215
 7122SOL    HW126213   2.535   4.148   2.694  0.5363  2.0252  1.5036
 7122SOL    HW226214   2.621   4.059   2.781 -0.0383 -1.5324 -1.4590
 7123SOL     OW26215   4.626   1.927   2.451  0.4471 -0.7181 -0.1441
 7123SOL    HW126216   4.708   1.966   2.423 -0.8192  0.1883 -2.8109
 7123SOL    HW226217   4.605   1.969   2.534  2.8572 -1.2669  0.7600
 7124SOL     OW26218   2.444   1.156   3.457  0.5045  0.4065  0.1542
 7124SOL    HW126219   2.443   1.103   3.378 -1.7003  0.1018  0.3723
 7124SOL    HW226220   2.427   1.095   3.528 -0.7379  1.1758  0.5335
 7125SOL     OW26221   2.982   4.004   2.682 -0.3186  0.2376 -0.6146
 7125SOL    HW126222   2.919   3.989   2.611 -0.4565  0.4197 -0.5328
 7125SOL    HW226223   3.065   4.020   2.637 -0.4548  0.5849 -0.7470
 7126SOL     OW26224   2.588   2.922   2.226  0.4095 -0.1946 -0.2033
 7126SOL    HW126225   2.538   2.872   2.291  1.2749 -2.6949 -1.4001
 7126SOL    HW226226   2.525   2.944   2.158 -0.1988  1.2475  0.8119
 7127SOL     OW26227   2.523   1.428   3.352 -0.2364 -0.6450 -0.0978
 7127SOL    HW126228   2.511   1.340   3.388 -0.6840 -0.3239  0.5472
 7127SOL    HW226229   2.465   1.431   3.276  1.2505 -1.5753 -1.3049
 7128SOL     OW26230   4.834   2.942   0.464  0.0015 -0.8454  0.4587
 7128SOL    HW126231   4.762   2.879   0.462 -2.4733  1.8956  0.7251
 7128SOL    HW226232   4.913   2.888   0.456 -1.9359 -4.1041  2.1391
 7129SOL     OW26233   3.076   2.697   2.588 -0.0025  0.3376  0.1265
 7129SOL    HW126234   3.126   2.653   2.657 -1.1814  0.2618  0.9422
 7129SOL    HW226235   2.988   2.662   2.597  0.3009 -1.4065 -2.9000
 7130SOL     OW26236   3.503   3.058   3.892  0.1719  0.0980  0.2834
 7130SOL    HW126237   3.544   3.144   3.903 -0.0493  0.0138  1.8576
 7130SOL    HW226238   3.411   3.073   3.912 -0.5245  0.2033 -2.8766
 7131SOL     OW26239   2.540   3.545   3.185  0.0297 -0.4420  1.1941
 7131SOL    HW126240   2.564   3.473   3.127  1.1358 -0.8045  2.0852
 7131SOL    HW226241   2.580   3.622   3.145  2.8379 -1.0663  2.7449
 7132SOL     OW26242   2.689   1.274   3.652 -0.2798 -0.4955  0.0231
 7132SOL    HW126243   2.740   1.277   3.571  0.1077  0.1815  0.2908
 7132SOL    HW226244   2.603   1.307   3.627 -0.2313 -0.5102 -0.1679
 7133SOL     OW26245   2.971   5.856   1.729  0.1798 -0.2936 -0.2318
 7133SOL    HW126246   2.992   5.902   1.648  0.8035 -0.3843 -0.1253
 7133SOL    HW226247   3.049   5.805   1.749 -0.1423 -0.6374  0.1771
 7134SOL     OW26248   4.952   1.894   2.862 -0.0170  0.4250 -0.1552
 7134SOL    HW126249   4.998   1.812   2.841 -1.3313  0.0007 -1.5117
 7134SOL    HW226250   5.021   1.956   2.883  0.9948 -1.0705  0.9983
 7135SOL     OW26251   0.285   3.645   2.130  0.0292  0.6197 -0.0302
 7135SOL    HW126252   0.221   3.715   2.137 -1.1368 -0.4110 -0.1558
 7135SOL    HW226253   0.306   3.621   2.220  0.9624  1.5948  0.0189
 7136SOL     OW26254   2.658   0.739   4.343  0.5652 -0.7144 -0.0497
 7136SOL    HW126255   2.652   0.680   4.419 -0.0796 -1.8457 -0.9609
 7136SOL    HW226256   2.570   0.736   4.304  0.3057  1.4500  0.3242
 7137SOL     OW26257   3.506   2.993   4.428  0.0639 -0.5523  0.1992
 7137SOL    HW126258   3.430   3.042   4.395 -0.4505 -0.7951  1.0107
 7137SOL    HW226259   3.580   3.052   4.413 -0.2124 -0.5111 -1.0428
 7138SOL     OW26260   1.065   0.405   3.203 -0.5278 -0.1137  0.0529
 7138SOL    HW126261   1.147   0.429   3.159 -0.1827  1.4676  1.5156
 7138SOL    HW226262   0.999   0.464   3.165 -0.7781 -0.6531 -0.3516
 7139SOL     OW26263   1.940   2.733   1.891  0.3677 -0.4253 -0.3427
 7139SOL    HW126264   1.933   2.798   1.821  0.5081 -0.6893 -0.5978
 7139SOL    HW226265   1.878   2.764   1.957  2.4803  1.5357  0.7941
 7140SOL     OW26266   2.056   1.227   2.272  0.2074 -0.0023 -0.5240
 7140SOL    HW126267   2.071   1.153   2.214 -0.1682 -0.8246  0.4029
 7140SOL    HW226268   1.961   1.236   2.275 -0.0061 -2.3870  2.8760
 7141SOL     OW26269   2.530   1.065   2.338  0.0447  0.3909  0.6406
 7141SOL    HW126270   2.625   1.073   2.334  0.2512 -2.2467 -0.8121
 7141SOL    HW226271   2.501   1.075   2.248 -0.8907 -0.6702  0.8153
 7142SOL     OW26272   3.852   2.492   3.754  0.5211  0.1661 -0.3238
 7142SOL    HW126273   3.857   2.515   3.847 -0.2427  0.0798 -0.2570
 7142SOL    HW226274   3.824   2.401   3.753  0.4572  0.1893 -0.6413
 7143SOL     OW26275   2.544   2.346   3.021  0.3904 -0.0043  0.4188
 7143SOL    HW126276   2.578   2.428   3.058 -2.2552  0.2643  2.3379
 7143SOL    HW226277   2.471   2.373   2.966  0.1877 -1.0034  0.1857
 7144SOL     OW26278   2.769   1.124   5.052 -0.1565  0.5613 -0.7193
 7144SOL    HW126279   2.725   1.043   5.026 -0.2600  0.5405 -0.4730
 7144SOL    HW226280   2.722   1.154   5.129  2.4339 -1.2832  1.6467
 7145SOL     OW26281   3.412   3.407   3.057  0.2830 -0.0970 -0.2559
 7145SOL    HW126282   3.423   3.392   2.963  2.6681 -1.5812  0.2242
 7145SOL    HW226283   3.495   3.443   3.086 -0.1573 -0.3910  1.4256
 7146SOL     OW26284   2.307   4.068   5.438 -0.0671  0.3734  0.1969
 7146SOL    HW126285   2.225   4.019   5.437 -1.5949  2.8386 -0.6699
 7146SOL    HW226286   2.340   4.063   5.349  1.1590 -1.2370  0.7112
 7147SOL     OW26287   4.640   2.952   3.128 -0.5249 -0.3951  0.4089
 7147SOL    HW126288   4.628   2.939   3.034 -1.1380  0.7451  0.3235
 7147SOL    HW226289   4.590   2.880   3.168  0.9830 -1.7895 -0.1370
 7148SOL     OW26290   3.171   1.781   2.578  0.1987  0.6989  0.3494
 7148SOL    HW126291   3.256   1.757   2.540 -0.0971 -0.9190  0.6676
 7148SOL    HW226292   3.171   1.876   2.578  0.2627  0.8096 -3.6826
 7149SOL     OW26293   2.104   1.139   3.196 -0.0292 -0.4483  0.2970
 7149SOL    HW126294   2.121   1.190   3.275 -0.9112  0.1662  0.0897
 7149SOL    HW226295   2.185   1.090   3.182  0.1308 -0.5745  1.5878
 7150SOL     OW26296   3.914   1.520   2.322  0.5878  0.0230 -0.5224
 7150SOL    HW126297   3.900   1.594   2.381  0.9657 -1.1243  1.0554
 7150SOL    HW226298   3.851   1.454   2.352 -0.5862  0.1342 -2.6743
 7151SOL     OW26299   3.327   4.497   2.043 -0.4694 -0.3367  0.4863
 7151SOL    HW126300   3.281   4.581   2.036  0.2703  0.0606  0.3270
 7151SOL    HW226301   3.345   4.472   1.952 -2.1037 -1.4755  0.4416
 7152SOL     OW26302   0.097   3.208   0.566  0.0712 -0.4495 -0.6170
 7152SOL    HW126303   0.178   3.162   0.544 -0.4072 -1.6228 -0.0206
 7152SOL    HW226304   0.122   3.299   0.576  0.9455 -0.4792 -2.4233
 7153SOL     OW26305   2.237   4.850   3.315  0.0893  0.3583  0.3279
 7153SOL    HW126306   2.254   4.926   3.260 -1.4172 -0.2238 -0.9917
 7153SOL    HW226307   2.211   4.887   3.400  1.0526  1.2767  0.2356
 7154SOL     OW26308   2.652   1.748   1.508 -0.3324  0.0004 -0.2113
 7154SOL    HW126309   2.573   1.696   1.489  0.0304  0.5219 -3.4178
 7154SOL    HW226310   2.720   1.683   1.525 -0.7199 -0.5224 -0.6417
 7155SOL     OW26311   3.172   3.206   1.647  0.1427 -0.3886 -0.5693
 7155SOL    HW126312   3.107   3.149   1.688 -0.2388 -0.0896 -0.7568
 7155SOL    HW226313   3.180   3.280   1.708 -0.7047  0.2406 -1.2211
 7156SOL     OW26314   4.040   2.632   3.310 -0.0849 -0.3267 -0.1443
 7156SOL    HW126315   3.964   2.597   3.357 -0.3707 -0.9329 -1.0524
 7156SOL    HW226316   4.064   2.712   3.358 -2.7004  1.1426 -1.1930
 7157SOL     OW26317   2.335   2.883   3.614  0.2620  0.5742  0.1801
 7157SOL    HW126318   2.378   2.834   3.544 -1.5214  0.9561 -1.2444
 7157SOL    HW226319   2.254   2.835   3.630  0.4012  0.8172  1.5958
 7158SOL     OW26320   3.227   3.620   2.272  0.0808  0.2228  0.5059
 7158SOL    HW126321   3.131   3.619   2.266  0.0776  1.8440  0.2765
 7158SOL    HW226322   3.247   3.692   2.331  1.2467  1.0153 -0.8270
 7159SOL     OW26323   2.305   4.381   3.606 -0.1713  0.4644 -0.0440
 7159SOL    HW126324   2.213   4.365   3.626  0.5169 -1.0550  2.1407
 7159SOL    HW226325   2.320   4.471   3.634 -0.7789  0.4030  0.5028
 7160SOL     OW26326   3.009   1.955   5.009  0.4090  0.4221  0.0399
 7160SOL    HW126327   3.028   2.047   5.029 -2.2351  0.9656  0.3199
 7160SOL    HW226328   2.986   1.917   5.094 -0.1429 -0.0619 -0.3276
 7161SOL     OW26329   3.265   0.296   2.793 -0.8208 -0.1661  0.2481
 7161SOL    HW126330   3.269   0.371   2.734 -1.4455  0.7955  1.3843
 7161SOL    HW226331   3.201   0.237   2.753 -1.0435  0.3506 -0.1614
 7162SOL     OW26332   2.222   5.099   2.253  0.1881  0.1664 -0.4264
 7162SOL    HW126333   2.136   5.097   2.295  0.7805  2.5224  0.9689
 7162SOL    HW226334   2.281   5.063   2.319  0.3992 -0.9207 -1.1804
 7163SOL     OW26335   1.037   1.939   3.456  0.1594 -0.2189  0.1689
 7163SOL    HW126336   1.049   2.032   3.473 -0.8668  0.1213 -0.9336
 7163SOL    HW226337   1.114   1.897   3.495 -0.0215  0.9477  1.8207
 7164SOL     OW26338   2.713   3.334   1.401 -0.4357 -0.4085  0.0375
 7164SOL    HW126339   2.805   3.307   1.402 -0.6454 -1.1423 -0.0861
 7164SOL    HW226340   2.677   3.299   1.482 -0.4125  0.5733  0.4723
 7165SOL     OW26341   3.143   0.659   4.987  0.3630  0.2288 -0.1623
 7165SOL    HW126342   3.093   0.578   4.986  1.0936 -0.2507  1.4184
 7165SOL    HW226343   3.136   0.691   5.077 -0.5357  2.3238 -0.9185
 7166SOL     OW26344   1.884   3.530   3.917  0.1219 -0.0084  0.2948
 7166SOL    HW126345   1.850   3.537   3.827  1.0875  1.5756  0.0354
 7166SOL    HW226346   1.884   3.621   3.949 -0.3985 -0.5915  1.9725
 7167SOL     OW26347   3.298   5.822   3.704  0.1748 -0.2667 -0.0782
 7167SOL    HW126348   3.315   5.889   3.638  1.4234 -0.1823  0.3107
 7167SOL    HW226349   3.221   5.776   3.672  1.3349 -0.8635 -2.0992
 7168SOL     OW26350   1.452   0.940   4.031 -0.1393  0.0114  0.0531
 7168SOL    HW126351   1.379   0.884   4.007 -0.6148 -0.5303  2.6155
 7168SOL    HW226352   1.530   0.890   4.005 -0.6264 -0.3784 -0.6654
 7169SOL     OW26353   3.287   2.960   1.719  0.4503 -0.1703 -0.0003
 7169SOL    HW126354   3.289   3.048   1.682 -0.3768 -0.3763 -0.5498
 7169SOL    HW226355   3.378   2.933   1.722  0.6861  0.6085 -0.0548
 7170SOL     OW26356   3.391   2.706   3.275  0.8682  0.3105 -0.1471
 7170SOL    HW126357   3.355   2.714   3.363 -0.7148  0.5941 -0.7932
 7170SOL    HW226358   3.485   2.721   3.285  0.8127 -0.4147  1.5907
 7171SOL     OW26359   1.737   2.814   2.042 -0.5179 -0.1310 -0.1599
 7171SOL    HW126360   1.651   2.781   2.067 -0.0656 -1.5745 -0.4178
 7171SOL    HW226361   1.795   2.788   2.114 -0.3943  1.3526  0.2938
 7172SOL     OW26362   3.885   3.134   2.391  0.5915 -0.2678 -0.0974
 7172SOL    HW126363   3.899   3.051   2.346  0.5337 -1.1596  1.4906
 7172SOL    HW226364   3.790   3.143   2.396  0.5673 -1.1671  1.5774
 7173SOL     OW26365   2.375   2.609   4.419 -0.4081 -1.0891 -0.2480
 7173SOL    HW126366   2.440   2.552   4.378  1.1728  0.4088  0.0932
 7173SOL    HW226367   2.389   2.597   4.513  0.6709  0.6217 -0.1644
 7174SOL     OW26368   0.915   2.306   4.664  0.3577  0.2212 -0.2008
 7174SOL    HW126369   0.935   2.371   4.596  0.9530 -0.8216 -1.0447
 7174SOL    HW226370   0.863   2.239   4.619 -0.1702  0.0587  0.6381
 7175SOL     OW26371   0.777   1.869   4.760  0.2375  0.7759  0.0855
 7175SOL    HW126372   0.864   1.907   4.774  0.3219  1.2715 -1.6401
 7175SOL    HW226373   0.721   1.944   4.743 -0.7497  0.5312  2.1516
 7176SOL     OW26374   2.875   5.389   2.728  0.4369  0.2205 -0.4163
 7176SOL    HW126375   2.917   5.306   2.706 -1.5588 -0.5042 -1.5883
 7176SOL    HW226376   2.808   5.365   2.792 -0.1339  0.9373 -0.7431
 7177SOL     OW26377   2.512   3.344   4.889 -0.3478  0.4205  0.1677
 7177SOL    HW126378   2.438   3.310   4.939  1.2337 -1.8243  1.0827
 7177SOL    HW226379   2.551   3.410   4.946 -1.1329  0.9855  0.0505
 7178SOL     OW26380   3.616   3.197   2.481  0.5201 -0.0738 -0.0068
 7178SOL    HW126381   3.556   3.244   2.424  0.8022  1.3062  0.8200
 7178SOL    HW226382   3.571   3.115   2.501 -0.2384  0.1038 -0.9543
 7179SOL     OW26383   2.483   3.703   5.096 -0.2515  0.2483 -0.3027
 7179SOL    HW126384   2.439   3.709   5.011  0.2381  1.1192 -0.4926
 7179SOL    HW226385   2.421   3.654   5.151 -1.3392  1.1861 -0.6626
 7180SOL     OW26386   3.290   2.802   3.828 -0.0534 -0.1974 -0.3195
 7180SOL    HW126387   3.368   2.760   3.865 -0.6346 -1.0768 -0.0783
 7180SOL    HW226388   3.289   2.890   3.866  1.8388  0.4712 -1.7552
 7181SOL     OW26389   3.408   3.546   3.654 -0.5984  0.7197  0.0002
 7181SOL    HW126390   3.408   3.468   3.598 -0.3983  1.5200 -1.1230
 7181SOL    HW226391   3.328   3.593   3.631 -1.3558  0.2349  1.5671
 7182SOL     OW26392   3.288   2.534   5.265 -0.4590  0.4015  0.8641
 7182SOL    HW126393   3.372   2.495   5.290 -0.6213 -0.1919  0.4917
 7182SOL    HW226394   3.235   2.529   5.345 -1.1967 -2.0887  0.2737
 7183SOL     OW26395   4.052   2.060   6.166 -0.0064 -0.0765 -0.4695
 7183SOL    HW126396   3.997   2.059   6.245 -0.8186  2.5585 -0.9484
 7183SOL    HW226397   3.992   2.034   6.096 -0.0233  0.3533 -0.6175
 7184SOL     OW26398   3.858   9.947   4.266 -0.1698  0.3007 -0.0729
 7184SOL    HW126399   3.804   9.913   4.195  0.3364 -2.2716  0.7113
 7184SOL    HW226400   3.796   9.987   4.327 -0.9104 -0.1536 -0.5257
 7185SOL     OW26401   4.235   1.424   4.557 -0.0876  0.4180 -0.0288
 7185SOL    HW126402   4.310   1.390   4.604 -0.0939  1.3500  0.6767
 7185SOL    HW226403   4.264   1.508   4.522 -0.5228  0.3794 -0.4997
 7186SOL     OW26404   2.099   4.982   4.839 -0.8849  0.4209  0.2565
 7186SOL    HW126405   2.184   4.960   4.877 -0.7249 -0.0389 -0.3492
 7186SOL    HW226406   2.049   4.900   4.840  0.6170 -0.7299 -4.3258
 7187SOL     OW26407   2.181   2.646   6.733  0.1164 -0.3438  0.3958
 7187SOL    HW126408   2.119   2.590   6.685 -0.9270 -0.0998  1.4280
 7187SOL    HW226409   2.258   2.650   6.677 -0.5930 -1.1197 -0.6583
 7188SOL     OW26410   2.069   1.700   3.968  0.0932  0.6060  0.0751
 7188SOL    HW126411   2.113   1.623   3.934 -1.1877 -0.3811  0.6277
 7188SOL    HW226412   2.094   1.770   3.907  0.5379 -0.4179 -0.9402
 7189SOL     OW26413   2.324   3.108   3.250  0.4080  0.1388  0.1304
 7189SOL    HW126414   2.308   3.188   3.201  1.9091 -0.2351 -1.0267
 7189SOL    HW226415   2.334   3.040   3.183  0.0112 -0.8663  1.0559
 7190SOL     OW26416   4.298   2.673   1.600 -0.0991  1.0242 -0.3548
 7190SOL    HW126417   4.238   2.661   1.673  1.4773  1.0123  0.9584
 7190SOL    HW226418   4.258   2.625   1.528 -0.6389 -0.7204  1.0779
 7191SOL     OW26419   1.825   1.236   5.924  0.0643 -0.3562 -0.2002
 7191SOL    HW126420   1.747   1.266   5.970  1.0950  1.7798  0.2198
 7191SOL    HW226421   1.889   1.219   5.993  0.9459  0.8958 -0.6803
 7192SOL     OW26422   3.074   1.650   7.080 -0.0412  0.4027  0.1437
 7192SOL    HW126423   3.089   1.737   7.117  0.2431  0.0505  0.8744
 7192SOL    HW226424   3.152   1.600   7.106 -0.1520 -0.0322 -0.3676
 7193SOL     OW26425   2.667   2.015   4.910  0.0745 -0.5199 -0.0085
 7193SOL    HW126426   2.587   2.064   4.888  0.3188  0.4144  1.0937
 7193SOL    HW226427   2.673   2.022   5.005  0.6813 -1.8470  0.0589
 7194SOL     OW26428   2.729   4.426   2.620 -0.4071 -0.4001 -0.5743
 7194SOL    HW126429   2.657   4.428   2.683 -0.0338  1.1516 -0.1722
 7194SOL    HW226430   2.796   4.371   2.662  0.3989  1.7345  1.0369
 7195SOL     OW26431   3.007   2.689   6.000 -0.4310  0.4436  0.6133
 7195SOL    HW126432   2.945   2.635   5.951 -2.1233  1.2313  1.8339
 7195SOL    HW226433   3.085   2.693   5.945 -2.0221  0.7189 -1.6600
 7196SOL     OW26434   3.072   2.235   4.712  0.1455  0.1216  0.3669
 7196SOL    HW126435   2.987   2.204   4.680 -0.0241 -0.1868  1.1118
 7196SOL    HW226436   3.126   2.242   4.633 -0.6104  0.4526 -0.1267
 7197SOL     OW26437   3.170   0.834   4.386  0.2252 -0.7783  0.4838
 7197SOL    HW126438   3.186   0.915   4.435  0.6016 -1.0839  0.8689
 7197SOL    HW226439   3.111   0.860   4.315 -0.3839 -0.3436  1.1390
 7198SOL     OW26440   2.511   3.093   3.525 -0.1091  0.3687 -0.4245
 7198SOL    HW126441   2.562   3.040   3.464  2.7741 -0.1102  2.2830
 7198SOL    HW226442   2.471   3.029   3.584 -0.1491  0.9799  0.2144
 7199SOL     OW26443   1.538   2.295   3.446 -0.8482  0.0322  0.1059
 7199SOL    HW126444   1.458   2.271   3.400 -0.8711  0.1416  0.0882
 7199SOL    HW226445   1.569   2.374   3.400 -1.3600  0.6696  0.8599
 7200SOL     OW26446   0.897   1.727   3.324  0.1839 -0.2855 -0.3762
 7200SOL    HW126447   0.949   1.717   3.244  0.9786  3.1814 -0.3728
 7200SOL    HW226448   0.937   1.802   3.369 -1.8235 -0.6076  2.0241
 7201SOL     OW26449   3.317   4.084   1.795 -0.5186 -0.8422 -0.5312
 7201SOL    HW126450   3.340   3.992   1.783  0.7810 -0.5604 -0.3439
 7201SOL    HW226451   3.281   4.089   1.884 -1.1378 -1.2690 -0.7576
 7202SOL     OW26452   2.232   2.569   3.997  0.0000 -0.1147 -0.1575
 7202SOL    HW126453   2.182   2.626   3.938  1.8029 -0.0722 -1.6789
 7202SOL    HW226454   2.309   2.620   4.020  0.2963 -0.9109  0.6377
 7203SOL     OW26455   3.845   1.858   4.333  0.0830  0.0567 -0.3703
 7203SOL    HW126456   3.750   1.858   4.335  0.0564 -0.0957 -1.6037
 7203SOL    HW226457   3.869   1.950   4.348 -0.1932 -0.2427  2.0661
 7204SOL     OW26458   3.534   2.383   3.024  0.3676 -0.9042  0.4886
 7204SOL    HW126459   3.540   2.338   3.108  1.0554 -0.3020  0.7671
 7204SOL    HW226460   3.469   2.451   3.038  3.2268  1.6656  1.6973
 7205SOL     OW26461   2.572   2.311   4.406  0.0669  0.2703 -0.3371
 7205SOL    HW126462   2.650   2.301   4.461  0.6076  1.2109 -0.9122
 7205SOL    HW226463   2.534   2.223   4.402  1.9742 -0.5605 -1.3151
 7206SOL     OW26464   3.151   0.834   4.776 -0.3103 -0.2779 -0.4260
 7206SOL    HW126465   3.072   0.842   4.722 -1.1805  1.0052  1.0187
 7206SOL    HW226466   3.121   0.795   4.858  0.0088  2.9561  1.2792
 7207SOL     OW26467   3.564   3.087   1.204  0.8946 -0.1675 -0.3927
 7207SOL    HW126468   3.521   3.025   1.264  0.3289  1.4627  0.9156
 7207SOL    HW226469   3.508   3.087   1.126  0.7212 -1.0500 -0.2842
 7208SOL     OW26470   2.447   9.749   5.529  0.0384  0.1987  0.5381
 7208SOL    HW126471   2.413   9.803   5.458  0.1401  0.2268  0.5124
 7208SOL    HW226472   2.370   9.728   5.582 -0.1691 -0.4721 -0.0097
 7209SOL     OW26473   2.001   2.564   5.516  0.1363  0.3169  0.5554
 7209SOL    HW126474   2.007   2.482   5.565 -0.3403 -0.1574 -0.1686
 7209SOL    HW226475   1.921   2.605   5.548 -0.0430  0.1246  0.3566
 7210SOL     OW26476   2.970   1.867   3.861  0.3270  0.6175 -0.2296
 7210SOL    HW126477   2.961   1.931   3.790  1.0759  1.2205  0.2128
 7210SOL    HW226478   3.031   1.801   3.826 -0.5067  0.0852 -0.7144
 7211SOL     OW26479   2.525   0.693   6.302 -0.3234  0.3275  0.1521
 7211SOL    HW126480   2.434   0.714   6.323 -0.8884 -0.4531 -1.4056
 7211SOL    HW226481   2.525   0.683   6.206  1.0120 -1.5563  0.3327
 7212SOL     OW26482   2.523   2.828   4.724  0.4083 -0.2326 -0.4226
 7212SOL    HW126483   2.605   2.828   4.674 -0.0973 -2.5371 -1.3100
 7212SOL    HW226484   2.504   2.735   4.739 -2.3842  0.2316 -0.7946
 7213SOL     OW26485   2.511   1.504   5.913  0.4764 -0.4225 -0.1544
 7213SOL    HW126486   2.537   1.562   5.985 -0.2864  1.8485 -1.6681
 7213SOL    HW226487   2.417   1.490   5.927 -0.3559  2.4572 -2.2962
 7214SOL     OW26488   0.026   4.470   6.771  0.4108  0.0189  0.0418
 7214SOL    HW126489  -0.054   4.429   6.804  0.4104 -0.4770 -0.5665
 7214SOL    HW226490  -0.003   4.557   6.742  0.4196  0.4755  1.3574
 7215SOL     OW26491   2.217   1.788   5.252  0.0310  0.0342  0.2330
 7215SOL    HW126492   2.122   1.775   5.261  0.0236 -0.7877 -0.8780
 7215SOL    HW226493   2.237   1.861   5.310 -1.3805  0.5698  0.0647
 7216SOL     OW26494   2.773   2.221   3.909 -0.1497 -0.0037  0.5458
 7216SOL    HW126495   2.773   2.184   3.821  1.3313  0.5677  0.2819
 7216SOL    HW226496   2.750   2.148   3.966 -1.5775 -0.2678 -0.3430
 7217SOL     OW26497   1.332   0.736   3.598 -0.0991 -0.0391  0.3820
 7217SOL    HW126498   1.346   0.713   3.690  0.3993  1.1961  0.6260
 7217SOL    HW226499   1.277   0.665   3.564 -1.7048  0.3591  2.0628
 7218SOL     OW26500   2.652   3.759   3.049  0.1226  0.9747 -0.9629
 7218SOL    HW126501   2.747   3.762   3.060  0.2044  1.8948 -1.8906
 7218SOL    HW226502   2.638   3.740   2.956 -0.6053 -1.6840 -0.3702
 7219SOL     OW26503   2.673   4.428   3.854 -0.1930 -0.1123 -0.4564
 7219SOL    HW126504   2.588   4.469   3.872  0.6802  0.9720  1.2847
 7219SOL    HW226505   2.689   4.372   3.930 -0.2043 -1.7631 -1.6565
 7220SOL     OW26506   2.479   4.237   3.103 -0.0851  0.4043  0.0267
 7220SOL    HW126507   2.459   4.246   3.196  0.8380 -1.2238  0.4007
 7220SOL    HW226508   2.461   4.145   3.084  0.1539  0.6272 -1.2949
 7221SOL     OW26509   2.105   2.338   5.657 -0.1621  0.3292 -0.6700
 7221SOL    HW126510   2.036   2.294   5.706  0.6528 -2.5348 -1.9855
 7221SOL    HW226511   2.186   2.302   5.693  0.5901  1.6675 -0.9728
 7222SOL     OW26512   0.959   1.907   4.328 -0.0243 -0.8099 -0.0793
 7222SOL    HW126513   0.871   1.895   4.363 -0.0382 -0.3412  0.0519
 7222SOL    HW226514   0.969   2.002   4.320  0.0367 -0.9030 -1.2028
 7223SOL     OW26515   1.763   2.708   4.449  0.1958 -0.7592 -0.1576
 7223SOL    HW126516   1.714   2.763   4.510  0.5905 -0.0569 -0.4786
 7223SOL    HW226517   1.725   2.621   4.461 -0.6637 -0.3583  0.0971
 7224SOL     OW26518   1.021   0.752   5.828  0.1078 -0.1658  0.6741
 7224SOL    HW126519   0.984   0.696   5.759  0.4055 -1.0274  1.2017
 7224SOL    HW226520   1.110   0.719   5.840  0.1422  0.1399  1.2883
 7225SOL     OW26521   3.447   3.980   2.824 -0.2896 -0.1936  0.2434
 7225SOL    HW126522   3.471   3.995   2.915 -0.7751  0.6914  0.2384
 7225SOL    HW226523   3.356   3.951   2.827 -0.6930  1.0020 -0.0232
 7226SOL     OW26524   2.256   0.919   6.703  0.0868 -0.4362 -0.5210
 7226SOL    HW126525   2.196   0.966   6.761 -0.6115  0.2082 -1.7195
 7226SOL    HW226526   2.199   0.873   6.642  0.7952 -2.0439  0.0197
 7227SOL     OW26527   1.935   4.327   1.978 -0.1858 -0.4395 -0.8771
 7227SOL    HW126528   1.928   4.386   2.053  0.3457 -0.5655 -0.7276
 7227SOL    HW226529   2.028   4.303   1.975 -0.9102 -3.7626  1.0062
 7228SOL     OW26530   0.952   3.066   3.841  0.1441  0.1013 -0.4076
 7228SOL    HW126531   0.857   3.059   3.832  0.0689 -1.9743  1.6061
 7228SOL    HW226532   0.986   3.041   3.755 -1.1219  1.9959 -1.5083
 7229SOL     OW26533   3.520   1.987   5.127  0.2570  0.5714  0.1747
 7229SOL    HW126534   3.590   1.956   5.185  0.7888 -1.3752 -1.4352
 7229SOL    HW226535   3.565   2.036   5.059 -0.1684  1.1781  0.3307
 7230SOL     OW26536   0.083   4.665   4.142 -0.4546  0.2159  0.4173
 7230SOL    HW126537   0.112   4.657   4.233 -0.1312  3.6185  0.6633
 7230SOL    HW226538  -0.007   4.631   4.143 -0.1583 -0.5844  1.8259
 7231SOL     OW26539   3.513   3.382   1.379  0.0356 -0.3734 -0.2817
 7231SOL    HW126540   3.504   3.475   1.400 -0.9110 -0.9752  2.2809
 7231SOL    HW226541   3.584   3.377   1.316  1.0840  1.9552  0.6836
 7232SOL     OW26542   1.654   3.337   3.618 -0.3774  0.1026  0.2281
 7232SOL    HW126543   1.593   3.264   3.625 -0.6135  0.2054 -0.6639
 7232SOL    HW226544   1.739   3.297   3.601 -1.1205  0.0890 -4.2844
 7233SOL     OW26545   3.467   0.232   5.013 -0.3938  0.6215  0.4823
 7233SOL    HW126546   3.559   0.225   4.989 -0.7177 -0.8608 -0.3798
 7233SOL    HW226547   3.444   0.323   4.996  0.8978  0.9892  0.6796
 7234SOL     OW26548   1.596   2.207   4.754  0.1711  0.1520 -0.0633
 7234SOL    HW126549   1.539   2.131   4.766 -0.0425  0.5501  1.5272
 7234SOL    HW226550   1.557   2.254   4.680 -0.3362 -0.6884 -0.3473
 7235SOL     OW26551   0.976   2.046   4.855  0.0149  0.3418 -0.1034
 7235SOL    HW126552   0.920   2.022   4.930 -0.2302 -0.7563 -0.6377
 7235SOL    HW226553   0.962   2.140   4.845  0.7894  0.6933  1.8486
 7236SOL     OW26554   2.324   3.560   4.867 -0.1917 -0.5286  0.3637
 7236SOL    HW126555   2.368   3.475   4.860 -2.6476 -1.9028  1.1260
 7236SOL    HW226556   2.241   3.547   4.822 -0.4502  1.6037  0.1974
 7237SOL     OW26557   3.296   2.423   6.119 -0.1689 -0.4480  0.3034
 7237SOL    HW126558   3.340   2.344   6.151  1.1471  0.2349  0.2282
 7237SOL    HW226559   3.220   2.433   6.176  0.3610 -1.0658  1.1264
 7238SOL     OW26560   2.912   3.401   3.009 -0.1315 -0.5490  0.1169
 7238SOL    HW126561   2.937   3.492   2.993 -1.2551 -0.5331 -1.6447
 7238SOL    HW226562   2.991   3.360   3.045  0.7871  0.7853 -0.3722
 7239SOL     OW26563   2.481   0.243   4.585 -0.2472  0.6176  0.0909
 7239SOL    HW126564   2.467   0.244   4.491  1.0755  1.5895 -0.1138
 7239SOL    HW226565   2.394   0.235   4.623 -0.8426  0.8928 -1.2047
 7240SOL     OW26566   0.888   0.483   6.221  0.0110  0.4022 -0.4949
 7240SOL    HW126567   0.820   0.477   6.155 -0.8348 -0.3421  0.4175
 7240SOL    HW226568   0.933   0.565   6.203 -0.9433  0.7571 -1.2894
 7241SOL     OW26569   2.999   2.644   3.531 -0.3094 -0.0112 -0.5895
 7241SOL    HW126570   3.019   2.708   3.462  0.0182  0.2596 -0.2451
 7241SOL    HW226571   2.939   2.582   3.489  0.5829 -0.3513 -1.3791
 7242SOL     OW26572   1.830   1.361   5.558 -0.4318 -0.1491  0.3213
 7242SOL    HW126573   1.834   1.267   5.540  0.4600  0.0935 -0.7627
 7242SOL    HW226574   1.913   1.380   5.602 -0.0791  0.3593 -0.5634
 7243SOL     OW26575   4.161   3.118   6.990  0.1490 -0.3989  0.3932
 7243SOL    HW126576   4.239   3.077   7.026 -1.0432 -2.0480  1.1429
 7243SOL    HW226577   4.101   3.045   6.973 -1.2259  0.8413 -0.1826
 7244SOL     OW26578   1.559   1.692   3.688 -0.2608  0.2727  0.0158
 7244SOL    HW126579   1.535   1.600   3.680  0.8328  0.0746 -1.1022
 7244SOL    HW226580   1.525   1.733   3.609  0.3102  0.5956 -0.0650
 7245SOL     OW26581   2.509   3.613   4.116 -1.0446 -0.5590 -0.4144
 7245SOL    HW126582   2.468   3.572   4.192  1.7253  1.4360  2.3243
 7245SOL    HW226583   2.442   3.672   4.081 -1.8100 -0.1505  1.6564
 7246SOL     OW26584   3.102   2.950   4.118 -0.0758  0.1391 -0.8069
 7246SOL    HW126585   3.056   2.884   4.068  0.2649 -1.7724  1.2976
 7246SOL    HW226586   3.051   2.959   4.199  0.6036  1.4804 -0.5132
 7247SOL     OW26587   2.453   2.818   5.240  0.2778 -0.0877  0.6171
 7247SOL    HW126588   2.454   2.748   5.175  0.4633  2.6272 -2.4020
 7247SOL    HW226589   2.364   2.854   5.236 -0.2963 -1.0863  3.2540
 7248SOL     OW26590   0.813   1.425   6.058  0.3324 -0.3562  0.2588
 7248SOL    HW126591   0.759   1.425   6.137  2.5561 -3.2105  1.8618
 7248SOL    HW226592   0.766   1.369   5.996 -1.2493  1.6197 -0.3529
 7249SOL     OW26593   1.392   1.538   5.677 -0.4521  0.4196 -0.0014
 7249SOL    HW126594   1.348   1.622   5.687 -1.7860 -0.1051 -1.2611
 7249SOL    HW226595   1.335   1.487   5.619  0.5874 -1.1696  0.3180
 7250SOL     OW26596   2.792   1.374   4.900 -0.0266 -0.2652 -0.0938
 7250SOL    HW126597   2.768   1.306   4.964  0.0760 -0.7233 -0.5384
 7250SOL    HW226598   2.887   1.369   4.895  0.0476  0.4704  0.4772
 7251SOL     OW26599   3.374   2.233   4.474 -0.4318  0.0706  0.3775
 7251SOL    HW126600   3.278   2.234   4.481 -0.2343 -0.4658  3.8616
 7251SOL    HW226601   3.398   2.325   4.462 -1.3692  0.2484 -0.1926
 7252SOL     OW26602   3.614   2.433   4.019 -0.1980 -0.4458 -0.2764
 7252SOL    HW126603   3.698   2.390   4.037 -0.4051 -1.1741 -1.0255
 7252SOL    HW226604   3.609   2.437   3.924 -0.9213 -0.2106 -0.2291
 7253SOL     OW26605   3.423   1.729   2.467 -0.1458 -0.4462  0.4698
 7253SOL    HW126606   3.465   1.677   2.398 -0.2183  2.3980 -1.8358
 7253SOL    HW226607   3.496   1.757   2.523  0.5309  0.8052 -0.9864
 7254SOL     OW26608   1.994   5.283   5.292  0.1864 -0.1944 -0.7023
 7254SOL    HW126609   1.901   5.258   5.296 -0.0159  0.6069 -0.2744
 7254SOL    HW226610   2.014   5.285   5.198  0.5039 -2.9975 -0.7430
 7255SOL     OW26611   2.373   0.830   5.508  0.2477 -0.1976  0.4965
 7255SOL    HW126612   2.288   0.853   5.472  1.4489  1.0090 -1.6930
 7255SOL    HW226613   2.361   0.835   5.603 -1.2357  3.3471  0.1971
 7256SOL     OW26614   2.771   1.146   5.720 -0.3915  0.9909 -0.3394
 7256SOL    HW126615   2.678   1.135   5.702 -0.6608  2.2839  0.1642
 7256SOL    HW226616   2.775   1.171   5.812  0.3144  2.5535 -0.7709
 7257SOL     OW26617   3.139   3.924   4.133  0.5386  0.1751  0.1071
 7257SOL    HW126618   3.083   3.972   4.074 -0.0511 -0.2076  0.3469
 7257SOL    HW226619   3.085   3.851   4.164  0.5768  0.7959  1.6992
 7258SOL     OW26620   3.328   3.840   5.568 -0.1420  0.3291  0.4127
 7258SOL    HW126621   3.357   3.771   5.627  1.0775 -1.4555 -2.1371
 7258SOL    HW226622   3.396   3.906   5.573  0.0203  0.1226  0.9255
 7259SOL     OW26623   0.520   0.786   5.959 -0.4974 -0.0149  0.1062
 7259SOL    HW126624   0.530   0.881   5.960 -1.2933  0.1288 -1.8543
 7259SOL    HW226625   0.487   0.764   6.046  1.8140  1.2172  1.3484
 7260SOL     OW26626   3.151   2.169   4.147 -0.0902  0.4713  0.0340
 7260SOL    HW126627   3.193   2.196   4.065 -1.7839  0.1430 -0.9721
 7260SOL    HW226628   3.123   2.079   4.131 -1.2317  0.7005  0.6336
 7261SOL     OW26629   1.891   2.995   4.864 -0.2800 -0.0339 -0.5288
 7261SOL    HW126630   1.861   2.930   4.927 -0.5950  0.2743 -0.3566
 7261SOL    HW226631   1.972   3.030   4.902  0.3669 -0.9382 -1.0437
 7262SOL     OW26632   2.977   2.630   6.532  0.3371 -0.0122  0.0066
 7262SOL    HW126633   3.070   2.635   6.551  0.4300  0.9589 -0.6559
 7262SOL    HW226634   2.956   2.714   6.492 -1.2686  0.5856  2.0336
 7263SOL     OW26635   1.979   1.935   5.789 -0.2255 -0.0533  0.0782
 7263SOL    HW126636   1.891   1.971   5.798 -0.4502 -0.9210  1.5074
 7263SOL    HW226637   2.022   1.954   5.873 -0.1394 -2.4602  0.6452
 7264SOL     OW26638   0.710   1.868   4.472  0.3656 -0.8383 -0.6289
 7264SOL    HW126639   0.725   1.914   4.555 -0.1652  0.6155 -1.3230
 7264SOL    HW226640   0.642   1.803   4.493 -1.0697  0.7228 -0.3245
 7265SOL     OW26641   1.308   3.100   3.938  0.2478  0.8521  0.4336
 7265SOL    HW126642   1.225   3.073   3.897  0.6149  1.9252 -1.0658
 7265SOL    HW226643   1.363   3.022   3.934 -0.4746  0.3114  0.8674
 7266SOL     OW26644   0.655   1.019   3.266 -0.0329  1.2879 -0.3987
 7266SOL    HW126645   0.619   1.068   3.340 -1.2600  0.1142 -0.2184
 7266SOL    HW226646   0.604   0.939   3.262  1.2886  0.4685 -1.3446
 7267SOL     OW26647   2.070   3.750   4.742  0.0217  0.1842 -0.4598
 7267SOL    HW126648   2.057   3.714   4.654 -3.0929  0.6734 -0.2424
 7267SOL    HW226649   1.988   3.731   4.789  0.9951  1.3961  1.8202
 7268SOL     OW26650   1.914   2.603   4.815 -0.2238 -0.0211 -0.7475
 7268SOL    HW126651   1.826   2.577   4.843 -1.3840  2.4781 -1.9106
 7268SOL    HW226652   1.950   2.650   4.890 -0.4169  0.1603 -0.7676
 7269SOL     OW26653   1.602   1.325   6.078  0.2361  0.3952 -0.0830
 7269SOL    HW126654   1.531   1.385   6.055 -0.8510 -0.9421 -0.2915
 7269SOL    HW226655   1.620   1.344   6.170 -1.7415 -0.5448  0.5430
 7270SOL     OW26656   3.138   2.447   3.685  0.0946 -0.1981 -0.4285
 7270SOL    HW126657   3.074   2.485   3.624 -0.6750 -0.8028 -0.0093
 7270SOL    HW226658   3.196   2.396   3.629  1.4275  1.9550 -1.0515
 7271SOL     OW26659   3.081   2.613   3.935 -0.1564 -0.4644 -0.6387
 7271SOL    HW126660   3.038   2.531   3.960 -1.8404  0.0739 -1.7648
 7271SOL    HW226661   3.128   2.592   3.855 -0.1182 -0.4770 -0.6131
 7272SOL     OW26662   1.488   2.302   6.209  0.9072  0.0908 -0.0645
 7272SOL    HW126663   1.532   2.374   6.253  1.4421  0.0885 -0.5964
 7272SOL    HW226664   1.397   2.308   6.238  1.2426  0.1119  1.0151
 7273SOL     OW26665   1.418   2.576   5.850  0.2535  0.4283  0.0816
 7273SOL    HW126666   1.474   2.502   5.873 -0.3628 -0.5322 -1.4204
 7273SOL    HW226667   1.436   2.591   5.757 -0.4885  1.4166  0.0899
 7274SOL     OW26668   4.390   2.804   7.949 -0.3404 -0.5285  0.1250
 7274SOL    HW126669   4.358   2.781   8.037  0.8993 -1.3070  0.3883
 7274SOL    HW226670   4.317   2.849   7.908 -1.2586 -0.9779  1.2394
 7275SOL     OW26671   2.702   1.730   4.819  0.1915 -0.1464  0.3868
 7275SOL    HW126672   2.689   1.795   4.889  0.6362 -0.9360  1.2084
 7275SOL    HW226673   2.725   1.650   4.865 -0.7041 -0.9821 -0.6193
 7276SOL     OW26674   3.091   1.202   4.651 -0.3860  0.1254 -0.7575
 7276SOL    HW126675   3.031   1.259   4.603 -0.9562 -1.7243 -2.3111
 7276SOL    HW226676   3.143   1.262   4.704 -1.6737  1.9999 -1.5338
 7277SOL     OW26677   0.621   3.131   3.199  0.7825  0.1945  0.2739
 7277SOL    HW126678   0.602   3.037   3.187  0.6232  0.1929  0.5484
 7277SOL    HW226679   0.538   3.169   3.227  0.7362  0.4965 -0.2616
 7278SOL     OW26680   3.092   2.264   4.422 -0.3315  0.5241  0.0793
 7278SOL    HW126681   3.110   2.225   4.336 -0.9689 -1.1046  0.6578
 7278SOL    HW226682   3.068   2.355   4.403 -0.6125  0.1378 -1.4727
 7279SOL     OW26683   6.036   2.545   4.309  0.0391  0.0406  0.2258
 7279SOL    HW126684   6.036   2.456   4.344 -0.0703  0.7123  1.9675
 7279SOL    HW226685   5.965   2.545   4.244  0.6433 -1.3895 -0.4513
 7280SOL     OW26686   2.534   0.306   3.882  0.1010  0.0112 -0.1806
 7280SOL    HW126687   2.483   0.272   3.956 -0.5475 -0.4860 -0.8535
 7280SOL    HW226688   2.625   0.288   3.906 -0.1855 -1.4658 -0.1495
 7281SOL     OW26689   1.864   3.640   6.212  0.2615 -0.1509 -0.0509
 7281SOL    HW126690   1.888   3.586   6.287 -0.6016  1.3266  1.3168
 7281SOL    HW226691   1.782   3.602   6.181 -0.6869  0.7277  1.3105
 7282SOL     OW26692   2.755   2.054   4.283 -0.4556 -0.1771 -0.0592
 7282SOL    HW126693   2.786   2.136   4.321 -1.2846  0.0621  0.1131
 7282SOL    HW226694   2.831   2.019   4.236  0.2732  0.0310  0.9649
 7283SOL     OW26695   5.398   4.017   3.615 -0.2410 -0.5930  0.5953
 7283SOL    HW126696   5.332   3.974   3.560 -0.5370 -1.0655  1.3060
 7283SOL    HW226697   5.401   3.963   3.695 -0.1305  0.3253  1.2165
 7284SOL     OW26698   0.020   2.422   4.973  0.1040 -0.6964 -0.7882
 7284SOL    HW126699   0.068   2.354   5.020  0.4003  0.3994  0.5260
 7284SOL    HW226700   0.088   2.480   4.938 -0.2017  1.7644  2.4349
 7285SOL     OW26701   1.679   2.088   5.127  0.1104 -0.3916 -0.2265
 7285SOL    HW126702   1.585   2.082   5.110  0.0996  2.3604 -1.3302
 7285SOL    HW226703   1.719   2.086   5.040  1.0380 -0.6580  0.1991
 7286SOL     OW26704   3.474   0.348   6.483  0.2985  0.0426  0.0558
 7286SOL    HW126705   3.394   0.319   6.529 -0.1269  0.8056 -0.1988
 7286SOL    HW226706   3.442   0.398   6.408  1.0076 -0.7463 -0.7792
 7287SOL     OW26707   2.933   1.692   6.094 -0.9827  0.5618  0.3403
 7287SOL    HW126708   2.933   1.601   6.121  0.8986 -0.1049 -1.7898
 7287SOL    HW226709   2.946   1.742   6.175  0.0297 -1.1526  1.2430
 7288SOL     OW26710   2.726   3.570   6.316  0.2560  0.2971  0.5636
 7288SOL    HW126711   2.689   3.513   6.249 -0.8123 -0.8853  2.1014
 7288SOL    HW226712   2.663   3.642   6.325  0.0742  0.1177  0.7349
 7289SOL     OW26713   2.021   1.623   5.910 -0.1768 -0.6819  0.3901
 7289SOL    HW126714   1.944   1.679   5.923 -1.2336 -1.8567 -0.5965
 7289SOL    HW226715   2.059   1.613   5.998 -2.4444 -1.8601  1.2918
 7290SOL     OW26716   3.139   2.275   5.411 -0.5367 -0.0296  0.6434
 7290SOL    HW126717   3.129   2.369   5.431  1.1406  0.2267  0.3501
 7290SOL    HW226718   3.094   2.264   5.327  0.9538  0.9390 -0.3096
 7291SOL     OW26719   2.978   2.628   4.557 -0.3408  0.6418 -0.3962
 7291SOL    HW126720   2.954   2.536   4.572  1.9101 -0.0870 -1.0362
 7291SOL    HW226721   2.989   2.634   4.462 -1.2112  1.7741 -0.4250
 7292SOL     OW26722   3.588   1.753   3.798  0.1038  0.3119  0.2853
 7292SOL    HW126723   3.656   1.694   3.766 -0.6382 -0.0777 -0.5792
 7292SOL    HW226724   3.505   1.713   3.770 -0.4595  1.1424  0.7208
 7293SOL     OW26725   2.388   1.566   4.564 -0.1763  0.3735  0.1854
 7293SOL    HW126726   2.326   1.528   4.502  0.2614  2.2672 -1.4757
 7293SOL    HW226727   2.335   1.622   4.620 -0.3584 -0.1733  0.5630
 7294SOL     OW26728   2.501   2.995   5.806  0.0331  0.1670  0.2608
 7294SOL    HW126729   2.582   2.992   5.755 -1.0437  1.0566 -1.5500
 7294SOL    HW226730   2.502   2.914   5.857  0.7684 -1.1490 -1.7598
 7295SOL     OW26731   3.247   1.018   6.073 -0.1563  0.1495 -0.1266
 7295SOL    HW126732   3.217   1.108   6.086  1.0145  0.4345  0.6162
 7295SOL    HW226733   3.308   1.002   6.145 -1.5883 -1.7898  0.7078
 7296SOL     OW26734   0.821   0.998   3.888 -0.0865  0.6702  0.0566
 7296SOL    HW126735   0.862   1.055   3.953 -1.5158  1.3802  0.3585
 7296SOL    HW226736   0.874   1.011   3.809 -0.0889  2.0602  0.2626
 7297SOL     OW26737   1.768   1.954   4.697 -0.7464 -0.5003 -0.1977
 7297SOL    HW126738   1.676   1.931   4.705 -0.9559  0.4979  0.3052
 7297SOL    HW226739   1.815   1.872   4.712 -1.5107 -0.8041  0.5596
 7298SOL     OW26740   1.696   4.165   3.660 -0.9599  0.1039  0.4810
 7298SOL    HW126741   1.707   4.260   3.654 -1.4756  0.2598  1.7644
 7298SOL    HW226742   1.608   4.149   3.626 -0.4732 -0.0508 -0.7433
 7299SOL     OW26743   3.479   2.809   5.911 -0.6467  0.2108 -0.7324
 7299SOL    HW126744   3.406   2.755   5.880 -1.1720  0.8141 -0.5519
 7299SOL    HW226745   3.451   2.840   5.997  0.3320 -0.5332 -0.1413
 7300SOL     OW26746   2.467   2.242   4.846  0.2351  0.5819  0.7434
 7300SOL    HW126747   2.391   2.263   4.902 -1.4392 -1.7366 -0.5796
 7300SOL    HW226748   2.429   2.193   4.772  2.8124  0.9388 -0.8611
 7301SOL     OW26749   1.668   2.835   3.214 -0.8022 -0.4037 -1.0518
 7301SOL    HW126750   1.576   2.856   3.204 -0.7545  0.3412 -0.0199
 7301SOL    HW226751   1.714   2.917   3.198 -0.7750  1.1939  5.8526
 7302SOL     OW26752   2.548   2.041   5.852 -0.2531  0.5550 -0.5861
 7302SOL    HW126753   2.544   1.962   5.798  0.4621  0.1102  0.0120
 7302SOL    HW226754   2.560   2.008   5.942  0.2955  1.3458 -0.3686
 7303SOL     OW26755   1.965   2.959   4.456  0.2942  0.1691 -0.7635
 7303SOL    HW126756   1.876   2.977   4.485  0.4500 -0.1139 -0.0903
 7303SOL    HW226757   1.991   2.880   4.504  1.0533  0.4946 -0.6203
 7304SOL     OW26758   2.833   2.257   5.695 -0.1355 -0.5603 -0.7839
 7304SOL    HW126759   2.776   2.203   5.640 -1.5309  0.7523 -0.6462
 7304SOL    HW226760   2.840   2.209   5.777 -0.7929 -0.8691 -0.9040
 7305SOL     OW26761   3.533   1.251   4.455 -0.0590  0.6400  0.5322
 7305SOL    HW126762   3.586   1.172   4.467  0.6028  0.6850 -1.7842
 7305SOL    HW226763   3.446   1.219   4.433  0.2233  0.5373 -0.4606
 7306SOL     OW26764   3.075   1.382   6.746  0.2609 -0.6338  0.2507
 7306SOL    HW126765   3.164   1.346   6.751  0.5803  0.1132  0.1040
 7306SOL    HW226766   3.081   1.451   6.679  0.2482  1.2626  2.1345
 7307SOL     OW26767   1.109   2.800   6.541  0.0389 -0.3179  0.3862
 7307SOL    HW126768   1.118   2.742   6.466 -1.7254  0.1605 -0.2101
 7307SOL    HW226769   1.108   2.888   6.504 -0.4242 -0.0542  1.0174
 7308SOL     OW26770   2.217   4.466   5.467 -0.2420  0.1365 -0.5860
 7308SOL    HW126771   2.311   4.464   5.450 -0.2555 -2.8533 -0.4746
 7308SOL    HW226772   2.187   4.547   5.425  1.8963 -0.3158 -3.1037
 7309SOL     OW26773   2.459   2.557   4.681 -0.7615  0.0357 -0.6231
 7309SOL    HW126774   2.391   2.502   4.720  0.1362 -2.5392 -2.5257
 7309SOL    HW226775   2.541   2.514   4.704  0.2073  2.6217  0.8978
 7310SOL     OW26776   2.300   2.868   4.348 -0.4704 -0.0790 -0.0356
 7310SOL    HW126777   2.385   2.904   4.325  0.2886 -1.6657  0.1940
 7310SOL    HW226778   2.313   2.773   4.347 -1.7922 -0.3084  1.6837
 7311SOL     OW26779   3.067   3.137   3.541 -0.6509 -0.3975 -0.8322
 7311SOL    HW126780   3.162   3.153   3.542 -0.7924  0.4819 -0.7983
 7311SOL    HW226781   3.053   3.071   3.609 -0.2069  0.3488 -0.0022
 7312SOL     OW26782   4.549   2.651   5.719 -0.1785 -0.3745  0.1532
 7312SOL    HW126783   4.560   2.604   5.802  0.8322 -0.3390  0.0433
 7312SOL    HW226784   4.587   2.737   5.735  0.0536 -0.3824 -0.3577
 7313SOL     OW26785   3.560   2.585   5.679  0.4040 -0.0159 -0.7564
 7313SOL    HW126786   3.653   2.589   5.700  0.2534 -0.3647 -0.0112
 7313SOL    HW226787   3.518   2.556   5.760 -0.1922 -1.2851 -1.5067
 7314SOL     OW26788   2.482   2.837   3.341  0.0437 -0.4748 -0.4186
 7314SOL    HW126789   2.454   2.928   3.328 -1.1445 -0.7756  0.0518
 7314SOL    HW226790   2.475   2.797   3.255  1.9375  0.2376 -0.9430
 7315SOL     OW26791   3.386   3.076   5.496  0.4982 -0.3706 -0.5182
 7315SOL    HW126792   3.448   3.148   5.496 -0.6915  0.6844 -0.9962
 7315SOL    HW226793   3.439   2.997   5.506  1.6959  0.6611  1.6660
 7316SOL     OW26794   4.037   1.664   4.473 -0.3328 -0.6917  0.8438
 7316SOL    HW126795   4.112   1.686   4.528  0.0373  1.8250 -0.5584
 7316SOL    HW226796   3.973   1.733   4.491 -0.0030  0.5017 -2.1463
 7317SOL     OW26797   3.822   3.552   4.494  0.4317 -0.7099  0.0167
 7317SOL    HW126798   3.778   3.552   4.579 -0.1201  1.3556 -0.2447
 7317SOL    HW226799   3.763   3.599   4.435  1.4170 -0.9306 -1.1930
 7318SOL     OW26800   1.202   2.381   7.446  0.0535  0.4760  0.7929
 7318SOL    HW126801   1.108   2.376   7.463 -0.0183  0.5356  0.4123
 7318SOL    HW226802   1.236   2.433   7.518 -0.3253  1.1797  0.4661
 7319SOL     OW26803   4.309   4.176   3.297 -0.1679 -0.0375  0.1998
 7319SOL    HW126804   4.302   4.082   3.307 -0.6992  0.0258  0.4533
 7319SOL    HW226805   4.301   4.211   3.386  3.1098  0.0793  0.4996
 7320SOL     OW26806   2.831   3.379   4.865 -0.3749 -0.6710 -0.5625
 7320SOL    HW126807   2.806   3.293   4.899  2.7505 -1.7201 -0.7231
 7320SOL    HW226808   2.805   3.377   4.774 -1.8073 -0.8175 -0.1557
 7321SOL     OW26809   2.804   3.746   3.458  0.2338  0.1079  0.1174
 7321SOL    HW126810   2.792   3.718   3.549 -0.9963  0.5698  0.0968
 7321SOL    HW226811   2.808   3.664   3.408 -1.3707 -0.0912  0.3084
 7322SOL     OW26812   3.175   3.506   4.359  0.2741 -0.4703  0.2079
 7322SOL    HW126813   3.246   3.505   4.422 -0.5735  0.6128  1.2041
 7322SOL    HW226814   3.207   3.561   4.287 -0.2624  1.6445  1.5360
 7323SOL     OW26815   4.482   1.124   4.389  0.3637 -0.6791  0.3346
 7323SOL    HW126816   4.514   1.085   4.308  1.6510  0.3056  0.3422
 7323SOL    HW226817   4.391   1.146   4.371  0.4770 -1.0056 -0.6503
 7324SOL     OW26818   1.857   3.168   3.573  0.4722 -0.2619  0.3213
 7324SOL    HW126819   1.895   3.113   3.504 -0.1931 -0.3313  0.0032
 7324SOL    HW226820   1.858   3.112   3.651 -1.5304 -1.2610 -0.3352
 7325SOL     OW26821   1.072   1.051   4.762 -0.3725 -0.3006 -0.0403
 7325SOL    HW126822   1.092   1.008   4.845 -1.1798  1.4177  1.0917
 7325SOL    HW226823   0.994   1.006   4.730 -1.0952  0.1490  1.0312
 7326SOL     OW26824   3.401   2.009   2.710  0.2176 -0.3658  0.0225
 7326SOL    HW126825   3.425   2.009   2.803  0.3913 -0.3356 -0.0213
 7326SOL    HW226826   3.424   1.921   2.680 -0.2977 -0.5331  0.1249
 7327SOL     OW26827   2.937   3.648   2.354  0.2165  0.2181 -0.7513
 7327SOL    HW126828   2.894   3.648   2.268 -1.2698  0.2342 -0.0315
 7327SOL    HW226829   2.908   3.567   2.395 -1.7124  1.7326  0.9884
 7328SOL     OW26830   1.894   3.690   5.271 -0.4063  0.7937  0.5522
 7328SOL    HW126831   1.803   3.661   5.281 -0.3224  0.7881  1.4007
 7328SOL    HW226832   1.934   3.624   5.215 -1.3636  1.7371 -1.2762
 7329SOL     OW26833   3.798   2.942   3.960 -0.0104  0.0652 -0.3064
 7329SOL    HW126834   3.740   2.893   3.900  1.5329  0.0326 -1.8068
 7329SOL    HW226835   3.739   2.977   4.027 -1.8275  0.2840 -1.9677
 7330SOL     OW26836   1.766   2.508   5.999  0.8321  0.2101 -0.2030
 7330SOL    HW126837   1.751   2.476   6.088 -0.2233  2.4662  0.4733
 7330SOL    HW226838   1.707   2.457   5.945  0.9160 -0.6496  0.5057
 7331SOL     OW26839   2.173   2.192   4.315  0.1368 -1.0449 -0.4186
 7331SOL    HW126840   2.115   2.179   4.390  0.1271 -1.2529 -0.4613
 7331SOL    HW226841   2.257   2.215   4.353 -0.4682  1.2944 -0.3893
 7332SOL     OW26842   2.029   3.779   3.037  0.3471  0.2974 -0.5050
 7332SOL    HW126843   2.076   3.783   2.954  1.7889  2.3198  0.3484
 7332SOL    HW226844   2.098   3.775   3.103 -0.7184  0.8914  0.6817
 7333SOL     OW26845   3.733   0.567   4.410 -0.4031  1.1310  0.7208
 7333SOL    HW126846   3.752   0.557   4.317 -2.1577 -1.0733  0.5644
 7333SOL    HW226847   3.819   0.575   4.452  0.4409  0.8684 -0.9444
 7334SOL     OW26848   1.332   2.416   4.047  0.0119 -0.0610  0.0739
 7334SOL    HW126849   1.380   2.431   3.966 -1.0346 -0.0709 -0.5677
 7334SOL    HW226850   1.240   2.413   4.019 -0.2818 -1.0270  1.1206
 7335SOL     OW26851   2.115   1.958   6.041  0.1446 -0.3547 -0.1192
 7335SOL    HW126852   2.153   1.871   6.051 -2.4898 -1.5399  0.1999
 7335SOL    HW226853   2.174   2.016   6.088  0.9723 -2.2500  1.2356
 7336SOL     OW26854   3.238   2.146   5.681  0.3740 -0.0413 -0.2862
 7336SOL    HW126855   3.163   2.090   5.700  1.4899 -0.7820  2.1953
 7336SOL    HW226856   3.238   2.210   5.752  1.3794  0.7003 -0.9455
 7337SOL     OW26857   4.444   2.405   4.805 -0.3719  0.4870  0.1588
 7337SOL    HW126858   4.512   2.338   4.808  0.3611  1.2079 -0.0513
 7337SOL    HW226859   4.375   2.367   4.751 -1.2224 -1.2240  2.3701
 7338SOL     OW26860   2.049   2.996   4.168 -0.7848  0.3061 -0.1888
 7338SOL    HW126861   2.039   2.901   4.179  0.9476  0.2156  0.7490
 7338SOL    HW226862   2.027   3.032   4.253  2.5939  0.3990  0.7156
 7339SOL     OW26863   0.048   1.394   2.917  0.1474  0.0081  0.3813
 7339SOL    HW126864  -0.013   1.350   2.975  0.2831 -0.1511  0.4056
 7339SOL    HW226865   0.034   1.488   2.933 -0.7189 -0.0120 -0.2674
 7340SOL     OW26866   1.318   2.556   3.759 -0.6433  0.0104 -0.9484
 7340SOL    HW126867   1.246   2.608   3.793 -0.1520 -0.4133  0.8078
 7340SOL    HW226868   1.310   2.562   3.664 -1.6916  1.7418 -0.7635
 7341SOL     OW26869   2.906   1.234   7.147  0.1517  0.1407  0.0177
 7341SOL    HW126870   2.823   1.277   7.164 -0.6332 -0.5142 -1.9107
 7341SOL    HW226871   2.905   1.217   7.052  1.9568 -0.9301  0.1563
 7342SOL     OW26872   2.797   3.303   3.285  0.2960  0.0292  0.1677
 7342SOL    HW126873   2.856   3.227   3.290  0.1007 -0.1986 -0.7585
 7342SOL    HW226874   2.818   3.343   3.200  1.2801  1.7523  1.2128
 7343SOL     OW26875   0.768   1.287   6.724 -0.1404  0.0846  0.4674
 7343SOL    HW126876   0.753   1.379   6.745 -0.4049  0.1574 -0.0208
 7343SOL    HW226877   0.698   1.265   6.662 -0.7102 -0.7386  1.3941
 7344SOL     OW26878   2.656   2.003   3.577  0.0521  0.0944 -0.1415
 7344SOL    HW126879   2.620   1.958   3.500 -0.7230  0.1691  0.1672
 7344SOL    HW226880   2.581   2.052   3.612  0.8085  1.4106 -0.3233
 7345SOL     OW26881   1.111   2.916   6.012  0.3585 -0.2347  0.0922
 7345SOL    HW126882   1.059   2.839   6.037  0.8949 -0.2863  1.0583
 7345SOL    HW226883   1.049   2.989   6.019 -0.1151 -0.5484 -0.6917
 7346SOL     OW26884   3.803   2.954   5.303 -0.2052  0.1202  0.9994
 7346SOL    HW126885   3.807   2.986   5.393 -1.3726  1.8825  0.4466
 7346SOL    HW226886   3.739   2.882   5.306 -0.4317  0.3405  1.5297
 7347SOL     OW26887   0.851   2.014   5.108 -0.0659  0.3303  0.6798
 7347SOL    HW126888   0.906   2.079   5.153  1.6366 -1.7056  1.6405
 7347SOL    HW226889   0.764   2.025   5.146  0.1763  2.1034  0.7544
 7348SOL     OW26890   1.295   3.344   5.100  0.1439  0.1565 -0.1610
 7348SOL    HW126891   1.292   3.270   5.040 -0.3558  1.1891 -1.4280
 7348SOL    HW226892   1.219   3.397   5.077  1.5227  2.0186 -0.5117
 7349SOL     OW26893   2.735   3.337   5.519  0.3283 -0.2352  0.0293
 7349SOL    HW126894   2.826   3.364   5.536  1.4210 -3.0555 -1.0447
 7349SOL    HW226895   2.702   3.309   5.605  0.5498  0.5547  0.3765
 7350SOL     OW26896   3.424   0.881   3.911 -0.3997  0.1978  0.8515
 7350SOL    HW126897   3.506   0.843   3.942 -0.1290 -0.9624 -1.2373
 7350SOL    HW226898   3.426   0.972   3.943  2.5609  0.7338 -0.7455
 7351SOL     OW26899   2.398   2.075   3.948 -0.0101 -0.0592  0.4954
 7351SOL    HW126900   2.482   2.034   3.967  0.1684  0.2325  0.3571
 7351SOL    HW226901   2.407   2.164   3.984  0.2346  0.4072 -0.6743
 7352SOL     OW26902   1.713   2.918   4.289 -0.0755 -0.2309  0.1129
 7352SOL    HW126903   1.724   2.833   4.331  0.6146  0.2673  0.9494
 7352SOL    HW226904   1.624   2.946   4.313  0.6595  0.4809  2.0375
 7353SOL     OW26905   1.815   3.250   6.896 -0.0674  0.0261 -0.1066
 7353SOL    HW126906   1.837   3.232   6.805  2.0699  0.7869  0.2264
 7353SOL    HW226907   1.899   3.257   6.941 -1.0469  0.7936  1.7147
 7354SOL     OW26908   1.977   4.750   2.826  0.1756 -0.0371 -0.1034
 7354SOL    HW126909   2.020   4.732   2.909  1.1505  0.0325 -0.5933
 7354SOL    HW226910   1.883   4.752   2.848  0.3779 -0.7124  0.8583
 7355SOL     OW26911   2.920   4.162   3.687 -0.0160  0.0943  0.4759
 7355SOL    HW126912   2.836   4.141   3.646  0.1154 -1.9903  1.2263
 7355SOL    HW226913   2.971   4.203   3.617 -0.0689 -2.6824 -1.2761
 7356SOL     OW26914   1.245   4.349   6.280  0.3033 -0.4556  0.6872
 7356SOL    HW126915   1.315   4.392   6.230  0.2736 -2.3172 -1.0344
 7356SOL    HW226916   1.239   4.262   6.242 -1.6087 -1.0017  2.1682
 7357SOL     OW26917   1.321   1.791   4.427 -0.2290  0.2247 -0.4036
 7357SOL    HW126918   1.286   1.788   4.516 -1.2127  0.1638 -0.7839
 7357SOL    HW226919   1.410   1.758   4.435 -1.1896 -2.3523  0.1344
 7358SOL     OW26920   2.619   2.740   6.572 -0.2859 -0.2267 -0.2738
 7358SOL    HW126921   2.615   2.648   6.545  1.1291 -0.5460  0.5622
 7358SOL    HW226922   2.654   2.738   6.661 -0.1270  1.1344 -0.2901
 7359SOL     OW26923   2.853   1.874   5.508  0.0236  0.5096 -0.0500
 7359SOL    HW126924   2.777   1.816   5.514  0.8476 -0.4156  2.3494
 7359SOL    HW226925   2.817   1.958   5.479 -1.6426 -0.3734 -0.6136
 7360SOL     OW26926   1.756   2.076   4.433 -0.4195 -0.1293  0.5902
 7360SOL    HW126927   1.763   2.083   4.528  1.4057  2.7222  0.3045
 7360SOL    HW226928   1.834   2.028   4.405 -0.0665  0.5501  0.3962
 7361SOL     OW26929   1.411   2.353   4.526  0.3100 -0.9861 -0.0468
 7361SOL    HW126930   1.351   2.427   4.519  1.4538 -0.0700 -0.4719
 7361SOL    HW226931   1.359   2.276   4.501 -1.4077 -0.5953  2.2064
 7362SOL     OW26932   2.533   3.259   5.730  0.0695  0.6456 -0.0452
 7362SOL    HW126933   2.458   3.314   5.710 -0.8995  0.4977  2.9435
 7362SOL    HW226934   2.495   3.178   5.765  1.6063  0.7172  1.8708
 7363SOL     OW26935   2.554   4.019   5.164 -0.0166 -0.6192 -0.4267
 7363SOL    HW126936   2.540   3.965   5.242 -2.5561  0.0893 -0.3398
 7363SOL    HW226937   2.638   3.990   5.129  0.4942 -1.9001  1.8028
 7364SOL     OW26938   2.508   0.850   4.758  0.2539 -0.0087  0.1976
 7364SOL    HW126939   2.477   0.760   4.768 -3.0141  1.0844  0.5856
 7364SOL    HW226940   2.444   0.902   4.806  1.5188  2.6211 -0.8863
 7365SOL     OW26941   2.906   2.490   5.224 -0.7232  0.2269 -0.2339
 7365SOL    HW126942   2.834   2.472   5.164  0.3417  0.8942 -1.7421
 7365SOL    HW226943   2.985   2.484   5.170  0.3817 -0.5751  1.4038
 7366SOL     OW26944   2.447   3.946   3.155  0.5427 -0.0624 -0.0387
 7366SOL    HW126945   2.480   3.929   3.243 -1.1447 -2.1148  0.2300
 7366SOL    HW226946   2.504   3.894   3.098  0.7027  0.0837 -0.0116
 7367SOL     OW26947   3.322   4.135   3.367  0.0103  0.7739 -0.5510
 7367SOL    HW126948   3.393   4.188   3.402 -1.0338  1.9786 -0.2064
 7367SOL    HW226949   3.275   4.103   3.445 -0.5287  0.9646 -0.7984
 7368SOL     OW26950   3.040   3.706   5.655  0.4796 -0.0402  0.6704
 7368SOL    HW126951   3.103   3.706   5.728  0.5016 -0.3685  0.6514
 7368SOL    HW226952   3.094   3.698   5.577  0.4939  0.8619  0.5825
 7369SOL     OW26953   4.226   1.334   4.126  0.2545  0.1111 -0.3881
 7369SOL    HW126954   4.272   1.271   4.070  0.9255  0.5316 -0.3120
 7369SOL    HW226955   4.176   1.389   4.065  2.3968  1.7213 -0.7249
 7370SOL     OW26956   4.146   0.257   4.109  0.0066 -0.2530  0.0373
 7370SOL    HW126957   4.076   0.195   4.089  0.9600 -1.8364  1.4051
 7370SOL    HW226958   4.217   0.202   4.143  0.4951  1.6836  2.2670
 7371SOL     OW26959   2.828   2.448   3.673  0.1034 -0.5363  0.2303
 7371SOL    HW126960   2.753   2.415   3.623  0.1799 -0.0358 -0.2244
 7371SOL    HW226961   2.881   2.370   3.689  0.2990 -0.6413 -0.8696
 7372SOL     OW26962   1.640   4.611   4.251 -0.4164 -0.3489  0.1673
 7372SOL    HW126963   1.563   4.644   4.204 -0.5769 -1.1291 -0.1408
 7372SOL    HW226964   1.604   4.571   4.330 -0.3447 -0.7812 -0.0131
 7373SOL     OW26965   2.844   2.913   6.512 -0.6785 -0.8276  0.2225
 7373SOL    HW126966   2.801   2.986   6.557  1.1557 -0.1624  0.9625
 7373SOL    HW226967   2.814   2.835   6.559  0.7507 -0.1882  2.2828
 7374SOL     OW26968   2.674   1.775   6.280 -0.0993  0.0274  0.0506
 7374SOL    HW126969   2.769   1.760   6.280 -0.2302 -0.8888 -1.5593
 7374SOL    HW226970   2.654   1.796   6.371  1.6005 -0.1101  0.4874
 7375SOL     OW26971   1.647   2.805   8.000  0.4112 -0.2886  0.1082
 7375SOL    HW126972   1.644   2.741   8.071  0.4892 -0.9107 -0.4400
 7375SOL    HW226973   1.555   2.819   7.977  0.4309 -0.8071 -0.2989
 7376SOL     OW26974   3.029   2.719   5.665  0.0294 -0.0390 -0.7693
 7376SOL    HW126975   2.998   2.734   5.576 -1.2703  2.6073  0.0600
 7376SOL    HW226976   2.980   2.642   5.695  0.6694 -1.0940 -2.4001
 7377SOL     OW26977   3.126   3.239   6.957  0.1190  0.4336 -0.3971
 7377SOL    HW126978   3.083   3.319   6.989 -1.3435 -2.0776  4.4270
 7377SOL    HW226979   3.055   3.186   6.921  0.3642 -0.5075  0.4915
 7378SOL     OW26980   4.464   1.006   5.890 -0.2549  0.1327  0.0108
 7378SOL    HW126981   4.497   0.932   5.940  1.3940  1.4968  0.9764
 7378SOL    HW226982   4.377   1.023   5.926 -0.3573 -0.8784  0.2488
 7379SOL     OW26983   4.009   3.520   8.837 -0.6900  0.2048 -0.3405
 7379SOL    HW126984   3.951   3.455   8.799  1.1663 -1.0667 -1.0597
 7379SOL    HW226985   4.025   3.582   8.766 -1.4104  0.7311 -0.0465
 7380SOL     OW26986   3.354   1.257   8.506 -0.5265 -0.0182  0.3301
 7380SOL    HW126987   3.258   1.257   8.502 -0.5321 -1.5497  0.1129
 7380SOL    HW226988   3.382   1.233   8.418  0.0935  1.1682  0.1897
 7381SOL     OW26989   1.035   4.587   4.982 -0.5403  0.2072 -0.0916
 7381SOL    HW126990   1.066   4.673   5.010 -1.5746  1.3697 -2.3853
 7381SOL    HW226991   1.112   4.545   4.943 -0.2393  0.4163  0.2763
 7382SOL     OW26992   0.433   2.564   8.538 -0.1144 -0.1765 -0.7818
 7382SOL    HW126993   0.376   2.624   8.587  0.0739 -1.0846  0.5749
 7382SOL    HW226994   0.476   2.620   8.473 -1.0522  0.8826 -0.5077
 7383SOL     OW26995   1.999   3.842   5.940 -0.4851  0.2394  0.5241
 7383SOL    HW126996   1.925   3.879   5.987  0.0799 -0.2308  1.7914
 7383SOL    HW226997   1.960   3.785   5.874 -1.2479  0.0510  1.1392
 7384SOL     OW26998   1.195   2.549   7.945  0.1206  0.4844  0.0874
 7384SOL    HW126999   1.177   2.471   7.998  2.2290  0.6298  1.0716
 7384SOL    HW227000   1.180   2.622   8.004 -1.5088  0.8229 -0.7333
 7385SOL     OW27001   2.583   2.016   6.559 -0.0339 -0.0076  0.2493
 7385SOL    HW127002   2.620   1.992   6.475  2.2669  1.1582  0.8927
 7385SOL    HW227003   2.509   2.073   6.537 -1.4293 -2.2278 -1.0310
 7386SOL     OW27004   2.066   3.413   4.863  0.4951 -0.2798  0.6114
 7386SOL    HW127005   2.066   3.377   4.774 -0.7996  1.3333 -0.0871
 7386SOL    HW227006   2.105   3.345   4.917  1.9096 -1.0320 -1.3097
 7387SOL     OW27007   2.238   3.121   5.872  0.0175 -0.4268 -0.0751
 7387SOL    HW127008   2.238   3.197   5.815 -1.8125  0.5360  1.1674
 7387SOL    HW227009   2.325   3.083   5.861 -0.2456 -0.1787 -3.3294
 7388SOL     OW27010   2.470   3.638   6.587  0.0720 -0.3349 -0.3121
 7388SOL    HW127011   2.463   3.604   6.498  1.9002  3.2503 -1.9664
 7388SOL    HW227012   2.555   3.608   6.618 -0.1931 -0.8779 -0.1182
 7389SOL     OW27013   1.612   2.007   6.227  0.1302 -0.1473  0.3514
 7389SOL    HW127014   1.556   2.083   6.214 -0.3845 -0.6395 -0.3663
 7389SOL    HW227015   1.686   2.021   6.168  0.0677 -0.1677  0.2673
 7390SOL     OW27016   0.743   2.950   7.377  0.4073  0.0264  0.0032
 7390SOL    HW127017   0.702   3.027   7.415 -0.8582 -1.5780  2.0351
 7390SOL    HW227018   0.735   2.962   7.283  0.8353  2.6555  0.2741
 7391SOL     OW27019   2.889   3.079   8.366  0.4695  0.4387 -0.3934
 7391SOL    HW127020   2.927   3.002   8.408  0.0437 -0.4834 -1.6795
 7391SOL    HW227021   2.812   3.099   8.418 -0.0899 -0.7332 -0.7573
 7392SOL     OW27022   2.614   3.399   6.112 -0.4727  0.4249 -0.3609
 7392SOL    HW127023   2.530   3.371   6.148 -0.3383 -1.3963 -1.4414
 7392SOL    HW227024   2.591   3.440   6.029 -0.5369  2.4876  0.6226
 7393SOL     OW27025   3.851   2.381   7.763 -0.3301  0.1914 -0.1482
 7393SOL    HW127026   3.880   2.307   7.709  2.0004  0.3564  0.8233
 7393SOL    HW227027   3.930   2.411   7.808 -1.5492  2.2942  0.6780
 7394SOL     OW27028   1.460   2.693   6.490  0.4980 -0.4447 -0.5408
 7394SOL    HW127029   1.485   2.777   6.528 -1.4039  0.0307 -0.2681
 7394SOL    HW227030   1.536   2.637   6.504  1.4666  0.9774  0.0501
 7395SOL     OW27031   1.654   2.990   6.159  0.2268  0.2232 -0.6315
 7395SOL    HW127032   1.597   3.065   6.141 -1.1766 -0.6212  0.1515
 7395SOL    HW227033   1.608   2.915   6.122 -0.2940 -0.7941  1.9712
 7396SOL     OW27034   2.037   3.135   6.402  0.7946 -0.0814 -0.1906
 7396SOL    HW127035   2.087   3.094   6.473  1.5267  0.6971 -0.2429
 7396SOL    HW227036   2.084   3.108   6.322  1.0418  0.5107 -0.2507
 7397SOL     OW27037   3.914   2.632   5.606  0.2004 -0.5117 -0.5543
 7397SOL    HW127038   3.930   2.725   5.594 -2.4941  0.2497  1.3146
 7397SOL    HW227039   3.962   2.610   5.686 -2.7648  0.3747  1.5678
 7398SOL     OW27040   1.802   3.654   4.815 -0.0579 -0.3224  0.3428
 7398SOL    HW127041   1.743   3.706   4.870 -1.9830 -1.6213 -0.4213
 7398SOL    HW227042   1.811   3.571   4.862 -0.5542 -0.9056 -0.5786
 7399SOL     OW27043   1.847   2.749   6.521  0.0916 -0.5108  0.4344
 7399SOL    HW127044   1.937   2.732   6.494 -0.1467  0.5667 -1.0990
 7399SOL    HW227045   1.826   2.834   6.482 -1.5036 -0.6254  1.0111
 7400SOL     OW27046   0.989   3.661   7.884  0.2751 -0.2041  0.7756
 7400SOL    HW127047   1.082   3.669   7.906  0.0239 -0.0693  1.8405
 7400SOL    HW227048   0.987   3.647   7.789  1.2036  3.4184  0.1491
 7401SOL     OW27049   2.027   2.459   6.330  0.3163  0.0922  0.0598
 7401SOL    HW127050   2.117   2.433   6.349  0.6297 -0.2810 -1.8144
 7401SOL    HW227051   2.034   2.516   6.254 -1.3484 -3.4037 -2.9318
 7402SOL     OW27052   2.559   1.579   4.254  0.3137 -0.1286  0.0511
 7402SOL    HW127053   2.473   1.552   4.288 -0.4060 -0.3462 -1.8866
 7402SOL    HW227054   2.579   1.660   4.300 -2.1478  1.3350 -1.3371
 7403SOL     OW27055   3.077   3.800   6.831  0.0722 -0.0871 -0.1450
 7403SOL    HW127056   3.170   3.819   6.835  0.3012 -0.8087 -1.5448
 7403SOL    HW227057   3.034   3.881   6.859  1.0944  0.8274 -1.1672
 7404SOL     OW27058   3.441   1.604   5.132  0.1127  0.0947 -0.3078
 7404SOL    HW127059   3.406   1.516   5.117  0.5901 -0.2590  0.6143
 7404SOL    HW227060   3.534   1.590   5.150  0.4256  0.8927 -1.2523
 7405SOL     OW27061   3.638   3.866   6.788 -0.0531  0.3655 -0.3360
 7405SOL    HW127062   3.558   3.819   6.811  0.4474 -1.4111 -2.0927
 7405SOL    HW227063   3.683   3.878   6.871 -0.7236 -1.3127  0.2926
 7406SOL     OW27064   1.822   2.115   6.120 -0.4393  0.2982  0.2035
 7406SOL    HW127065   1.884   2.089   6.188  1.1124  0.1502 -1.2240
 7406SOL    HW227066   1.875   2.123   6.041 -2.7266 -3.0674 -1.8152
 7407SOL     OW27067   0.930   3.101   7.882  0.1459  0.2425 -0.3116
 7407SOL    HW127068   0.999   3.076   7.944 -0.0017  2.3716  0.7419
 7407SOL    HW227069   0.936   3.035   7.813  2.7791 -0.0256  0.1016
 7408SOL     OW27070   2.612   1.377   6.713  0.1826  0.6234  0.0838
 7408SOL    HW127071   2.530   1.345   6.751 -0.1811  1.4328  0.0012
 7408SOL    HW227072   2.610   1.471   6.731  1.6828  0.4603  1.1669
 7409SOL     OW27073   4.476   3.192   5.382  0.0363  0.8852 -0.2735
 7409SOL    HW127074   4.435   3.249   5.317  0.2178 -0.1166 -1.3024
 7409SOL    HW227075   4.533   3.134   5.330  0.3178  0.1868  0.7972
 7410SOL     OW27076   2.983   2.553   6.814 -0.1317  0.6298 -0.3471
 7410SOL    HW127077   2.992   2.459   6.797 -0.5895  0.4270  0.5424
 7410SOL    HW227078   2.962   2.590   6.728 -0.9320 -0.2110 -0.5253
 7411SOL     OW27079   2.034   1.623   7.374 -0.1642  0.1547  0.3389
 7411SOL    HW127080   1.998   1.537   7.398  2.6461 -0.8939  1.1027
 7411SOL    HW227081   2.049   1.618   7.280 -0.8309  0.1420  0.2325
 7412SOL     OW27082   2.215   1.367   8.134 -0.5873 -0.1653 -0.1600
 7412SOL    HW127083   2.153   1.420   8.084  1.4548  3.0524  0.5285
 7412SOL    HW227084   2.244   1.300   8.073  0.0420  2.2184 -2.6004
 7413SOL     OW27085   3.062   3.521   6.928 -0.0539 -0.0135  0.1059
 7413SOL    HW127086   3.077   3.610   6.895  0.4335 -0.3253 -0.5150
 7413SOL    HW227087   2.969   3.506   6.913 -0.0044  0.1529 -0.3989
 7414SOL     OW27088   1.672   1.618   7.092  0.5300  0.0306  0.1036
 7414SOL    HW127089   1.722   1.697   7.108 -0.9270  1.2025 -0.9612
 7414SOL    HW227090   1.737   1.552   7.069  1.6831  1.1362  0.1687
 7415SOL     OW27091   1.702   1.530   5.811  0.0271  0.6513  0.3712
 7415SOL    HW127092   1.672   1.558   5.898 -1.0414 -0.5164  0.3835
 7415SOL    HW227093   1.778   1.475   5.828  1.0331  2.0245  0.4427
 7416SOL     OW27094   2.718   3.180   6.669  0.3789  0.2803 -0.0574
 7416SOL    HW127095   2.638   3.150   6.712 -0.0063  0.4644 -0.6358
 7416SOL    HW227096   2.687   3.225   6.590  1.1378 -1.5576 -1.4320
 7417SOL     OW27097   0.403   2.029   7.990  0.4583 -0.3708  0.3882
 7417SOL    HW127098   0.325   2.059   7.943 -0.1622  0.0218  1.6473
 7417SOL    HW227099   0.464   2.102   7.986  0.9726 -0.8561 -1.0253
 7418SOL     OW27100   3.136   1.784   5.875  0.0708 -0.3311 -0.1202
 7418SOL    HW127101   3.088   1.860   5.843 -0.6533 -1.5260 -1.9288
 7418SOL    HW227102   3.072   1.713   5.876  0.1332 -0.4334  3.7933
 7419SOL     OW27103   4.679   2.771   7.886 -0.1894  0.4480  0.0741
 7419SOL    HW127104   4.585   2.787   7.894 -0.2456 -1.0375  2.6817
 7419SOL    HW227105   4.705   2.732   7.969  2.8433  1.2392 -0.4230
 7420SOL     OW27106   2.810   3.339   6.460  0.3810 -0.6534  0.5641
 7420SOL    HW127107   2.905   3.347   6.452  0.4042 -1.9205 -0.7228
 7420SOL    HW227108   2.775   3.411   6.407  0.6242 -0.0874  1.1747
 7421SOL     OW27109   3.190   2.296   5.896  0.5071 -0.5495  0.0255
 7421SOL    HW127110   3.240   2.364   5.941  0.8579 -1.7165  1.4501
 7421SOL    HW227111   3.128   2.265   5.962  0.3361 -1.5883 -0.6131
 7422SOL     OW27112   2.353   2.689   6.530 -0.0102 -0.8317  0.1141
 7422SOL    HW127113   2.330   2.657   6.443 -0.3566  0.6645 -0.3587
 7422SOL    HW227114   2.446   2.712   6.523  0.0040 -0.8677  0.1860
 7423SOL     OW27115   0.988   3.233   8.263 -0.5398 -0.6199  0.0647
 7423SOL    HW127116   1.022   3.180   8.191 -1.8247 -0.8468 -0.3853
 7423SOL    HW227117   0.899   3.202   8.276 -0.1795 -0.8811  2.0545
 7424SOL     OW27118   1.385   2.999   5.942 -0.5062 -0.4745  0.1872
 7424SOL    HW127119   1.300   2.983   5.982 -1.0327 -1.9454 -1.4844
 7424SOL    HW227120   1.384   2.949   5.861  1.5160  0.4170 -0.4299
 7425SOL     OW27121   1.107   4.016   5.738 -0.3662  0.5007 -0.1533
 7425SOL    HW127122   1.184   3.981   5.783 -0.1118  0.7534 -0.3906
 7425SOL    HW227123   1.071   3.941   5.691 -0.5515  0.2696  0.3643
 7426SOL     OW27124   1.697   3.886   7.147  0.0668 -0.2938 -0.2777
 7426SOL    HW127125   1.616   3.856   7.190 -0.5831  1.0629 -0.5270
 7426SOL    HW227126   1.702   3.979   7.169  2.3697 -0.6943  0.9820
 7427SOL     OW27127   1.667   2.546   6.414 -0.0732  0.8269  0.2926
 7427SOL    HW127128   1.715   2.487   6.356  1.5076  0.2796  2.1211
 7427SOL    HW227129   1.726   2.621   6.426 -1.2761  1.9201 -0.4958
 7428SOL     OW27130   3.535   2.727   4.336 -0.0890 -0.1332  0.3890
 7428SOL    HW127131   3.519   2.815   4.370 -0.3563  0.9864 -2.5352
 7428SOL    HW227132   3.622   2.731   4.296  0.1885 -1.3932  0.8351
 7429SOL     OW27133   1.909   3.182   5.881  0.1669  0.1693  0.0364
 7429SOL    HW127134   1.895   3.271   5.848 -1.3572 -0.8514 -2.1586
 7429SOL    HW227135   2.003   3.167   5.871  0.2279  1.0755 -0.7872
 7430SOL     OW27136   1.591   4.452   7.627 -0.2209 -0.0235  0.3259
 7430SOL    HW127137   1.651   4.506   7.678 -0.1963  0.0368  0.2314
 7430SOL    HW227138   1.648   4.397   7.573 -0.2034 -1.1609  1.4695
 7431SOL     OW27139   2.655   2.675   5.620  0.9879 -0.2436 -0.5451
 7431SOL    HW127140   2.651   2.764   5.586  1.5270  0.2138  0.5747
 7431SOL    HW227141   2.724   2.633   5.568  0.3325 -0.2043 -1.4772
 7432SOL     OW27142   2.710   1.718   5.301 -0.0834 -0.3127  0.5860
 7432SOL    HW127143   2.651   1.670   5.358 -0.7637  0.5906  0.6537
 7432SOL    HW227144   2.665   1.721   5.216 -0.6657  1.3313  0.9274
 7433SOL     OW27145   2.188   2.304   5.370  0.2633 -0.2762 -0.0647
 7433SOL    HW127146   2.271   2.351   5.359  1.1290 -1.9630 -0.9209
 7433SOL    HW227147   2.152   2.338   5.452  1.2326  1.3227 -0.2808
 7434SOL     OW27148   2.443   0.493   5.795 -0.5568 -0.2732 -0.3969
 7434SOL    HW127149   2.400   0.482   5.880  0.4788  0.4822  0.2323
 7434SOL    HW227150   2.494   0.413   5.784 -2.1513 -1.2112 -1.1848
 7435SOL     OW27151   1.856   2.757   7.788 -0.4264  0.2882 -0.6410
 7435SOL    HW127152   1.847   2.801   7.872  2.4807  0.4696 -0.3727
 7435SOL    HW227153   1.830   2.666   7.804 -0.1116  0.3836  0.4001
 7436SOL     OW27154   1.740   3.581   6.952  0.5692  0.5362 -0.3950
 7436SOL    HW127155   1.687   3.533   6.889 -0.7386 -0.0906  1.1386
 7436SOL    HW227156   1.697   3.666   6.960 -0.4607 -0.1064  1.1300
 7437SOL     OW27157   4.177   2.577   4.761 -0.1364  0.5686  0.5750
 7437SOL    HW127158   4.157   2.492   4.799 -0.3095  0.0249 -0.6931
 7437SOL    HW227159   4.267   2.568   4.728 -0.1076  0.9151  0.5547
 7438SOL     OW27160   4.706   2.784   6.791 -0.1908  0.4386  0.1412
 7438SOL    HW127161   4.783   2.744   6.750  1.4904  2.9733  0.7230
 7438SOL    HW227162   4.648   2.805   6.718  0.4965  0.2499 -0.4680
 7439SOL     OW27163   1.606   2.006   6.488 -0.4851 -0.1310 -0.1457
 7439SOL    HW127164   1.614   1.914   6.514  0.6649  0.5213  1.8893
 7439SOL    HW227165   1.606   2.003   6.392 -3.4225 -2.4767 -0.1565
 7440SOL     OW27166   1.892   1.123   7.495  0.1601 -0.3496  0.1081
 7440SOL    HW127167   1.896   1.038   7.452  2.0559 -0.9123  1.3473
 7440SOL    HW227168   1.895   1.102   7.589 -2.0022  0.9489  0.5095
 7441SOL     OW27169   2.927   2.967   4.323 -0.0291  0.1781 -0.1200
 7441SOL    HW127170   2.852   2.957   4.380 -0.9117  1.0575 -1.1088
 7441SOL    HW227171   2.973   3.044   4.356  0.5081 -0.4295  0.5578
 7442SOL     OW27172   1.251   1.208   6.415  0.3204  0.0415 -0.2781
 7442SOL    HW127173   1.176   1.198   6.473  0.2290 -0.7980 -0.5347
 7442SOL    HW227174   1.279   1.299   6.427  0.1933 -0.0769  0.9429
 7443SOL     OW27175   3.680   3.261   5.527 -0.1321 -0.1869  0.3322
 7443SOL    HW127176   3.705   3.170   5.542 -0.6599 -0.4764 -0.5177
 7443SOL    HW227177   3.754   3.299   5.481 -1.5717 -1.3069 -3.0991
 7444SOL     OW27178   3.026   3.100   6.389 -0.4788 -0.2228  0.3044
 7444SOL    HW127179   3.052   3.160   6.459 -1.1902 -0.7623  1.0363
 7444SOL    HW227180   2.955   3.048   6.426 -0.7741 -0.6170 -0.7692
 7445SOL     OW27181   0.075   2.473   8.620  0.1004 -0.1580 -0.1626
 7445SOL    HW127182   0.036   2.446   8.702 -0.2668 -1.1585 -0.6638
 7445SOL    HW227183   0.001   2.483   8.560  0.5247 -1.1951 -0.8676
 7446SOL     OW27184   5.078   3.122   7.293 -0.0827 -0.9463 -0.1144
 7446SOL    HW127185   5.172   3.120   7.274  0.0671 -2.1476  0.6990
 7446SOL    HW227186   5.038   3.079   7.218 -0.0741  0.3994 -0.9083
 7447SOL     OW27187   2.694   9.707   5.163 -0.0633  0.1425 -0.5970
 7447SOL    HW127188   2.780   9.722   5.125  0.8172 -1.4471  0.7049
 7447SOL    HW227189   2.685   9.776   5.230  0.3054  0.1383 -0.5455
 7448SOL     OW27190   0.477   1.785   6.698 -0.0621 -0.3885 -0.2275
 7448SOL    HW127191   0.439   1.857   6.748 -0.0688 -1.7130  1.7460
 7448SOL    HW227192   0.566   1.814   6.678  0.7467 -0.7476  2.6164
 7449SOL     OW27193   3.601   1.486   6.588  0.2888 -0.4160  0.1779
 7449SOL    HW127194   3.514   1.510   6.556 -0.4048 -2.1834  0.7234
 7449SOL    HW227195   3.659   1.501   6.513 -0.7848 -1.1039 -0.7929
 7450SOL     OW27196   1.277   0.819   4.826 -0.2301  0.9319  0.1704
 7450SOL    HW127197   1.229   0.757   4.881 -2.1093  1.4908 -0.8109
 7450SOL    HW227198   1.213   0.848   4.761  1.0355  2.8019 -0.2756
 7451SOL     OW27199   3.596   2.646   6.263  0.0622 -0.1073 -0.3899
 7451SOL    HW127200   3.535   2.603   6.323 -0.0074 -0.6801 -0.8601
 7451SOL    HW227201   3.546   2.719   6.227  0.0176  0.0778  0.0487
 7452SOL     OW27202   2.524   2.387   6.553 -0.2825 -0.5175 -0.4288
 7452SOL    HW127203   2.606   2.373   6.508 -0.2629 -1.6221 -0.0534
 7452SOL    HW227204   2.460   2.401   6.484  0.0214 -0.6862 -0.7418
 7453SOL     OW27205   3.385   2.611   6.825  0.6878  0.5227 -0.3121
 7453SOL    HW127206   3.436   2.653   6.894  1.5626 -0.8554 -0.1144
 7453SOL    HW227207   3.395   2.517   6.840 -0.2496  0.2168 -1.4841
 7454SOL     OW27208   1.073   2.579   5.049 -0.2747 -0.2093  0.1002
 7454SOL    HW127209   1.131   2.653   5.034 -0.8392 -0.3443 -2.9210
 7454SOL    HW227210   1.132   2.503   5.052 -0.1122 -0.1323 -1.0992
 7455SOL     OW27211   4.577   2.826   4.840 -0.5244  0.1807 -0.2305
 7455SOL    HW127212   4.602   2.808   4.749  1.8332 -0.9630  0.5959
 7455SOL    HW227213   4.592   2.743   4.885  1.1350  1.5159  1.7703
 7456SOL     OW27214   3.809   1.280   3.847  0.4610 -0.1078  0.3293
 7456SOL    HW127215   3.778   1.190   3.837 -0.6424  0.0695  2.0056
 7456SOL    HW227216   3.870   1.293   3.774 -0.6895 -1.6404 -0.9260
 7457SOL     OW27217   1.611   0.491   5.270  0.3264  0.1073  0.2602
 7457SOL    HW127218   1.660   0.573   5.282  1.2526 -0.6350  1.6682
 7457SOL    HW227219   1.525   0.509   5.307 -0.3048  1.2274 -1.6750
 7458SOL     OW27220   2.722   2.180   6.242  0.1635  0.2645  0.6170
 7458SOL    HW127221   2.813   2.152   6.251  0.0548 -0.0765  0.6931
 7458SOL    HW227222   2.710   2.246   6.310 -0.2650 -1.3003  2.0976
 7459SOL     OW27223   2.743   3.500   8.418  0.1392 -0.6257  0.2106
 7459SOL    HW127224   2.767   3.536   8.333  1.6630 -0.6891  0.5989
 7459SOL    HW227225   2.802   3.425   8.430  0.3643 -0.2474  1.5863
 7460SOL     OW27226   3.088   3.760   8.004 -0.3658  0.1986 -0.2046
 7460SOL    HW127227   3.154   3.744   8.072  1.6654  1.4260 -1.8282
 7460SOL    HW227228   3.084   3.678   7.955  0.1235  0.1860 -0.2288
 7461SOL     OW27229   0.862   4.677   4.788  0.5617 -0.4147 -0.1378
 7461SOL    HW127230   0.910   4.638   4.861  0.4312  2.8445  1.7775
 7461SOL    HW227231   0.830   4.761   4.822 -1.9234 -0.0790 -3.0667
 7462SOL     OW27232   4.442   2.421   6.444 -0.4505 -0.1238 -0.1589
 7462SOL    HW127233   4.360   2.399   6.398 -0.8100  0.3834  0.2370
 7462SOL    HW227234   4.483   2.487   6.389 -0.5074 -0.0823 -0.1530
 7463SOL     OW27235   2.709   3.312   8.021  0.2298 -0.3328  0.3282
 7463SOL    HW127236   2.710   3.377   7.951 -0.4113  0.8127  1.3606
 7463SOL    HW227237   2.724   3.229   7.977 -0.7465  0.3059 -1.2432
 7464SOL     OW27238   1.785   3.783   7.855  0.5684 -0.0636  0.0723
 7464SOL    HW127239   1.699   3.783   7.812  0.5651 -1.1449  0.0618
 7464SOL    HW227240   1.765   3.763   7.947  0.7962 -0.2136  0.0888
 7465SOL     OW27241   1.478   2.141   7.273 -0.2514 -0.0538 -0.0281
 7465SOL    HW127242   1.435   2.062   7.306 -2.4696  0.8561 -0.6280
 7465SOL    HW227243   1.522   2.112   7.193 -1.0430 -0.7143 -0.2431
 7466SOL     OW27244   1.297   3.084   6.740 -0.0825 -0.1878 -0.1531
 7466SOL    HW127245   1.261   3.131   6.664  0.8954  0.5595 -0.1651
 7466SOL    HW227246   1.239   3.009   6.752 -0.8788  0.2916 -0.9724
 7467SOL     OW27247   2.752   1.819   6.807 -0.4007 -0.0506 -0.1682
 7467SOL    HW127248   2.799   1.739   6.831  0.9751 -0.1443 -2.9745
 7467SOL    HW227249   2.797   1.889   6.854  1.6402 -0.3432 -1.6149
 7468SOL     OW27250   1.711   1.919   5.533  0.0191 -0.4261 -0.5396
 7468SOL    HW127251   1.669   2.002   5.511  1.4762  0.4802  0.0438
 7468SOL    HW227252   1.703   1.912   5.628  3.2535  0.9589 -0.0827
 7469SOL     OW27253   2.273   3.446   5.167 -0.3166  0.3952  0.0091
 7469SOL    HW127254   2.262   3.366   5.116 -0.2906 -0.0884  0.7651
 7469SOL    HW227255   2.212   3.508   5.127  0.0237  0.1583 -0.8902
 7470SOL     OW27256   3.095   2.744   7.361  0.2416 -0.0208 -0.0649
 7470SOL    HW127257   3.076   2.736   7.268 -2.3150  0.2228  0.4059
 7470SOL    HW227258   3.086   2.837   7.380  1.1078 -0.0150  0.3719
 7471SOL     OW27259   3.760   2.613   7.343  0.8346 -0.2277 -0.1089
 7471SOL    HW127260   3.773   2.578   7.255  0.1154  1.4574 -0.8913
 7471SOL    HW227261   3.686   2.563   7.377  1.0165 -0.7764 -0.5041
 7472SOL     OW27262   1.698   4.431   7.131 -0.4971  0.0525  0.1365
 7472SOL    HW127263   1.732   4.488   7.200  0.8060 -0.4846 -0.0421
 7472SOL    HW227264   1.771   4.420   7.071 -1.6933  0.6825 -1.4515
 7473SOL     OW27265   3.496   2.004   5.457  0.5757 -0.5975  0.1633
 7473SOL    HW127266   3.569   1.969   5.406 -1.0989 -1.9783 -1.3698
 7473SOL    HW227267   3.448   1.926   5.487 -1.4598  0.3005 -0.6490
 7474SOL     OW27268   1.930   2.232   7.504 -0.1049 -0.1706  0.2075
 7474SOL    HW127269   2.005   2.233   7.445 -0.2730  0.3284 -0.0001
 7474SOL    HW227270   1.909   2.324   7.518 -0.2307 -0.2911  0.8403
 7475SOL     OW27271   1.488   2.128   6.911 -0.3427  0.2487  0.2133
 7475SOL    HW127272   1.558   2.086   6.961  0.3430  0.9772 -0.1239
 7475SOL    HW227273   1.511   2.221   6.911 -1.6836  0.5982  0.7015
 7476SOL     OW27274   3.973   1.544   6.827  0.5667  0.2361  0.8663
 7476SOL    HW127275   3.897   1.601   6.828 -1.5632 -2.4850  1.1664
 7476SOL    HW227276   3.981   1.514   6.737  2.2845  1.7143  0.4886
 7477SOL     OW27277   2.299   1.527   6.778  0.5967  0.3900 -0.2547
 7477SOL    HW127278   2.253   1.511   6.696 -1.0177  1.1635  0.4856
 7477SOL    HW227279   2.299   1.622   6.788 -1.8245  0.2106  2.0628
 7478SOL     OW27280   1.542   1.013   6.444  0.2775  0.3815  0.3455
 7478SOL    HW127281   1.576   0.931   6.479  0.9529  0.7209  0.4978
 7478SOL    HW227282   1.614   1.076   6.456 -0.7213  1.3390  1.5096
 7479SOL     OW27283   3.326   2.136   5.239 -0.2671 -0.0278 -0.0147
 7479SOL    HW127284   3.378   2.062   5.208 -1.5129 -1.2042  0.6239
 7479SOL    HW227285   3.276   2.164   5.163 -0.0912 -0.1077 -0.1589
 7480SOL     OW27286   3.375   3.511   7.273 -0.0689 -0.2319 -0.1989
 7480SOL    HW127287   3.350   3.602   7.257  1.2177  0.0596 -0.6408
 7480SOL    HW227288   3.412   3.511   7.361 -1.0689 -0.5468  0.2261
 7481SOL     OW27289   2.458   1.457   6.475  0.3319  0.2542  0.2425
 7481SOL    HW127290   2.380   1.438   6.528 -0.5605  0.1290 -1.0886
 7481SOL    HW227291   2.501   1.372   6.467  0.0656  0.1290  0.1294
 7482SOL     OW27292   2.495   3.707   6.064 -0.2196 -0.2482 -0.1136
 7482SOL    HW127293   2.554   3.780   6.045  1.0982 -0.8695  1.4027
 7482SOL    HW227294   2.457   3.684   5.980  0.9940  0.8002 -0.9720
 7483SOL     OW27295   2.004   1.723   4.979  0.2918  0.2997 -0.9150
 7483SOL    HW127296   2.095   1.726   5.009  0.8343 -0.1194 -2.4765
 7483SOL    HW227297   1.952   1.721   5.060  1.6879 -0.1110 -0.0130
 7484SOL     OW27298   2.428   3.972   8.148 -0.5363  0.0839  0.0888
 7484SOL    HW127299   2.471   3.895   8.186  0.0766 -0.1483 -1.0683
 7484SOL    HW227300   2.430   4.037   8.218 -0.9452 -0.8989  1.0339
 7485SOL     OW27301   1.311   0.704   5.614 -0.5419  0.0891  0.1135
 7485SOL    HW127302   1.355   0.638   5.560 -1.6519  0.4271 -1.2694
 7485SOL    HW227303   1.239   0.735   5.558 -0.3081  2.1344  0.9137
 7486SOL     OW27304   4.879   2.802   6.360  0.5166  0.6205  0.7627
 7486SOL    HW127305   4.941   2.818   6.431 -0.2974  0.9188  1.4157
 7486SOL    HW227306   4.907   2.719   6.321  1.0420  0.5181  1.3572
 7487SOL     OW27307   4.171   2.763   6.416  0.2342 -0.6736  0.5365
 7487SOL    HW127308   4.154   2.670   6.432 -1.9865 -0.4506 -0.2817
 7487SOL    HW227309   4.138   2.807   6.494  0.2473 -0.4904  0.4380
 7488SOL     OW27310   2.046   3.130   7.383 -0.2165  0.3069 -0.2092
 7488SOL    HW127311   2.029   3.038   7.405 -0.2883  0.3043 -0.2737
 7488SOL    HW227312   2.034   3.177   7.466  0.8917  0.1183  0.0603
 7489SOL     OW27313   3.155   3.443   8.671  0.5673  0.5164  0.4613
 7489SOL    HW127314   3.182   3.535   8.672  2.0404  0.1608 -2.1118
 7489SOL    HW227315   3.236   3.394   8.687 -0.6590 -0.3422  4.5934
 7490SOL     OW27316   2.575   3.452   7.784  0.0990  0.3847 -0.1023
 7490SOL    HW127317   2.580   3.399   7.704 -1.0716 -1.4659  0.9962
 7490SOL    HW227318   2.482   3.473   7.793 -0.0841 -1.1408  1.8218
 7491SOL     OW27319   4.182   1.162   4.617  0.0911  0.2380  0.2433
 7491SOL    HW127320   4.163   1.255   4.628 -3.0900 -0.2605 -0.5646
 7491SOL    HW227321   4.202   1.153   4.524 -0.7175 -0.0324  0.0865
 7492SOL     OW27322   4.497   3.499   4.130  0.1816  0.0099  0.4368
 7492SOL    HW127323   4.526   3.455   4.211 -1.0019 -1.1208  0.2712
 7492SOL    HW227324   4.410   3.464   4.115 -0.3046  1.5555 -0.3869
 7493SOL     OW27325   1.703   2.331   6.869  0.2672  0.1460 -0.2598
 7493SOL    HW127326   1.724   2.369   6.784 -0.9617 -0.7272 -0.9648
 7493SOL    HW227327   1.784   2.290   6.899  0.1661 -1.3045 -1.9329
 7494SOL     OW27328   2.917   1.256   6.058 -0.5263  0.5961  0.6665
 7494SOL    HW127329   2.834   1.213   6.038 -0.3873  0.5536  0.1499
 7494SOL    HW227330   2.911   1.280   6.150 -0.3208 -1.1964  1.1750
 7495SOL     OW27331   2.495   0.973   6.031 -0.9447 -0.3805 -0.1292
 7495SOL    HW127332   2.506   0.879   6.013 -0.7243 -0.1974 -0.9472
 7495SOL    HW227333   2.454   0.975   6.118 -2.1465 -1.2698 -0.6571
 7496SOL     OW27334   3.047   1.472   5.944 -0.2842  0.1273 -0.6394
 7496SOL    HW127335   2.999   1.489   5.863 -0.4236  1.3985 -0.3031
 7496SOL    HW227336   3.020   1.385   5.970  0.5778 -0.7474 -2.5304
 7497SOL     OW27337   4.031   2.884   5.669 -0.2511 -0.0925 -0.7108
 7497SOL    HW127338   3.995   2.860   5.755  1.7503 -4.4037 -0.9387
 7497SOL    HW227339   4.120   2.913   5.688 -0.2922  0.3859 -1.2365
 7498SOL     OW27340   0.709   2.921   6.690  0.2006 -0.1313  0.0984
 7498SOL    HW127341   0.762   2.842   6.685 -1.3633 -1.0807 -2.7874
 7498SOL    HW227342   0.734   2.972   6.612 -0.3249  1.2366  0.8034
 7499SOL     OW27343   2.112   4.276   6.285  0.1107 -0.1280  0.0011
 7499SOL    HW127344   2.031   4.286   6.335  0.2502  0.7825  0.0587
 7499SOL    HW227345   2.088   4.302   6.196  0.6727  1.5874  0.3194
 7500SOL     OW27346   2.429   2.768   5.953  0.3153  0.0015 -0.1803
 7500SOL    HW127347   2.492   2.712   5.999  1.0008  0.5985 -0.3853
 7500SOL    HW227348   2.361   2.708   5.921  0.4077 -0.5499  0.6665
 7501SOL     OW27349   1.084   2.728   5.794  0.4147  0.2792 -0.2005
 7501SOL    HW127350   0.998   2.748   5.758  0.2593 -0.5787 -0.3151
 7501SOL    HW227351   1.092   2.785   5.870 -0.8458 -0.6485  0.6510
 7502SOL     OW27352   2.187   4.193   7.334 -0.1884 -0.3846 -0.4978
 7502SOL    HW127353   2.132   4.270   7.322 -0.0280 -0.3305 -0.9091
 7502SOL    HW227354   2.125   4.122   7.350 -0.2945  0.0023  0.8455
 7503SOL     OW27355   4.144   2.498   6.557  0.1968  0.4550  0.2825
 7503SOL    HW127356   4.056   2.478   6.589  0.0161  0.3554 -0.2851
 7503SOL    HW227357   4.151   2.453   6.473  1.1886 -0.4374  0.8347
 7504SOL     OW27358   3.053   2.373   6.316 -0.0312  0.1787 -0.4802
 7504SOL    HW127359   2.971   2.387   6.268 -1.9384 -2.3140  1.9349
 7504SOL    HW227360   3.071   2.280   6.306  0.0683 -0.1926  2.7442
 7505SOL     OW27361   1.416   1.186   9.570 -0.1995 -0.3792  0.6792
 7505SOL    HW127362   1.362   1.222   9.641 -0.2618  0.8604  0.0116
 7505SOL    HW227363   1.498   1.236   9.575  0.3946 -1.3723  0.8771
 7506SOL     OW27364   3.163   1.308   6.421 -0.1069  0.9769  0.3233
 7506SOL    HW127365   3.180   1.398   6.394 -1.7015  1.4332  0.8074
 7506SOL    HW227366   3.191   1.305   6.512  1.3865  0.5500 -0.1306
 7507SOL     OW27367   2.329   2.783   7.744  0.0852 -0.2932  0.0972
 7507SOL    HW127368   2.298   2.705   7.791 -2.5374  1.1753  0.9084
 7507SOL    HW227369   2.343   2.753   7.654  1.7395 -2.3193  1.0013
 7508SOL     OW27370   1.862   2.180   4.878 -0.3063  0.3058  0.0140
 7508SOL    HW127371   1.793   2.137   4.828  0.6487 -0.4766 -0.6552
 7508SOL    HW227372   1.825   2.265   4.903 -1.4367 -0.0433 -0.4818
 7509SOL     OW27373   1.474   4.059   7.396 -0.5223 -0.6900 -0.0721
 7509SOL    HW127374   1.409   3.989   7.383 -0.2722 -1.1651  1.1399
 7509SOL    HW227375   1.496   4.088   7.308 -1.3928 -1.4485 -0.5491
 7510SOL     OW27376   3.358   1.830   7.085  0.5424 -0.3183 -0.3536
 7510SOL    HW127377   3.304   1.885   7.141 -0.0734 -0.5688 -0.6857
 7510SOL    HW227378   3.338   1.740   7.113 -0.6754 -0.5048 -1.7506
 7511SOL     OW27379   3.368   0.878   5.556  0.0577  0.3610  0.1737
 7511SOL    HW127380   3.459   0.850   5.553  0.4251  1.2393  2.2591
 7511SOL    HW227381   3.361   0.928   5.638 -2.3091  0.2192  0.0827
 7512SOL     OW27382   3.994   2.895   6.925 -0.5176 -0.2009  0.2393
 7512SOL    HW127383   4.084   2.885   6.894 -0.1805 -1.5857  1.6182
 7512SOL    HW227384   3.949   2.817   6.893 -0.9169 -0.1205  0.5950
 7513SOL     OW27385   0.518   2.693   7.230  0.0386 -0.0239 -0.4116
 7513SOL    HW127386   0.435   2.660   7.196  0.0711 -0.3857 -0.1486
 7513SOL    HW227387   0.510   2.788   7.227  0.0987 -0.0463 -1.5673
 7514SOL     OW27388   2.307   3.398   5.771 -0.0005  0.1885 -0.1641
 7514SOL    HW127389   2.289   3.431   5.683 -0.7542 -2.3542 -1.0074
 7514SOL    HW227390   2.302   3.475   5.827  0.0497  1.7757 -2.2762
 7515SOL     OW27391   1.202   2.021   6.817  0.8769  0.2058 -0.3921
 7515SOL    HW127392   1.129   2.024   6.756  0.0885  2.3126  0.5758
 7515SOL    HW227393   1.172   1.964   6.888  0.3917  0.5970 -0.2782
 7516SOL     OW27394   1.936   2.176   6.943 -0.4561 -0.0933 -0.4790
 7516SOL    HW127395   1.885   2.096   6.950 -1.7326  0.6882 -0.5503
 7516SOL    HW227396   1.986   2.180   7.024 -3.4182  1.0407  1.3886
 7517SOL     OW27397   2.176   2.612   8.134  0.0096 -0.4906 -0.0506
 7517SOL    HW127398   2.174   2.597   8.040 -1.0046 -3.3943  0.3838
 7517SOL    HW227399   2.099   2.666   8.152 -0.8899 -1.5316 -0.6727
 7518SOL     OW27400   2.735   2.090   5.159 -0.0268 -0.1411  0.0440
 7518SOL    HW127401   2.790   2.135   5.095  0.4209 -0.4226  0.2261
 7518SOL    HW227402   2.796   2.065   5.229 -0.1801 -1.4609 -0.2867
 7519SOL     OW27403   1.142   3.053   8.111  0.0768  0.1869  0.2610
 7519SOL    HW127404   1.176   3.038   8.199 -0.8031 -1.1801  0.3804
 7519SOL    HW227405   1.217   3.088   8.062  1.2301 -1.2975  0.9292
 7520SOL     OW27406   1.448   3.093   5.525 -0.3427  0.0769  0.0265
 7520SOL    HW127407   1.452   3.168   5.585  0.0849  0.7918 -0.8934
 7520SOL    HW227408   1.356   3.065   5.528 -1.0308  2.1078 -1.4293
 7521SOL     OW27409   3.391   1.764   8.429 -0.3300 -0.3026  0.8319
 7521SOL    HW127410   3.482   1.737   8.445 -0.4204 -0.7845  0.5393
 7521SOL    HW227411   3.353   1.692   8.378 -0.3590  0.7184 -0.6282
 7522SOL     OW27412   3.638   3.248   5.085 -0.7013  0.5454 -0.3707
 7522SOL    HW127413   3.726   3.210   5.085 -0.9886 -0.1485  1.4498
 7522SOL    HW227414   3.581   3.177   5.058 -0.9122  0.5035  0.1928
 7523SOL     OW27415   3.705   3.291   7.707  0.7744  0.1324 -0.2232
 7523SOL    HW127416   3.725   3.211   7.659 -0.7001  0.5190 -1.5206
 7523SOL    HW227417   3.769   3.355   7.673  0.3880  0.1368 -0.9571
 7524SOL     OW27418   3.356   1.559   7.157 -0.1257 -0.1748  0.1262
 7524SOL    HW127419   3.450   1.573   7.154  0.0492 -1.3070  0.0858
 7524SOL    HW227420   3.345   1.485   7.217 -0.7488 -1.9850 -2.1387
 7525SOL     OW27421   2.807   3.081   5.423  0.0591 -0.2682  0.1272
 7525SOL    HW127422   2.879   3.109   5.478 -0.5161  0.9158  0.3003
 7525SOL    HW227423   2.841   3.088   5.333  0.0078  0.8121  0.1754
 7526SOL     OW27424   0.928   3.725   7.011 -0.5216  0.3285  1.0560
 7526SOL    HW127425   1.021   3.703   7.016 -0.2378  1.4032  0.7029
 7526SOL    HW227426   0.883   3.644   7.036  0.5034 -0.1791  1.3115
 7527SOL     OW27427   2.849   4.171   6.592 -0.3596 -0.0391 -0.1772
 7527SOL    HW127428   2.761   4.182   6.557  0.0440  1.2822 -0.8072
 7527SOL    HW227429   2.906   4.170   6.515  0.3871  1.3263  0.3301
 7528SOL     OW27430   2.751   4.404   7.476 -0.0554  0.2294 -0.7690
 7528SOL    HW127431   2.819   4.454   7.521 -0.5279  2.0751 -2.0511
 7528SOL    HW227432   2.718   4.343   7.542  0.3061  1.8494  0.9469
 7529SOL     OW27433   3.619   2.157   6.845  0.1678  0.5601  0.4031
 7529SOL    HW127434   3.675   2.080   6.848 -0.8503 -0.2112 -0.1247
 7529SOL    HW227435   3.531   2.122   6.836 -0.3433  1.7808  0.6098
 7530SOL     OW27436   1.622   3.145   5.308  0.1125 -0.1614  0.2570
 7530SOL    HW127437   1.581   3.124   5.391 -1.9247  0.1429 -0.6353
 7530SOL    HW227438   1.713   3.114   5.317 -0.3201 -0.9152  2.2457
 7531SOL     OW27439   4.131   2.153   6.489  0.1354 -0.5690 -0.2834
 7531SOL    HW127440   4.073   2.219   6.451 -1.2405 -1.6595 -0.0873
 7531SOL    HW227441   4.192   2.131   6.419  0.7506  1.0645 -0.2867
 7532SOL     OW27442   2.344   2.907   6.866  0.5636  0.5289  0.4518
 7532SOL    HW127443   2.294   2.926   6.946 -0.1345  0.3515  0.0695
 7532SOL    HW227444   2.318   2.817   6.844 -0.8048  1.2862 -1.0979
 7533SOL     OW27445   0.310   3.281   8.106  0.2525  0.1106  0.4290
 7533SOL    HW127446   0.279   3.281   8.197  0.1961 -0.3865  0.4094
 7533SOL    HW227447   0.338   3.191   8.089 -0.9480 -0.1125 -0.4532
 7534SOL     OW27448   2.598   1.988   6.114  0.3158 -0.3939 -0.1122
 7534SOL    HW127449   2.607   1.903   6.156  1.2464  0.6826  1.9533
 7534SOL    HW227450   2.628   2.051   6.180  1.2232  1.4179 -2.1596
 7535SOL     OW27451   1.269   9.824   7.457  0.2773 -0.0687 -0.1140
 7535SOL    HW127452   1.356   9.791   7.477  1.1163  1.2533 -1.5030
 7535SOL    HW227453   1.277   9.919   7.462 -1.0099  0.0769 -0.5860
 7536SOL     OW27454   4.143   3.685   8.661 -0.1599 -0.2704 -0.5107
 7536SOL    HW127455   4.198   3.754   8.698  0.4684 -1.6276  1.1454
 7536SOL    HW227456   4.202   3.610   8.651 -0.8565 -0.6151 -2.1652
 7537SOL     OW27457   2.005   0.141   5.972  0.5810 -0.2689  0.1174
 7537SOL    HW127458   1.996   0.153   6.066  1.4081 -0.3706  0.2164
 7537SOL    HW227459   1.970   0.221   5.934 -1.4167 -0.9547  0.4256
 7538SOL     OW27460   2.682   2.404   4.835  0.2829  0.4194 -0.3511
 7538SOL    HW127461   2.767   2.361   4.836 -0.0783 -0.4403 -2.6268
 7538SOL    HW227462   2.620   2.336   4.859  0.2336  1.0851  1.4645
 7539SOL     OW27463   3.672   3.088   9.543  0.1933 -0.8872 -0.9967
 7539SOL    HW127464   3.624   3.152   9.490 -0.1853 -1.6093 -1.5457
 7539SOL    HW227465   3.645   3.003   9.507 -1.7073 -1.4975  1.7264
 7540SOL     OW27466   3.659   2.261   6.353  0.0705  0.3315 -0.4478
 7540SOL    HW127467   3.634   2.353   6.360 -0.3939  0.1819 -0.0931
 7540SOL    HW227468   3.576   2.213   6.358  0.3840 -0.1534  0.2402
 7541SOL     OW27469   3.648   3.628   7.028  0.5043 -0.1079  0.4513
 7541SOL    HW127470   3.583   3.665   7.088  0.6709  2.1789 -0.7311
 7541SOL    HW227471   3.715   3.590   7.085 -0.0997  0.6948  1.7038
 7542SOL     OW27472   3.843   3.477   7.169  0.2588  0.2006 -0.1828
 7542SOL    HW127473   3.842   3.403   7.230 -2.5457 -1.2753 -1.8961
 7542SOL    HW227474   3.913   3.457   7.108  1.1552  0.2155  0.8311
 7543SOL     OW27475   2.487   2.517   5.775 -0.3695 -0.2187  0.0746
 7543SOL    HW127476   2.532   2.585   5.725  0.1037 -0.7627 -0.2547
 7543SOL    HW227477   2.556   2.455   5.798 -0.9801 -1.1963 -0.6561
 7544SOL     OW27478   3.405   1.449   6.292  0.1014  0.4380 -0.3652
 7544SOL    HW127479   3.382   1.506   6.219  2.8579  1.0578 -0.7841
 7544SOL    HW227480   3.347   1.476   6.363 -1.5877  0.8301 -1.8644
 7545SOL     OW27481   0.738   2.722   8.430 -0.0101  0.3157  0.5457
 7545SOL    HW127482   0.749   2.773   8.510  1.0645 -1.3349  1.4740
 7545SOL    HW227483   0.647   2.737   8.404 -0.4102  0.7482  2.1519
 7546SOL     OW27484   3.118   2.719   6.986 -0.7859  0.2957 -0.5729
 7546SOL    HW127485   3.071   2.675   6.915  0.4030 -0.2786 -1.0122
 7546SOL    HW227486   3.202   2.742   6.948  1.1878 -2.9724  1.5797
 7547SOL     OW27487   1.101   1.881   5.371 -0.0514 -0.1028  0.1369
 7547SOL    HW127488   1.007   1.859   5.369 -0.0847 -0.4954  3.1644
 7547SOL    HW227489   1.104   1.970   5.405  0.7019 -0.3624  0.7592
 7548SOL     OW27490   3.936   2.539   7.151  0.6781  0.1685  0.4511
 7548SOL    HW127491   4.031   2.538   7.153  0.6819 -1.0250  0.1800
 7548SOL    HW227492   3.912   2.462   7.099 -0.3977  1.5965 -1.2252
 7549SOL     OW27493   2.616   2.938   5.541  0.0029 -0.0444 -0.5720
 7549SOL    HW127494   2.540   2.984   5.503  0.6279 -0.6477 -2.6350
 7549SOL    HW227495   2.691   2.992   5.516  0.3354  0.2375  0.9776
 7550SOL     OW27496   3.448   3.000   6.895 -0.0483  0.2555 -0.0858
 7550SOL    HW127497   3.446   2.936   6.824  0.6243 -0.2146  0.3140
 7550SOL    HW227498   3.541   3.010   6.916 -0.2522  0.2422  0.8667
 7551SOL     OW27499   4.912   3.214   7.625  0.0095 -0.1326  0.0826
 7551SOL    HW127500   4.964   3.136   7.645  2.3230  1.1428 -0.8077
 7551SOL    HW227501   4.951   3.283   7.679 -2.8248  0.1958  1.8486
 7552SOL     OW27502   1.356   2.520   8.250  0.0529  0.0313  0.4061
 7552SOL    HW127503   1.396   2.437   8.276  0.5056  0.7804  2.1679
 7552SOL    HW227504   1.270   2.520   8.293  1.0711  1.5677  2.5534
 7553SOL     OW27505   2.226   1.345   6.332  0.2682  0.2841 -0.4798
 7553SOL    HW127506   2.230   1.307   6.420 -2.1398 -1.5932 -1.1036
 7553SOL    HW227507   2.201   1.436   6.346  1.7670  0.5052  0.8626
 7554SOL     OW27508   2.797   3.612   7.702  0.4923 -0.1730  0.1352
 7554SOL    HW127509   2.717   3.560   7.706 -0.3529  1.1497  0.8474
 7554SOL    HW227510   2.768   3.697   7.670  1.9277 -0.2488 -1.4071
 7555SOL     OW27511   3.869   3.048   8.084  0.7032  0.0722 -0.4016
 7555SOL    HW127512   3.781   3.020   8.108  1.2390  0.3243  1.9599
 7555SOL    HW227513   3.911   2.969   8.049 -0.4616 -0.0290 -1.5952
 7556SOL     OW27514   1.507   0.497   5.930  0.0268  0.3355  0.7902
 7556SOL    HW127515   1.562   0.458   5.998  1.9298  0.6567 -0.5100
 7556SOL    HW227516   1.421   0.458   5.943  0.8942 -1.1993  2.0502
 7557SOL     OW27517   1.244   3.093   7.072 -0.0272  0.2891  0.3248
 7557SOL    HW127518   1.204   3.137   7.147 -1.5550 -1.4456  0.5690
 7557SOL    HW227519   1.171   3.080   7.011  0.2755 -2.4453  0.5190
 7558SOL     OW27520   3.040   2.858   8.476 -0.3028  0.1946  0.1496
 7558SOL    HW127521   3.110   2.804   8.440 -0.0918 -0.2997  1.2704
 7558SOL    HW227522   3.072   2.885   8.562 -0.3839  2.1725 -0.4378
 7559SOL     OW27523   1.490   1.828   5.889 -0.3168 -0.3910 -0.1403
 7559SOL    HW127524   1.445   1.899   5.934 -1.0720 -0.3805 -0.8740
 7559SOL    HW227525   1.419   1.773   5.855  0.2482 -1.1367 -0.1400
 7560SOL     OW27526   3.426   2.452   6.385  0.2035  0.6135  0.1546
 7560SOL    HW127527   3.396   2.363   6.364  0.2693  0.6525 -0.1121
 7560SOL    HW227528   3.349   2.496   6.420 -0.4397  1.1335 -1.8127
 7561SOL     OW27529   2.291   2.158   7.088  0.2322  0.2689 -0.3068
 7561SOL    HW127530   2.338   2.074   7.086 -1.1900 -0.5327 -0.6096
 7561SOL    HW227531   2.207   2.138   7.128 -1.0256  1.0733 -2.4669
 7562SOL     OW27532   2.904   4.020   8.222 -1.0069 -0.6119 -0.7589
 7562SOL    HW127533   2.989   4.001   8.261 -1.2443 -2.6710 -1.1948
 7562SOL    HW227534   2.924   4.043   8.131 -0.8934 -0.9385 -0.8183
 7563SOL     OW27535   2.927   2.149   6.521 -1.0286  0.5031 -0.2689
 7563SOL    HW127536   2.936   2.130   6.428 -1.7290  0.9020 -0.4221
 7563SOL    HW227537   2.929   2.063   6.563 -2.0759  0.2165 -0.7748
 7564SOL     OW27538   2.764   2.619   5.865 -0.1553  0.0545  0.4136
 7564SOL    HW127539   2.725   2.629   5.778 -0.2234 -0.4525  0.3844
 7564SOL    HW227540   2.716   2.546   5.905  1.6833 -1.5198 -0.1540
 7565SOL     OW27541   3.255   1.608   6.109 -0.0267 -0.1824  0.2712
 7565SOL    HW127542   3.223   1.551   6.039  1.8731 -1.6539  0.5719
 7565SOL    HW227543   3.196   1.592   6.182 -0.6528 -0.3247 -0.2624
 7566SOL     OW27544   2.767   2.548   7.298 -0.2284 -0.1202  0.1229
 7566SOL    HW127545   2.777   2.640   7.274 -0.4558 -0.1004  0.0953
 7566SOL    HW227546   2.818   2.500   7.232  0.9978  0.0576  0.9305
 7567SOL     OW27547   0.935   2.519   7.121  0.2714 -0.1804 -0.6615
 7567SOL    HW127548   0.867   2.556   7.176  1.6742  0.0372  0.9510
 7567SOL    HW227549   0.934   2.425   7.141  1.9085  0.1429  1.0055
 7568SOL     OW27550   1.917   2.094   7.732 -0.7342  0.4370  0.2007
 7568SOL    HW127551   1.824   2.072   7.738 -0.3037 -1.3672  0.7255
 7568SOL    HW227552   1.922   2.156   7.659 -1.8197 -2.9955 -2.9875
 7569SOL     OW27553   2.809   4.376   7.214 -0.3915  0.1546  0.0617
 7569SOL    HW127554   2.800   4.410   7.303 -2.0382 -1.5152  0.5711
 7569SOL    HW227555   2.723   4.340   7.193  0.2111 -0.2129 -1.8946
 7570SOL     OW27556   0.448   2.196   7.656  0.0759  0.3447  0.6972
 7570SOL    HW127557   0.537   2.176   7.685  0.3317  1.9247  1.0242
 7570SOL    HW227558   0.394   2.183   7.734 -0.0222 -0.7520  0.4636
 7571SOL     OW27559   2.214   1.873   7.562  0.1352 -1.1496  0.9001
 7571SOL    HW127560   2.222   1.895   7.469  1.1575  0.2788  1.3166
 7571SOL    HW227561   2.292   1.821   7.581 -0.7660 -2.6478  0.6542
 7572SOL     OW27562   3.611   1.968   8.787  0.0477  0.2881  0.6181
 7572SOL    HW127563   3.544   1.937   8.847  1.2021 -0.3214  1.6313
 7572SOL    HW227564   3.687   1.912   8.806  1.5775  2.4865  1.1589
 7573SOL     OW27565   2.252   2.704   7.496  1.2285 -0.4864  0.0380
 7573SOL    HW127566   2.325   2.702   7.434  2.5427 -1.4979  1.5750
 7573SOL    HW227567   2.209   2.619   7.485  0.8664 -0.2735 -0.1876
 7574SOL     OW27568   2.340   3.266   7.453 -0.3072  0.0600  0.1155
 7574SOL    HW127569   2.368   3.181   7.420 -2.7219 -0.5020 -0.5725
 7574SOL    HW227570   2.307   3.313   7.376 -0.6219  0.9609  0.7825
 7575SOL     OW27571   1.732   3.171   9.276 -0.2124  0.5186  0.2394
 7575SOL    HW127572   1.726   3.246   9.334  2.5788  0.3898  0.7622
 7575SOL    HW227573   1.647   3.166   9.234 -0.5179  3.8362  0.3628
 7576SOL     OW27574   1.778   3.633   0.203  0.2367  0.2470  0.0761
 7576SOL    HW127575   1.758   3.613   0.294 -2.4406  0.2721 -0.4619
 7576SOL    HW227576   1.750   3.555   0.154 -2.4518  1.8565 -1.1267
 7577SOL     OW27577   1.356   2.838   7.109 -0.8787  0.1099  0.3689
 7577SOL    HW127578   1.424   2.876   7.165  1.0050 -0.7067 -1.2996
 7577SOL    HW227579   1.327   2.911   7.055 -1.1851  0.4089  0.9270
 7578SOL     OW27580   3.024   1.272   8.481 -0.0665 -0.0536  0.1109
 7578SOL    HW127581   3.019   1.181   8.511 -0.7139 -0.4109 -1.0636
 7578SOL    HW227582   2.968   1.275   8.404  2.0146  0.7300 -1.4106
 7579SOL     OW27583   2.245   4.281   9.300  0.3504 -0.2255 -0.1327
 7579SOL    HW127584   2.294   4.343   9.353  0.6952 -0.9423  0.3917
 7579SOL    HW227585   2.153   4.300   9.318  0.4568 -1.7460  2.2357
 7580SOL     OW27586   2.594   4.078   9.730  0.1751  0.4651  0.3044
 7580SOL    HW127587   2.530   4.136   9.771 -0.2721  1.7395 -2.1213
 7580SOL    HW227588   2.639   4.133   9.666  1.5201 -1.2385 -0.2533
 7581SOL     OW27589   5.081   4.041   8.483 -0.1562 -0.2246 -0.1402
 7581SOL    HW127590   5.110   4.121   8.527  0.4607 -0.7311  0.3944
 7581SOL    HW227591   5.148   4.025   8.416  1.1260 -1.6714  1.4233
 7582SOL     OW27592   0.548   2.452   9.700 -0.1557  0.0914  0.5556
 7582SOL    HW127593   0.547   2.502   9.781 -0.2596  0.3754  0.3817
 7582SOL    HW227594   0.583   2.513   9.634  0.3962 -0.2940  0.4879
 7583SOL     OW27595   3.055   1.921   9.006  0.5781  0.3710  0.4761
 7583SOL    HW127596   3.080   1.871   8.928 -0.5250 -0.1270  0.4335
 7583SOL    HW227597   3.097   1.875   9.079  1.1377  0.5023  0.2412
 7584SOL     OW27598   0.464   2.001   9.510 -0.2811 -0.5637  0.3249
 7584SOL    HW127599   0.441   2.017   9.419  0.0815  0.9214  0.4780
 7584SOL    HW227600   0.479   1.906   9.515 -1.1689 -0.7872 -0.9433
 7585SOL     OW27601   2.053   1.586   8.038 -0.1122 -0.1589  0.0041
 7585SOL    HW127602   2.082   1.675   8.055  0.6572 -0.3101 -0.5055
 7585SOL    HW227603   1.958   1.593   8.027 -0.2895  0.3301  1.7128
 7586SOL     OW27604   1.264   4.217   9.234  0.1416  0.3437 -0.0353
 7586SOL    HW127605   1.244   4.178   9.149 -1.3644  0.3098  0.3280
 7586SOL    HW227606   1.186   4.268   9.257  0.5521  0.3973  1.2945
 7587SOL     OW27607   2.170   2.943   8.156 -0.1555 -0.3155  0.2269
 7587SOL    HW127608   2.077   2.921   8.158 -0.0885 -0.6527 -0.1940
 7587SOL    HW227609   2.174   3.029   8.115 -0.2528 -0.4946 -0.1682
 7588SOL     OW27610   4.276   2.451   8.145 -0.1344  0.3172 -0.4318
 7588SOL    HW127611   4.325   2.369   8.147  0.7333  0.7755 -1.9384
 7588SOL    HW227612   4.320   2.507   8.208  2.1309  1.1513 -2.6604
 7589SOL     OW27613   0.724   2.240   9.066  0.4270  0.0944  0.9650
 7589SOL    HW127614   0.660   2.262   9.133 -2.4015 -0.6297 -1.3997
 7589SOL    HW227615   0.706   2.148   9.044  1.1836  0.3434 -0.8362
 7590SOL     OW27616   3.593   1.672   8.112  0.0903 -0.1488  0.0127
 7590SOL    HW127617   3.623   1.721   8.189  1.0189 -0.0181 -0.4242
 7590SOL    HW227618   3.562   1.738   8.051  0.3465 -0.1823 -0.1528
 7591SOL     OW27619   8.981   2.617   8.170  0.2463  0.6920 -0.2133
 7591SOL    HW127620   9.065   2.575   8.151 -0.5722 -0.8987 -0.4037
 7591SOL    HW227621   8.963   2.670   8.093  0.0678 -0.6254 -1.0866
 7592SOL     OW27622   3.726   3.166   4.609 -0.1087  0.2573  0.3330
 7592SOL    HW127623   3.821   3.160   4.611 -0.2119 -2.4276 -0.9459
 7592SOL    HW227624   3.706   3.217   4.531  0.2813  0.2989  0.2628
 7593SOL     OW27625   3.800   3.011   5.564 -0.5191  0.6169  0.5600
 7593SOL    HW127626   3.730   2.959   5.605  0.2167 -0.8293  0.0128
 7593SOL    HW227627   3.873   3.006   5.626 -0.4286  0.9867  0.4862
 7594SOL     OW27628   1.397   2.206   7.547 -0.1369 -0.0676 -0.1332
 7594SOL    HW127629   1.411   2.116   7.518 -0.3724  0.0404 -0.5851
 7594SOL    HW227630   1.362   2.251   7.470 -0.1610  0.3744  0.1335
 7595SOL     OW27631   3.528   2.260   8.140  0.1185  0.1781  0.4842
 7595SOL    HW127632   3.495   2.350   8.134 -0.8642 -0.1569  0.9440
 7595SOL    HW227633   3.462   2.207   8.097  1.3704 -0.1757 -1.0383
 7596SOL     OW27634   2.861   2.108   8.167  0.6251  0.7704  0.1203
 7596SOL    HW127635   2.918   2.032   8.153  0.4512  0.2621  2.0437
 7596SOL    HW227636   2.814   2.088   8.248 -2.2233  1.2307 -1.3355
 7597SOL     OW27637   0.709   3.704   8.637  0.2183  0.5238 -0.0796
 7597SOL    HW127638   0.746   3.695   8.725  1.7885  2.4519 -0.4917
 7597SOL    HW227639   0.620   3.736   8.651  0.3805  0.5935  0.8214
 7598SOL     OW27640   4.609   3.252   8.139  0.1869 -0.5297  0.8619
 7598SOL    HW127641   4.518   3.280   8.149  0.5651  0.6453  1.0544
 7598SOL    HW227642   4.603   3.163   8.105 -1.0267 -0.0066 -0.3330
 7599SOL     OW27643   2.955   3.376   1.113 -0.2253  0.5261 -0.1550
 7599SOL    HW127644   2.963   3.297   1.167  0.6918  0.8030  0.1118
 7599SOL    HW227645   2.991   3.352   1.028 -0.1155  0.5997 -0.1300
 7600SOL     OW27646   2.306   2.081   9.467  0.1747 -0.1297 -0.5215
 7600SOL    HW127647   2.349   2.166   9.471 -0.6659  0.2981 -0.5734
 7600SOL    HW227648   2.369   2.024   9.422  1.7274 -0.1476  1.6264
 7601SOL     OW27649   2.408   1.207   8.853  0.3715  0.1425  0.1445
 7601SOL    HW127650   2.320   1.169   8.849  0.3213  0.2430  0.2592
 7601SOL    HW227651   2.439   1.187   8.942 -0.5583  2.3357  1.0121
 7602SOL     OW27652   2.082   3.414   8.657 -0.3378 -0.0717  0.2565
 7602SOL    HW127653   2.024   3.339   8.652  1.7889 -1.6181 -2.7210
 7602SOL    HW227654   2.093   3.443   8.566  2.5658  0.8834  0.8434
 7603SOL     OW27655   2.631   3.085   6.077 -0.1136 -0.4390 -0.3052
 7603SOL    HW127656   2.594   3.055   5.995 -0.6873  0.9196 -0.5648
 7603SOL    HW227657   2.639   3.180   6.066  3.7392 -0.7249 -0.3528
 7604SOL     OW27658   3.432   0.904   7.277  0.1287 -0.1134 -0.1392
 7604SOL    HW127659   3.341   0.897   7.304 -0.1589 -1.5271 -1.3863
 7604SOL    HW227660   3.482   0.903   7.358 -1.0066  1.6167  0.6035
 7605SOL     OW27661   3.536   2.900   7.481 -0.1754 -0.1856  0.0547
 7605SOL    HW127662   3.468   2.967   7.475 -1.1259 -1.1157  0.5514
 7605SOL    HW227663   3.498   2.830   7.532  0.4985 -1.5309 -1.2558
 7606SOL     OW27664   2.879   1.656   8.807  0.6516  0.8324  0.5886
 7606SOL    HW127665   2.872   1.647   8.902  1.0371 -1.4576  0.4259
 7606SOL    HW227666   2.898   1.568   8.776  0.1162  1.4814 -1.6698
 7607SOL     OW27667   2.796   2.485   6.175  0.3432  0.2033  0.2562
 7607SOL    HW127668   2.871   2.491   6.116  1.0918 -0.2845  1.1472
 7607SOL    HW227669   2.747   2.409   6.143  1.5259 -0.9557  1.1227
 7608SOL     OW27670   3.365   2.732   9.419 -0.3401 -0.8859  0.1594
 7608SOL    HW127671   3.364   2.657   9.360  1.5912 -0.9769  0.2143
 7608SOL    HW227672   3.301   2.710   9.487 -1.5956 -1.3664 -1.1631
 7609SOL     OW27673   3.022   4.306   8.362  0.1006 -0.2281 -0.1777
 7609SOL    HW127674   2.951   4.334   8.304  0.8031  0.8993 -0.5102
 7609SOL    HW227675   3.062   4.388   8.392 -0.5518 -0.7519  2.2931
 7610SOL     OW27676   2.375   1.863   7.920  0.3940 -0.3566  0.1335
 7610SOL    HW127677   2.391   1.819   8.004 -1.0351  0.4147  0.8401
 7610SOL    HW227678   2.283   1.891   7.925  0.5321  0.4130 -1.3561
 7611SOL     OW27679   1.765   5.100   8.656 -0.7208 -0.2425 -0.4272
 7611SOL    HW127680   1.691   5.070   8.710 -0.5944 -1.2510 -0.8135
 7611SOL    HW227681   1.823   5.144   8.719  0.3118 -2.9988  0.6173
 7612SOL     OW27682   1.959   2.462   0.326  0.0355  0.3133 -0.3068
 7612SOL    HW127683   1.972   2.557   0.329  1.8772  0.0728  0.1744
 7612SOL    HW227684   1.918   2.440   0.409  0.7706  0.5456  0.1245
 7613SOL     OW27685   6.565   3.848   8.148  0.4562  0.5363  0.3352
 7613SOL    HW127686   6.652   3.863   8.187  0.9672 -0.7061 -0.3193
 7613SOL    HW227687   6.553   3.923   8.090  1.4985  0.2499 -0.2728
 7614SOL     OW27688   4.377   2.439   8.848 -0.1129 -0.1294 -0.3995
 7614SOL    HW127689   4.399   2.478   8.933 -0.0359  0.4679 -0.6943
 7614SOL    HW227690   4.429   2.359   8.845 -0.1253 -0.1620  0.1246
 7615SOL     OW27691   1.786   2.290   7.974 -0.2217 -0.4620 -0.2136
 7615SOL    HW127692   1.776   2.201   7.941  0.7094 -0.1589 -1.3382
 7615SOL    HW227693   1.822   2.279   8.062 -0.7981 -1.2086 -0.0613
 7616SOL     OW27694   1.662   1.393   7.750  0.0245 -0.7011  0.1125
 7616SOL    HW127695   1.754   1.396   7.776 -0.2481  1.4362  0.9327
 7616SOL    HW227696   1.625   1.322   7.802  1.0964 -1.2736  0.1236
 7617SOL     OW27697   3.265   2.509   9.301  0.3566 -0.0612 -0.8182
 7617SOL    HW127698   3.177   2.473   9.315  0.9562 -1.0975  0.4666
 7617SOL    HW227699   3.312   2.440   9.254  1.6257 -1.2082  1.9995
 7618SOL     OW27700   2.913   4.550   9.942  0.2016 -0.1673 -0.6331
 7618SOL    HW127701   2.941   4.574   9.854 -2.3630  1.4631 -1.0769
 7618SOL    HW227702   2.903   4.455   9.939 -1.5908  0.0312 -2.7032
 7619SOL     OW27703   3.419   4.009   9.928  0.2306  0.1219 -0.0673
 7619SOL    HW127704   3.397   4.099   9.907 -0.6723  0.2112  1.2031
 7619SOL    HW227705   3.365   3.988  10.004  0.4356 -1.4819 -0.3428
 7620SOL     OW27706   3.649   0.776   8.742 -0.7484 -0.6077 -0.3400
 7620SOL    HW127707   3.708   0.708   8.711 -2.2411 -1.7001 -0.8277
 7620SOL    HW227708   3.662   0.776   8.837  0.5330 -0.3527 -0.5023
 7621SOL     OW27709   2.162   2.135   8.033  0.4614  0.2710 -0.1869
 7621SOL    HW127710   2.146   2.049   7.994 -3.1613  0.4095  0.7762
 7621SOL    HW227711   2.237   2.170   7.985  1.5036 -3.0900 -1.1275
 7622SOL     OW27712   1.447   2.594   9.019 -0.3594 -0.0404 -0.6750
 7622SOL    HW127713   1.515   2.607   9.084 -1.0196 -1.0846  0.2442
 7622SOL    HW227714   1.471   2.513   8.975  1.5993  2.0524 -3.6812
 7623SOL     OW27715   2.036   3.007   0.371  0.2553  0.5230  0.3632
 7623SOL    HW127716   1.956   2.967   0.405  0.5852 -0.2680  0.2160
 7623SOL    HW227717   2.106   2.947   0.396  0.8173  1.2263  0.5180
 7624SOL     OW27718   1.595   2.637   7.192  0.3601  0.1802 -0.4526
 7624SOL    HW127719   1.653   2.565   7.170  0.5394 -0.8650  3.1153
 7624SOL    HW227720   1.654   2.707   7.221 -0.0115 -0.3123  1.5978
 7625SOL     OW27721   1.484   4.108   9.332  0.0431 -0.8307 -0.3731
 7625SOL    HW127722   1.453   4.017   9.332  0.1198 -0.8566 -0.0893
 7625SOL    HW227723   1.418   4.156   9.283  0.3945 -1.1796 -1.1945
 7626SOL     OW27724   2.557   2.711   8.412  0.1889 -0.0103 -0.2548
 7626SOL    HW127725   2.472   2.736   8.448  0.7200  2.2786 -0.5266
 7626SOL    HW227726   2.536   2.652   8.340 -1.1336  0.1832 -0.0493
 7627SOL     OW27727   2.852   2.998   8.086 -0.4783  0.3482  0.6252
 7627SOL    HW127728   2.865   2.995   8.180 -0.5568 -2.3353  0.5909
 7627SOL    HW227729   2.767   3.040   8.074 -0.8991 -0.1546  1.7929
 7628SOL     OW27730   2.638   2.846   9.538 -0.2326 -0.1160 -0.2537
 7628SOL    HW127731   2.612   2.928   9.497  0.3224  1.0982  1.7616
 7628SOL    HW227732   2.728   2.832   9.510 -0.7520 -0.7527 -1.6679
 7629SOL     OW27733   3.722   2.853   9.174 -0.9426  0.4888  0.3820
 7629SOL    HW127734   3.713   2.946   9.156 -0.8915  0.3482 -0.3577
 7629SOL    HW227735   3.707   2.810   9.090 -0.2973 -0.1360  0.5809
 7630SOL     OW27736   0.788   2.938   7.677 -0.3474 -0.4175  0.3316
 7630SOL    HW127737   0.749   3.019   7.643  0.7828 -0.5699 -1.4174
 7630SOL    HW227738   0.757   2.870   7.617  2.3464 -0.5767 -0.9416
 7631SOL     OW27739   3.461   1.473   9.642  0.0780 -0.5906 -0.1232
 7631SOL    HW127740   3.554   1.491   9.654  0.1387 -1.8470  1.4725
 7631SOL    HW227741   3.446   1.391   9.689 -2.2224  0.5974  1.3070
 7632SOL     OW27742   3.078   1.478   8.139  0.0608  0.1232 -0.0444
 7632SOL    HW127743   3.070   1.458   8.046 -1.1061  0.2057  0.0328
 7632SOL    HW227744   2.988   1.490   8.169  0.4573  0.6035  0.9825
 7633SOL     OW27745   1.999   2.637   9.665  0.1704 -0.0497  0.5210
 7633SOL    HW127746   2.005   2.574   9.592 -0.9848 -0.1005  0.4492
 7633SOL    HW227747   2.053   2.711   9.637 -0.1235 -0.1428 -0.3242
 7634SOL     OW27748   2.957   3.488   8.886  0.6804  0.8396  0.2041
 7634SOL    HW127749   3.001   3.446   8.812  1.2179  0.1211  0.9194
 7634SOL    HW227750   2.864   3.476   8.869  0.7539  1.8061 -0.9984
 7635SOL     OW27751   4.136   2.417   6.853  0.1568  0.0982 -0.3126
 7635SOL    HW127752   4.214   2.369   6.826  0.0948  0.6016 -1.4040
 7635SOL    HW227753   4.079   2.416   6.775 -0.8532 -0.1141  0.4157
 7636SOL     OW27754   1.377   1.899   7.798 -0.4571  0.4057  0.0485
 7636SOL    HW127755   1.411   1.937   7.718 -0.2028 -0.5137 -0.2941
 7636SOL    HW227756   1.331   1.970   7.842 -0.8410  0.8393 -1.0545
 7637SOL     OW27757   2.530   1.950   8.265 -0.7089  0.5906  0.6050
 7637SOL    HW127758   2.589   2.000   8.320 -0.5665  2.1017 -0.8849
 7637SOL    HW227759   2.586   1.888   8.218 -0.1579  2.3804 -1.2093
 7638SOL     OW27760   2.391   2.183   7.890 -0.4294 -0.1915 -0.4400
 7638SOL    HW127761   2.442   2.262   7.901  2.8713 -2.4774  1.4882
 7638SOL    HW227762   2.411   2.153   7.801 -1.4854  0.9680 -1.0769
 7639SOL     OW27763   3.319   3.041   7.441  0.1428 -0.8532  0.7699
 7639SOL    HW127764   3.229   3.011   7.452  0.9511 -2.8481  2.3137
 7639SOL    HW227765   3.325   3.121   7.493 -0.9815 -0.1893 -0.1143
 7640SOL     OW27766   1.691   1.819   7.786  0.4782 -0.1053  0.1342
 7640SOL    HW127767   1.718   1.753   7.722  0.8683  1.5124 -1.3975
 7640SOL    HW227768   1.598   1.834   7.768  0.8490  1.1676 -0.8475
 7641SOL     OW27769   2.911   3.314   8.522  0.1264  0.2055 -0.0183
 7641SOL    HW127770   2.935   3.276   8.438 -0.6082 -0.1892 -0.0543
 7641SOL    HW227771   2.990   3.360   8.552  0.3068  0.5663 -1.0421
 7642SOL     OW27772   2.415   0.046   8.965 -0.3908  0.1979  0.4291
 7642SOL    HW127773   2.439   0.135   8.940  0.5394  0.3348  1.7064
 7642SOL    HW227774   2.486  -0.008   8.931 -1.3051 -0.1603 -0.9507
 7643SOL     OW27775   2.334   4.410   7.949  0.4957 -0.1221  0.6130
 7643SOL    HW127776   2.305   4.320   7.933  0.1871  0.2244 -0.7514
 7643SOL    HW227777   2.396   4.401   8.022  1.7096 -1.6639 -0.5612
 7644SOL     OW27778   1.631   3.841   6.889 -0.2301  0.3114 -0.3778
 7644SOL    HW127779   1.670   3.886   6.964  1.5955 -0.5642 -0.7845
 7644SOL    HW227780   1.619   3.910   6.823 -1.2904  0.9697  0.4814
 7645SOL     OW27781   1.658   3.006   7.753 -0.1753  0.4928 -0.1730
 7645SOL    HW127782   1.739   2.997   7.803  0.2234  0.8946 -0.7475
 7645SOL    HW227783   1.655   2.927   7.698  1.4188  1.9637 -2.4474
 7646SOL     OW27784   1.437   2.973   7.423 -0.5362  0.1815 -0.2606
 7646SOL    HW127785   1.510   3.026   7.457 -0.6177 -0.2558  0.5869
 7646SOL    HW227786   1.359   3.008   7.466 -0.6762 -0.1885 -0.2163
 7647SOL     OW27787   1.864   1.832   8.180  0.5063 -0.1383 -0.7203
 7647SOL    HW127788   1.907   1.880   8.251  1.8325  0.0457 -1.6299
 7647SOL    HW227789   1.786   1.795   8.220  1.8501 -1.0149  1.1528
 7648SOL     OW27790   1.194   1.331   8.587 -0.5508  0.0213 -0.7547
 7648SOL    HW127791   1.199   1.239   8.564 -1.5104  0.0061 -0.9242
 7648SOL    HW227792   1.225   1.336   8.678 -0.7202 -0.4976 -0.6704
 7649SOL     OW27793   3.263   1.969   8.155  0.4950  0.2899  0.4196
 7649SOL    HW127794   3.180   1.926   8.134  1.2276 -1.1377  0.3489
 7649SOL    HW227795   3.286   2.019   8.077  1.3436 -1.9919 -0.8466
 7650SOL     OW27796   1.405   1.430   5.943  0.1553 -0.0919  0.3619
 7650SOL    HW127797   1.335   1.374   5.975  1.2096 -0.4198  2.2123
 7650SOL    HW227798   1.361   1.505   5.904 -1.2299  0.4684  2.9007
 7651SOL     OW27799   0.899   2.295   8.334 -0.0860 -0.4149  0.4286
 7651SOL    HW127800   0.821   2.339   8.368 -1.1871 -2.5130  0.7212
 7651SOL    HW227801   0.971   2.329   8.388 -0.8309  1.2906  0.3772
 7652SOL     OW27802   2.088   2.984   7.716 -0.3835  0.2035 -0.0197
 7652SOL    HW127803   2.043   2.913   7.762  3.0698 -2.3143 -0.3681
 7652SOL    HW227804   2.070   2.969   7.624  0.9561 -0.6528 -0.1417
 7653SOL     OW27805   1.365   2.380   7.199  0.4678 -0.2998 -0.4568
 7653SOL    HW127806   1.311   2.399   7.275 -0.6447 -0.6722 -1.1459
 7653SOL    HW227807   1.415   2.302   7.224 -0.3174 -0.7644 -0.3068
 7654SOL     OW27808   2.420   3.000   7.911  0.4213 -1.0564  0.7787
 7654SOL    HW127809   2.370   3.077   7.939 -1.5004 -2.4457  1.2804
 7654SOL    HW227810   2.353   2.937   7.886  2.0366 -1.3914 -2.8956
 7655SOL     OW27811   2.391   5.139   0.832  0.1290 -0.6883  0.1871
 7655SOL    HW127812   2.362   5.060   0.787 -3.0051 -0.9705  2.5916
 7655SOL    HW227813   2.348   5.211   0.786  0.1788 -0.6405  0.2140
 7656SOL     OW27814   2.563   2.400   7.404  0.3162  0.5883 -0.3043
 7656SOL    HW127815   2.616   2.428   7.329  3.2037  0.1327  1.4799
 7656SOL    HW227816   2.602   2.317   7.430 -2.3974 -0.5930  0.0581
 7657SOL     OW27817   0.508   3.875   8.691  0.6803  0.7232  0.0952
 7657SOL    HW127818   0.504   3.848   8.782  2.3153 -1.3571 -0.4222
 7657SOL    HW227819   0.530   3.969   8.695 -2.0820  1.3567  1.8401
 7658SOL     OW27820   2.510   2.126   7.629 -0.3151  0.0075 -0.1477
 7658SOL    HW127821   2.425   2.121   7.585 -0.3086 -0.8931 -0.0686
 7658SOL    HW227822   2.573   2.144   7.558 -0.5970  0.9670 -0.1665
 7659SOL     OW27823   3.724   2.101   8.529 -0.5502  0.5257 -0.1169
 7659SOL    HW127824   3.806   2.149   8.540 -0.0327 -0.1574 -0.9589
 7659SOL    HW227825   3.748   2.009   8.537 -1.4496  0.3738  0.9223
 7660SOL     OW27826   2.699   1.021   7.252  0.6127  0.1717  0.4950
 7660SOL    HW127827   2.721   0.928   7.244 -1.1924 -0.2908  0.6210
 7660SOL    HW227828   2.688   1.052   7.162 -1.0655 -0.3363  0.5011
 7661SOL     OW27829   3.185   1.831   9.249 -0.5650  0.5664 -0.1347
 7661SOL    HW127830   3.246   1.895   9.287 -0.0853  0.3723 -0.5739
 7661SOL    HW227831   3.204   1.750   9.296 -0.9590  0.6732  0.2064
 7662SOL     OW27832   2.807   1.645   7.398  0.5461  0.1335  0.2592
 7662SOL    HW127833   2.723   1.686   7.415  0.5485 -0.4454  1.7221
 7662SOL    HW227834   2.797   1.555   7.429  0.8535 -0.7259 -2.0120
 7663SOL     OW27835   2.388   1.393   9.418 -0.1593 -0.0003 -0.5100
 7663SOL    HW127836   2.294   1.401   9.433  0.1921  0.1324  1.7409
 7663SOL    HW227837   2.410   1.304   9.448  0.5979  0.3244 -0.0858
 7664SOL     OW27838   3.722   2.479   8.713 -0.0980 -0.6689 -0.4800
 7664SOL    HW127839   3.657   2.446   8.651  0.9148 -2.1905 -0.7423
 7664SOL    HW227840   3.758   2.401   8.754  0.1878  0.2698  1.0859
 7665SOL     OW27841   1.773   4.024   8.176 -0.5087 -0.1886  0.1907
 7665SOL    HW127842   1.691   4.071   8.191  1.0678  2.6935  0.0126
 7665SOL    HW227843   1.833   4.057   8.242  1.1852 -0.5997 -1.0922
 7666SOL     OW27844   1.848   2.990   7.956 -0.7317  0.2778 -0.6850
 7666SOL    HW127845   1.775   2.933   7.981 -2.1658  2.6358  0.6373
 7666SOL    HW227846   1.885   3.020   8.039  0.7747  0.3417 -1.3602
 7667SOL     OW27847   2.998   3.548   7.864  0.6353 -0.0775  0.3322
 7667SOL    HW127848   2.915   3.587   7.836 -0.6033 -1.5219  1.8962
 7667SOL    HW227849   3.044   3.531   7.782  0.2261  2.4851 -0.4819
 7668SOL     OW27850   1.407   2.786   7.852  0.3780  0.3878 -0.2893
 7668SOL    HW127851   1.450   2.815   7.771 -0.3536  1.0654 -0.4407
 7668SOL    HW227852   1.348   2.857   7.874  0.2806  0.0209  0.6317
 7669SOL     OW27853   2.682   4.235   0.049 -0.4885  0.4613  0.2254
 7669SOL    HW127854   2.624   4.310   0.038 -1.4027 -0.4106 -1.1152
 7669SOL    HW227855   2.762   4.260   0.003 -0.2907  1.1423  0.9366
 7670SOL     OW27856   3.333   2.761   8.631 -0.3018  0.4580 -0.2354
 7670SOL    HW127857   3.342   2.831   8.696 -0.3932 -1.7203  2.2601
 7670SOL    HW227858   3.350   2.681   8.681 -0.8666 -1.3433 -2.8418
 7671SOL     OW27859   1.903   3.053   8.218 -0.5791 -0.0285 -0.4975
 7671SOL    HW127860   1.961   3.090   8.284 -0.6464  0.9291 -0.9648
 7671SOL    HW227861   1.831   3.015   8.268 -0.3810  0.2563  0.0062
 7672SOL     OW27862   2.601   2.863   8.091 -0.4219  0.0745 -0.1348
 7672SOL    HW127863   2.551   2.876   8.172 -0.5417 -0.6415 -0.0978
 7672SOL    HW227864   2.539   2.883   8.021  0.0084  1.8728 -0.0460
 7673SOL     OW27865   3.703   0.252   0.778  0.3527 -0.4178 -0.0807
 7673SOL    HW127866   3.688   0.160   0.800 -0.8644 -0.4954 -1.1857
 7673SOL    HW227867   3.697   0.298   0.861 -0.2096 -1.1846  0.3104
 7674SOL     OW27868   2.801   1.978   8.961 -0.5509 -0.1191  0.0398
 7674SOL    HW127869   2.776   2.069   8.946 -0.3159  0.0248  0.5206
 7674SOL    HW227870   2.897   1.981   8.970 -0.6660 -0.2494  1.3002
 7675SOL     OW27871   0.586   1.055   8.354  0.4225  0.2480 -0.3990
 7675SOL    HW127872   0.588   1.139   8.310 -0.8784  0.3135 -0.3525
 7675SOL    HW227873   0.556   1.074   8.443 -2.0132 -0.5146 -1.0268
 7676SOL     OW27874   3.118   2.638   0.058 -0.3346  0.0464  0.2407
 7676SOL    HW127875   3.123   2.730   0.083 -1.5131 -0.1047  1.0524
 7676SOL    HW227876   3.035   2.631   0.011  0.1801 -0.4252 -0.6250
 7677SOL     OW27877   2.999   2.239   6.782  0.3996 -0.5657  0.6814
 7677SOL    HW127878   2.935   2.199   6.841 -0.2525 -0.4837  0.0328
 7677SOL    HW227879   2.961   2.229   6.695  0.0038  1.8679  0.5477
 7678SOL     OW27880   3.528   3.027   8.044  0.3375 -0.1702 -0.3714
 7678SOL    HW127881   3.435   3.026   8.070  1.0748 -1.8118  2.4439
 7678SOL    HW227882   3.531   2.969   7.968 -0.5270 -2.5920  1.3664
 7679SOL     OW27883   3.210   2.183   1.247 -0.4575 -0.4001 -0.4357
 7679SOL    HW127884   3.296   2.225   1.242 -1.4332  1.4934 -1.8126
 7679SOL    HW227885   3.229   2.090   1.241  1.5370 -0.0313 -0.2905
 7680SOL     OW27886   2.495   3.291   9.283 -0.2379 -0.3347 -0.2249
 7680SOL    HW127887   2.496   3.301   9.188  0.3675 -0.1654 -0.2072
 7680SOL    HW227888   2.587   3.277   9.306 -0.6605 -2.9894  0.0608
 7681SOL     OW27889   1.277   0.321   7.307  0.2788  0.0277  0.1636
 7681SOL    HW127890   1.367   0.307   7.275 -0.1366 -0.6940 -0.7103
 7681SOL    HW227891   1.227   0.344   7.229 -0.6652 -1.3223  0.3595
 7682SOL     OW27892   2.811   3.917   9.481 -0.2610 -0.1648  0.0913
 7682SOL    HW127893   2.845   3.899   9.393 -0.3864 -1.6546  0.3368
 7682SOL    HW227894   2.762   3.838   9.505 -0.1120  0.1654  1.5568
 7683SOL     OW27895   2.430   2.204   8.197 -0.1249 -0.4143  0.2670
 7683SOL    HW127896   2.429   2.140   8.268 -0.8716 -1.0317 -0.2918
 7683SOL    HW227897   2.397   2.156   8.121  1.1935  0.0935 -0.6281
 7684SOL     OW27898   0.415   4.199   8.950 -0.2840  0.3536 -0.6181
 7684SOL    HW127899   0.472   4.128   8.978 -0.5520  0.3707 -0.0326
 7684SOL    HW227900   0.428   4.268   9.015 -1.5644  0.0561 -0.0441
 7685SOL     OW27901   3.182   2.382   6.566  0.6237  0.2481  0.1770
 7685SOL    HW127902   3.136   2.404   6.485 -0.3374 -1.1680  0.3121
 7685SOL    HW227903   3.202   2.289   6.558 -1.6249 -0.4995  2.5712
 7686SOL     OW27904   5.679   2.933   5.406 -0.0137 -0.3288  1.1951
 7686SOL    HW127905   5.734   2.933   5.483 -1.2872 -3.0719  2.1954
 7686SOL    HW227906   5.660   2.840   5.390  1.4015  0.0048 -3.2861
 7687SOL     OW27907   1.836   2.102   6.622 -0.0020  0.0263  0.2694
 7687SOL    HW127908   1.804   2.041   6.689 -0.9343 -0.0880 -0.2700
 7687SOL    HW227909   1.772   2.095   6.551  0.7647  0.4425 -0.4684
 7688SOL     OW27910   1.776   4.324   9.785  0.2001 -0.9352  0.2708
 7688SOL    HW127911   1.861   4.352   9.751 -0.9090  1.2649 -0.7349
 7688SOL    HW227912   1.767   4.233   9.756  1.7550 -0.8696 -0.4523
 7689SOL     OW27913   1.899   3.214   8.580 -0.1208 -0.0390 -0.1084
 7689SOL    HW127914   1.949   3.137   8.551  1.2697  0.9290 -0.3035
 7689SOL    HW227915   1.845   3.237   8.505 -0.7674 -0.9880  0.0453
 7690SOL     OW27916   1.432   1.559   7.725 -0.2104 -0.1308 -0.0752
 7690SOL    HW127917   1.414   1.543   7.632 -0.6932  0.8003 -0.1509
 7690SOL    HW227918   1.519   1.521   7.739  0.6054  1.1821 -1.3380
 7691SOL     OW27919   3.122   1.896   8.703  0.2220  0.1814  0.1201
 7691SOL    HW127920   3.098   1.980   8.742 -0.0664  0.1594 -0.0052
 7691SOL    HW227921   3.132   1.915   8.610  1.9020  0.4470  0.3365
 7692SOL     OW27922   1.138   1.295   9.374  0.2101  0.3349 -0.1470
 7692SOL    HW127923   1.051   1.309   9.411  0.6863  0.4505  0.9605
 7692SOL    HW227924   1.177   1.227   9.428  0.3830 -0.5516 -1.3732
 7693SOL     OW27925   0.382   4.435   7.602 -0.3292  0.0815  0.2745
 7693SOL    HW127926   0.360   4.486   7.524 -1.6755  0.0761  0.6411
 7693SOL    HW227927   0.311   4.453   7.663 -0.7105 -2.0415  0.4866
 7694SOL     OW27928   3.749   3.076   7.533 -0.1136 -0.2350 -0.5627
 7694SOL    HW127929   3.825   3.018   7.542 -0.3929 -0.3636  1.3295
 7694SOL    HW227930   3.674   3.017   7.528 -0.2323 -0.0790 -0.6311
 7695SOL     OW27931   1.758   2.570   8.804 -0.4407 -0.1343  0.4677
 7695SOL    HW127932   1.692   2.501   8.813  0.0680 -0.6841  0.0264
 7695SOL    HW227933   1.804   2.570   8.889  1.3869 -2.2473 -0.4758
 7696SOL     OW27934   1.991   2.796   9.999 -0.2564 -0.1028  0.4687
 7696SOL    HW127935   1.925   2.776  10.066 -1.4734  1.1309 -0.3270
 7696SOL    HW227936   1.989   2.891   9.991  0.5759 -0.1643 -0.6012
 7697SOL     OW27937   3.009   1.835   8.132  0.0445  0.4333 -0.0806
 7697SOL    HW127938   2.935   1.816   8.075  0.4118  0.4103 -0.5567
 7697SOL    HW227939   2.980   1.808   8.219 -0.8074  1.1941 -0.1224
 7698SOL     OW27940   3.503   3.300   9.448 -0.3421 -0.0177  0.1008
 7698SOL    HW127941   3.518   3.393   9.468 -2.4312  0.4179 -0.2854
 7698SOL    HW227942   3.500   3.296   9.353  2.4943 -0.9660 -0.0108
 7699SOL     OW27943   2.030   1.064   7.982  0.7239  0.4314 -0.5327
 7699SOL    HW127944   2.085   1.131   7.942 -0.9103  1.2131 -1.5613
 7699SOL    HW227945   2.023   1.090   8.074  0.0979  1.7071 -0.9246
 7700SOL     OW27946   4.060   2.176   8.538 -0.4407 -0.2118 -0.0231
 7700SOL    HW127947   4.110   2.094   8.535  0.9179  0.6482 -1.9973
 7700SOL    HW227948   4.126   2.245   8.541 -1.5736  0.8606  1.5915
 7701SOL     OW27949   2.707   3.365   0.857  0.0751  1.2305  0.3219
 7701SOL    HW127950   2.740   3.318   0.780 -2.4878 -0.8180  0.3913
 7701SOL    HW227951   2.785   3.406   0.895  2.4806 -2.7402  0.0832
 7702SOL     OW27952   1.729   1.449   8.158  0.0931 -0.1522 -0.2105
 7702SOL    HW127953   1.639   1.473   8.181  0.3621  0.8003 -0.1408
 7702SOL    HW227954   1.750   1.502   8.081 -0.1794 -2.0274 -1.6038
 7703SOL     OW27955   1.497   3.106   9.489 -0.0676  0.5634  0.1556
 7703SOL    HW127956   1.522   3.174   9.550 -0.8310  2.1099 -1.2228
 7703SOL    HW227957   1.492   3.150   9.404  0.5396 -1.4381 -0.9570
 7704SOL     OW27958   0.074   1.793   9.392  0.5645 -0.8659  0.1991
 7704SOL    HW127959  -0.002   1.809   9.337  0.0698 -0.7136  0.9235
 7704SOL    HW227960   0.148   1.791   9.331  0.5230  2.9260 -0.1035
 7705SOL     OW27961   2.907   2.628   9.039 -0.0052  0.5519 -0.7855
 7705SOL    HW127962   2.910   2.723   9.051  0.5927  0.5396 -0.8647
 7705SOL    HW227963   2.821   2.613   8.999 -0.6544  0.9176  0.4296
 7706SOL     OW27964   2.442   3.048   7.254 -0.1645  0.0044 -0.2507
 7706SOL    HW127965   2.489   3.018   7.332 -1.0272  0.7266  0.5678
 7706SOL    HW227966   2.511   3.070   7.191  0.6441  1.6746  1.1656
 7707SOL     OW27967   3.208   3.954   8.704 -0.1910  0.5360 -0.1838
 7707SOL    HW127968   3.243   3.968   8.616  0.0775 -0.8609 -0.3086
 7707SOL    HW227969   3.124   3.912   8.690 -0.6397  1.2848  0.2090
 7708SOL     OW27970   4.449   2.650   8.300 -0.2831 -0.0084 -0.2719
 7708SOL    HW127971   4.381   2.701   8.255 -1.0565 -0.7188  0.0893
 7708SOL    HW227972   4.464   2.697   8.382 -0.9320 -0.3105  0.0199
 7709SOL     OW27973   1.195   2.564   7.656  0.4069 -0.4445 -0.0387
 7709SOL    HW127974   1.182   2.646   7.609  0.2889 -1.0379 -1.0761
 7709SOL    HW227975   1.115   2.553   7.708 -0.0931 -0.4594 -0.7883
 7710SOL     OW27976   1.765   3.427   8.043 -0.0163 -0.3826  0.4575
 7710SOL    HW127977   1.816   3.371   7.985 -0.4446 -1.5536  1.1875
 7710SOL    HW227978   1.689   3.453   7.990 -0.2780 -1.2415  0.3912
 7711SOL     OW27979   2.141   4.660   0.298 -0.5049  0.3838  0.2223
 7711SOL    HW127980   2.172   4.723   0.233 -0.9659  0.7769  0.3762
 7711SOL    HW227981   2.217   4.643   0.353  0.3553 -1.2694 -1.4488
 7712SOL     OW27982   2.933   1.654   9.514 -0.6381 -0.1676  0.0500
 7712SOL    HW127983   2.902   1.744   9.522 -0.5300 -0.1424  0.1947
 7712SOL    HW227984   2.871   1.602   9.567 -0.5631 -0.1457  0.1606
 7713SOL     OW27985   4.299   3.062   8.701  0.1841  0.2936 -0.1855
 7713SOL    HW127986   4.209   3.072   8.670  0.6698  0.1521 -1.7026
 7713SOL    HW227987   4.352   3.112   8.638  0.9990  1.9383  1.7562
 7714SOL     OW27988   2.033   3.977   8.008 -0.0082  0.2203  0.3152
 7714SOL    HW127989   1.983   3.949   7.931 -1.7421  2.1629  0.6963
 7714SOL    HW227990   2.081   3.899   8.035 -2.7046 -1.6731 -0.1770
 7715SOL     OW27991   2.962   3.663   6.224 -0.1412 -0.1147  0.1015
 7715SOL    HW127992   2.881   3.621   6.253 -1.5811  1.4639 -1.4360
 7715SOL    HW227993   2.937   3.755   6.211  1.9368  0.4161 -0.3225
 7716SOL     OW27994   4.736   2.258   8.830  0.5013 -0.1908  0.3660
 7716SOL    HW127995   4.756   2.175   8.873  0.0664 -0.0392  0.8661
 7716SOL    HW227996   4.647   2.279   8.859 -0.1314 -0.5117 -1.2709
 7717SOL     OW27997   1.052   5.372   7.407  0.0402  0.0181  0.1287
 7717SOL    HW127998   1.141   5.379   7.372  0.5880  0.6224  1.6034
 7717SOL    HW227999   1.001   5.335   7.335  1.4876 -0.3698 -0.7248
 7718SOL     OW28000   4.733   3.477   9.273 -0.3186 -0.3169  0.6667
 7718SOL    HW128001   4.803   3.542   9.274 -1.2897  0.7594  0.5337
 7718SOL    HW228002   4.653   3.529   9.280 -1.0512 -1.6026  2.3271
 7719SOL     OW28003   1.631   1.328   9.518 -0.2503 -0.5816  0.1671
 7719SOL    HW128004   1.685   1.372   9.583 -0.4544  1.5804 -1.0847
 7719SOL    HW228005   1.667   1.355   9.434 -0.0930 -3.2148 -0.6755
 7720SOL     OW28006   0.699   0.060   7.432 -0.1517 -0.0412  0.6008
 7720SOL    HW128007   0.628   0.066   7.368 -0.8759 -1.7172  1.2027
 7720SOL    HW228008   0.722  -0.033   7.433  2.7482  0.6181 -0.3078
 7721SOL     OW28009   3.173   3.510   8.228 -0.0196 -0.3975  0.1430
 7721SOL    HW128010   3.261   3.523   8.194 -1.1468  0.5562 -2.5515
 7721SOL    HW228011   3.152   3.419   8.209  0.5270 -0.7320  1.1383
 7722SOL     OW28012   5.635   2.766   9.300 -0.0778 -0.1769  0.3354
 7722SOL    HW128013   5.698   2.712   9.348  0.4831  1.6903  1.7636
 7722SOL    HW228014   5.560   2.774   9.358 -0.6581 -0.4260 -0.3773
 7723SOL     OW28015   2.411   3.599   9.977  0.8837  0.2622 -0.3008
 7723SOL    HW128016   2.355   3.522   9.966  0.8727  0.4198 -1.4403
 7723SOL    HW228017   2.388   3.633  10.064  0.3949 -0.6174 -0.0798
 7724SOL     OW28018   4.327   2.860   9.971  0.4633  0.1711 -0.0250
 7724SOL    HW128019   4.300   2.902   9.889 -0.9599 -1.7522 -0.5656
 7724SOL    HW228020   4.276   2.779   9.974  2.4596 -1.0525  1.4704
 7725SOL     OW28021   2.675   2.221   8.808 -0.2713 -0.2910 -0.3745
 7725SOL    HW128022   2.638   2.175   8.733  1.2234 -0.5202 -0.9826
 7725SOL    HW228023   2.738   2.282   8.771  0.2803 -0.2041  0.6683
 7726SOL     OW28024   3.584   4.378   9.837 -0.0575  1.1363 -0.3194
 7726SOL    HW128025   3.555   4.359   9.748 -1.2229  1.5770 -0.0344
 7726SOL    HW228026   3.504   4.401   9.884  0.2532 -0.9128  1.3123
 7727SOL     OW28027   0.202   3.519   8.504 -0.1160 -0.3964 -0.1022
 7727SOL    HW128028   0.245   3.598   8.537 -0.7844 -0.1569  0.2051
 7727SOL    HW228029   0.168   3.543   8.418 -1.3892  0.0387  0.5013
 7728SOL     OW28030   3.446   3.928   7.543 -0.1418  0.5889 -0.1809
 7728SOL    HW128031   3.393   3.980   7.483 -0.8068  0.2438  0.1068
 7728SOL    HW228032   3.450   3.980   7.624 -2.7426 -0.8155  0.9167
 7729SOL     OW28033   2.267   2.443   8.482 -0.1738  0.4380 -0.7275
 7729SOL    HW128034   2.187   2.397   8.457  0.7114 -1.6486  0.2009
 7729SOL    HW228035   2.243   2.493   8.560 -0.9087  0.9135 -1.2489
 7730SOL     OW28036   1.482   1.519   7.286  0.3707  0.3357  0.3047
 7730SOL    HW128037   1.443   1.607   7.292  1.5180  0.7645  1.5163
 7730SOL    HW228038   1.564   1.532   7.238  0.3304 -0.1503  0.1009
 7731SOL     OW28039   3.063   4.160   9.189  0.0921 -0.3604  1.3116
 7731SOL    HW128040   3.134   4.167   9.253  0.0704 -1.9058  1.5228
 7731SOL    HW228041   3.102   4.109   9.117  0.6878  2.8330 -0.7356
 7732SOL     OW28042   1.978   2.486   6.621 -0.4720 -0.2348 -0.8760
 7732SOL    HW128043   1.973   2.480   6.526  2.2651  0.7775 -1.1194
 7732SOL    HW228044   1.893   2.523   6.647 -0.3740  1.6899 -3.1449
 7733SOL     OW28045   2.751   2.857   8.764 -0.5837  0.2285 -0.2936
 7733SOL    HW128046   2.785   2.898   8.843 -0.0553  0.3003 -0.5542
 7733SOL    HW228047   2.749   2.928   8.699 -2.5532  0.5613  0.1001
 7734SOL     OW28048   3.631   2.215   8.903  0.5458 -0.5684  0.6055
 7734SOL    HW128049   3.544   2.242   8.875  0.7856  0.7563  1.0766
 7734SOL    HW228050   3.659   2.150   8.838  0.1268  0.6872 -0.8606
 7735SOL     OW28051   2.202   4.006   9.186  0.1926 -1.1828  0.2181
 7735SOL    HW128052   2.198   4.092   9.227 -1.4256 -1.5049  0.7604
 7735SOL    HW228053   2.281   3.966   9.222 -0.6769 -1.0742  2.2897
 7736SOL     OW28054   2.796   1.873   9.496 -0.0786  0.5211  0.0835
 7736SOL    HW128055   2.737   1.906   9.564  0.7930  1.5684  0.3361
 7736SOL    HW228056   2.811   1.948   9.439  1.2322  0.3378  0.1787
 7737SOL     OW28057   4.235   2.266   9.755 -0.1452 -0.0038  0.1649
 7737SOL    HW128058   4.184   2.188   9.732  0.6003 -0.5414  0.3186
 7737SOL    HW228059   4.284   2.286   9.675 -0.9332  0.7960 -0.1386
 7738SOL     OW28060   0.948   5.169   6.845  0.4910 -0.1420  0.1028
 7738SOL    HW128061   0.988   5.166   6.932  1.1890 -3.2731 -0.2573
 7738SOL    HW228062   0.860   5.134   6.858 -0.5281  2.2802  0.0432
 7739SOL     OW28063   3.927   1.990   7.376 -0.9247  0.0259 -0.4183
 7739SOL    HW128064   3.924   2.081   7.406  1.5970  0.6060 -1.7818
 7739SOL    HW228065   3.875   1.989   7.296 -1.0791  0.2277 -0.3202
 7740SOL     OW28066   3.717   3.691   7.854 -0.2945 -0.0636 -0.2463
 7740SOL    HW128067   3.763   3.609   7.836  1.5925  0.9956 -0.3825
 7740SOL    HW228068   3.674   3.713   7.772 -1.8881 -1.5563  0.1537
 7741SOL     OW28069   0.779   2.043   7.859 -0.2651  0.3016  0.1445
 7741SOL    HW128070   0.789   1.948   7.850 -0.2509  0.4227 -1.2157
 7741SOL    HW228071   0.824   2.063   7.941  0.5715 -0.7451 -0.0314
 7742SOL     OW28072   4.473   2.814   8.521  0.0743 -0.1544  0.3004
 7742SOL    HW128073   4.491   2.905   8.544  0.1787  0.0962 -0.7076
 7742SOL    HW228074   4.537   2.763   8.571  2.4370  0.5894 -1.8298
 7743SOL     OW28075   2.840   3.982   7.072 -0.0116  0.2558  0.0902
 7743SOL    HW128076   2.794   4.063   7.096  0.6240  0.4682  0.6190
 7743SOL    HW228077   2.876   4.001   6.985  1.3671  1.0812  0.8271
 7744SOL     OW28078   1.300   2.720   6.796 -0.1624 -0.0795  0.4076
 7744SOL    HW128079   1.230   2.698   6.858 -0.0231 -0.4944  0.4177
 7744SOL    HW228080   1.256   2.768   6.726 -1.0024 -2.9507 -1.1314
 7745SOL     OW28081   3.990   3.850   0.375  0.5480  0.0486  0.7919
 7745SOL    HW128082   3.933   3.781   0.339  0.8793  0.4578 -0.5357
 7745SOL    HW228083   3.942   3.931   0.360  1.2708  0.3491  0.0823
 7746SOL     OW28084   2.862   2.403   8.726  0.0985 -0.6681  0.0985
 7746SOL    HW128085   2.813   2.457   8.788 -0.0372  0.1349 -0.6906
 7746SOL    HW228086   2.928   2.463   8.690  1.3295 -1.5983  0.7696
 7747SOL     OW28087   2.392   3.042   6.263 -0.4815 -0.3937 -0.0504
 7747SOL    HW128088   2.463   3.083   6.214 -1.2378  0.2543 -0.6231
 7747SOL    HW228089   2.431   3.016   6.346  0.9166 -1.8377 -1.1462
 7748SOL     OW28090   1.121   3.436   8.148 -0.5317 -0.0515 -0.0837
 7748SOL    HW128091   1.139   3.392   8.065  0.4855 -0.1901  0.2016
 7748SOL    HW228092   1.077   3.370   8.201  0.3507 -0.4977  0.0895
 7749SOL     OW28093   0.797   4.327   0.127 -0.4368 -1.0190 -0.0956
 7749SOL    HW128094   0.833   4.286   0.049  2.2788  0.1072  0.4914
 7749SOL    HW228095   0.816   4.265   0.197  0.9745 -0.1464  0.3162
 7750SOL     OW28096   3.242   3.138   8.906 -0.6847 -0.6058 -0.3198
 7750SOL    HW128097   3.276   3.224   8.931  1.0512 -0.9914 -1.2727
 7750SOL    HW228098   3.163   3.127   8.959  0.4168  0.5320  1.6441
 7751SOL     OW28099   1.451   4.111   1.131  0.0882 -0.0561  0.3861
 7751SOL    HW128100   1.520   4.046   1.142  0.7026  0.7280  1.1932
 7751SOL    HW228101   1.474   4.182   1.191  0.5118  1.8313 -1.9431
 7752SOL     OW28102   1.906   3.428   9.178 -0.9150  0.4422  0.0061
 7752SOL    HW128103   1.811   3.432   9.186 -0.7892  1.5685  1.0126
 7752SOL    HW228104   1.939   3.449   9.265  0.2638 -0.2100 -0.2631
 7753SOL     OW28105   0.382   1.220   9.021  0.4571 -0.2803  0.6855
 7753SOL    HW128106   0.460   1.229   8.966  0.2077  1.3043  0.5778
 7753SOL    HW228107   0.385   1.129   9.051 -0.0219 -1.5707 -2.9028
 7754SOL     OW28108   2.432   1.458   8.755  0.2298  0.2501  0.1192
 7754SOL    HW128109   2.444   1.379   8.808  0.1267  2.0206  2.8657
 7754SOL    HW228110   2.520   1.482   8.728  0.1445 -1.4967 -1.8330
 7755SOL     OW28111   1.386   2.651   9.448  0.1981 -0.7028  0.2317
 7755SOL    HW128112   1.407   2.701   9.369  0.2841 -0.9166  0.1211
 7755SOL    HW228113   1.300   2.613   9.430 -1.4973  2.2416  1.6757
 7756SOL     OW28114   3.802   2.249   8.068  0.4054  0.5025 -0.3318
 7756SOL    HW128115   3.794   2.303   7.989 -0.1022 -0.9900 -1.3203
 7756SOL    HW228116   3.713   2.243   8.103  0.3808 -0.0711 -0.4855
 7757SOL     OW28117   1.218   1.851   8.706  0.2082  0.3568 -0.3235
 7757SOL    HW128118   1.157   1.788   8.668  1.3446 -1.0373  0.1192
 7757SOL    HW228119   1.172   1.935   8.701 -1.6023 -0.6126 -0.2829
 7758SOL     OW28120   2.289   4.290   7.579 -0.0675 -0.6044 -0.0943
 7758SOL    HW128121   2.276   4.249   7.493  1.2657  0.4950 -0.8482
 7758SOL    HW228122   2.317   4.218   7.636 -0.4289 -1.2425 -0.7057
 7759SOL     OW28123   3.350   1.627   8.676 -0.6865 -0.1451 -0.3716
 7759SOL    HW128124   3.397   1.649   8.596 -0.0284  2.3662  0.6549
 7759SOL    HW228125   3.419   1.603   8.738 -0.8887  1.5353  0.5283
 7760SOL     OW28126   2.124   3.510   8.095 -0.1096 -0.1909  0.1012
 7760SOL    HW128127   2.046   3.487   8.145 -1.3479 -0.1719 -1.7558
 7760SOL    HW228128   2.147   3.598   8.125  0.5622 -1.0608  2.2653
 7761SOL     OW28129   3.741   2.993   8.887  0.1118  0.6080  0.8359
 7761SOL    HW128130   3.701   2.909   8.861 -2.1615  1.6631  0.7725
 7761SOL    HW228131   3.829   2.969   8.917 -0.7658 -1.9217  1.5866
 7762SOL     OW28132   1.272   1.195   7.674  0.4248  0.2000 -0.1417
 7762SOL    HW128133   1.367   1.178   7.679  0.2303 -0.8672  0.1023
 7762SOL    HW228134   1.264   1.273   7.620  1.5797  1.4516  1.4521
 7763SOL     OW28135   1.923   4.258   7.873 -0.2350  0.4639  0.2124
 7763SOL    HW128136   1.829   4.241   7.860  0.1676 -1.1111 -0.8161
 7763SOL    HW228137   1.932   4.272   7.967 -1.6583  1.6692  0.1909
 7764SOL     OW28138   3.864   2.708   8.657 -0.3532  0.0965 -0.8554
 7764SOL    HW128139   3.930   2.656   8.613  2.2689  2.9431 -0.4871
 7764SOL    HW228140   3.798   2.645   8.685  2.4073 -2.8997 -0.8450
 7765SOL     OW28141   2.063   3.961   1.388  0.4448  0.4305 -0.3504
 7765SOL    HW128142   2.099   3.873   1.387 -2.8983 -1.0487  1.3234
 7765SOL    HW228143   2.043   3.980   1.296 -0.5711 -1.3169 -0.5044
 7766SOL     OW28144   0.308   3.579   0.462  0.3392 -0.0984 -0.0144
 7766SOL    HW128145   0.394   3.545   0.437 -0.9177 -2.7973 -0.9034
 7766SOL    HW228146   0.259   3.582   0.380 -1.3335 -1.4008  0.9184
 7767SOL     OW28147   1.263   2.063   9.113  0.1134 -0.1439 -0.1931
 7767SOL    HW128148   1.188   2.011   9.083  0.4447  1.0869 -3.2661
 7767SOL    HW228149   1.323   1.999   9.151 -1.1999 -1.5054 -0.3858
 7768SOL     OW28150   1.584   2.370   8.885  0.0199  0.3699  0.0443
 7768SOL    HW128151   1.547   2.294   8.842 -0.3313  1.0244 -0.8081
 7768SOL    HW228152   1.631   2.334   8.961 -2.4526 -0.4394  1.2301
 7769SOL     OW28153   3.721   2.476   9.340  0.1778 -0.3991  0.0908
 7769SOL    HW128154   3.752   2.566   9.341 -1.7644  0.3100  2.7189
 7769SOL    HW228155   3.652   2.475   9.273  1.4718 -0.4229 -1.2563
 7770SOL     OW28156   2.761   1.031   7.817  0.0242 -0.0343 -0.6981
 7770SOL    HW128157   2.715   1.035   7.733 -0.8658  2.4086 -0.1411
 7770SOL    HW228158   2.705   0.977   7.873  0.3399 -1.1979 -1.4773
 7771SOL     OW28159   5.083   3.064   0.129  0.5242 -0.3253  0.6220
 7771SOL    HW128160   5.124   3.142   0.091 -0.0597 -0.6499 -0.7092
 7771SOL    HW228161   5.009   3.045   0.070  0.2584 -1.4880  1.3174
 7772SOL     OW28162   3.191   3.762   9.900  0.3397  1.0557 -0.3284
 7772SOL    HW128163   3.192   3.752   9.805  0.8986  2.5610 -0.4863
 7772SOL    HW228164   3.130   3.695   9.930  2.9849 -1.9797 -1.4442
 7773SOL     OW28165   3.755   3.271   9.719  0.2773 -0.1719 -0.1660
 7773SOL    HW128166   3.706   3.236   9.793  0.2607  0.7946  0.2898
 7773SOL    HW228167   3.732   3.215   9.646  0.0915 -0.9783  0.5047
 7774SOL     OW28168   1.824   1.662   9.448  0.4833  0.3795 -0.0504
 7774SOL    HW128169   1.909   1.700   9.471 -0.2464  1.8159  0.3219
 7774SOL    HW228170   1.764   1.736   9.446 -0.6353 -0.5229 -1.0069
 7775SOL     OW28171   3.200   1.861   1.009 -0.4176  0.6371  0.0251
 7775SOL    HW128172   3.220   1.820   0.925  1.5797  0.3517  0.6130
 7775SOL    HW228173   3.106   1.877   1.006 -0.3559  0.7060 -2.2906
 7776SOL     OW28174   2.228   2.295   1.248 -0.1708  0.0914 -0.5822
 7776SOL    HW128175   2.291   2.357   1.284  1.9275 -1.9290 -0.6269
 7776SOL    HW228176   2.200   2.333   1.165  1.7420  0.5490 -1.0247
 7777SOL     OW28177   3.718   2.801   9.711 -0.0467  0.1057  0.2593
 7777SOL    HW128178   3.694   2.712   9.738  1.0854 -0.5629 -0.8669
 7777SOL    HW228179   3.667   2.816   9.631  0.7763 -0.0420 -0.2917
 7778SOL     OW28180   1.616   2.026   2.662  0.1354 -0.2237  0.4240
 7778SOL    HW128181   1.616   2.087   2.736 -0.3470 -0.8381  0.9391
 7778SOL    HW228182   1.709   2.013   2.643  0.2369  1.0572 -0.0255
 7779SOL     OW28183   2.294   2.018   9.169 -0.6642  0.1948 -0.5730
 7779SOL    HW128184   2.355   1.965   9.220 -1.3541 -0.4148 -0.3817
 7779SOL    HW228185   2.209   1.977   9.182 -1.2085  1.3506 -0.4306
 7780SOL     OW28186   3.820   4.044   0.270  0.1378 -0.1303 -0.4500
 7780SOL    HW128187   3.733   4.078   0.289  0.6997  0.5889  0.8562
 7780SOL    HW228188   3.848   4.092   0.192  0.0984  0.9344  0.1881
 7781SOL     OW28189   2.410   2.884   9.887  0.6244 -0.1787 -0.0316
 7781SOL    HW128190   2.423   2.801   9.932 -0.2160 -1.3191 -1.8112
 7781SOL    HW228191   2.348   2.932   9.942  1.0399 -0.7641  0.9591
 7782SOL     OW28192   3.013   4.157   0.236 -0.1647 -0.2045  0.0459
 7782SOL    HW128193   2.931   4.131   0.277  0.2245 -0.8909  0.3939
 7782SOL    HW228194   3.005   4.128   0.145  0.5926 -2.3024  0.6213
 7783SOL     OW28195   3.506   2.797   0.483 -0.1392  0.3526 -0.4940
 7783SOL    HW128196   3.412   2.813   0.488 -0.3767 -1.1985  0.3588
 7783SOL    HW228197   3.531   2.828   0.396 -1.3524  1.1473 -0.5743
 7784SOL     OW28198   1.700   2.871   9.128  0.0157  0.7653 -0.0896
 7784SOL    HW128199   1.736   2.876   9.039 -2.9590 -0.8007 -1.4543
 7784SOL    HW228200   1.693   2.777   9.145  0.7244  1.0578  1.9042
 7785SOL     OW28201   3.832   4.509   0.161 -0.4489  0.4639 -0.2847
 7785SOL    HW128202   3.907   4.476   0.209 -0.0299  0.1287 -1.1484
 7785SOL    HW228203   3.757   4.494   0.219  0.0006 -0.2208  0.1225
 7786SOL     OW28204   2.240   2.793   9.181 -0.3803 -0.3022 -0.1232
 7786SOL    HW128205   2.226   2.716   9.126  0.4585  0.0283 -0.8145
 7786SOL    HW228206   2.281   2.759   9.260  3.5846 -0.1674 -1.9969
 7787SOL     OW28207   2.185   3.772   0.552  0.2194 -0.1516 -0.5368
 7787SOL    HW128208   2.171   3.864   0.573  1.1786 -0.1904  0.3023
 7787SOL    HW228209   2.224   3.735   0.631 -1.5499 -1.6257 -0.3150
 7788SOL     OW28210   3.920   1.315   9.698  0.1105  0.0737 -0.6685
 7788SOL    HW128211   3.936   1.229   9.736 -1.1434 -0.2154 -0.7914
 7788SOL    HW228212   4.007   1.345   9.670  0.3884 -1.6710 -1.7351
 7789SOL     OW28213   1.669   3.127   0.823  0.0271 -0.2365  0.2942
 7789SOL    HW128214   1.705   3.120   0.735 -1.3411 -0.7916 -0.2379
 7789SOL    HW228215   1.656   3.221   0.837 -1.5858 -0.2762 -0.8597
 7790SOL     OW28216   2.626   2.223   9.784 -0.9507 -0.3838  0.1220
 7790SOL    HW128217   2.636   2.251   9.875 -2.0738  1.6978 -0.3573
 7790SOL    HW228218   2.535   2.244   9.763 -0.1918  0.8990 -2.0500
 7791SOL     OW28219   2.535   1.381   0.749  0.0721  0.2317  0.3648
 7791SOL    HW128220   2.515   1.334   0.669  0.9452 -0.4027  0.5093
 7791SOL    HW228221   2.460   1.365   0.806 -0.0412 -0.2603  0.0802
 7792SOL     OW28222   1.605   1.195   1.010 -0.3429 -0.2592  0.7793
 7792SOL    HW128223   1.575   1.104   1.008  0.3360 -0.4896 -2.6531
 7792SOL    HW228224   1.539   1.244   0.961  0.1972  0.7848  1.0683
 7793SOL     OW28225   2.919   1.941   1.053 -0.3280  0.6149  0.0913
 7793SOL    HW128226   2.901   1.934   1.146 -2.0810 -0.0698 -0.2746
 7793SOL    HW228227   2.842   1.902   1.011  1.3018 -0.9103 -1.5958
 7794SOL     OW28228   2.254   1.956   1.019  0.1274  0.2445  0.2571
 7794SOL    HW128229   2.300   1.889   1.069 -0.2371 -0.5597 -0.4600
 7794SOL    HW228230   2.161   1.935   1.031  0.0450 -0.2032 -1.0626
 7795SOL     OW28231   3.875   3.116   1.705  0.6217 -0.4545  0.4984
 7795SOL    HW128232   3.797   3.078   1.663  1.2212 -1.2492  0.1077
 7795SOL    HW228233   3.915   3.171   1.637  1.4547 -1.5466  0.0961
 7796SOL     OW28234   3.391   3.911   9.428  0.2020 -0.2524  0.6893
 7796SOL    HW128235   3.379   3.896   9.522 -1.0819  1.1194  0.7633
 7796SOL    HW228236   3.312   3.958   9.401  0.7576 -0.2608 -0.9940
 7797SOL     OW28237   2.555   1.970   9.645  0.4264 -0.2462 -0.2798
 7797SOL    HW128238   2.562   2.048   9.700  0.8149  0.7085 -1.6604
 7797SOL    HW228239   2.510   1.906   9.700  0.9550  0.6344  1.1988
 7798SOL     OW28240   3.942   2.675   9.263  0.2808 -0.2189  0.0825
 7798SOL    HW128241   3.882   2.739   9.224  0.4698 -1.0674 -1.6412
 7798SOL    HW228242   3.992   2.726   9.327  0.9351  1.5462 -1.7541
 7799SOL     OW28243   2.185   3.480   9.642  0.0537  0.5746 -0.2525
 7799SOL    HW128244   2.135   3.438   9.572 -1.2333  0.7271  0.5771
 7799SOL    HW228245   2.124   3.489   9.714  1.4192  0.2876  0.9644
 7800SOL     OW28246   3.782   3.799   9.353 -0.1791  0.1322  0.6151
 7800SOL    HW128247   3.731   3.879   9.367 -0.9966 -0.2120 -0.3012
 7800SOL    HW228248   3.719   3.728   9.365 -0.1768 -0.2728 -1.4863
 7801SOL     OW28249   1.044   1.305   9.667 -0.1971  0.1853  0.7703
 7801SOL    HW128250   1.133   1.332   9.690 -0.1430  0.6073  0.0843
 7801SOL    HW228251   1.054   1.219   9.627 -0.2912 -0.5526  2.2989
 7802SOL     OW28252   2.656   2.312   9.171 -0.5790 -0.6403  0.4204
 7802SOL    HW128253   2.638   2.390   9.223 -0.9077  0.1234 -0.8058
 7802SOL    HW228254   2.588   2.312   9.103  0.3558 -1.1198 -0.5392
 7803SOL     OW28255   2.529   3.246   8.990  0.6414 -0.2313 -0.0094
 7803SOL    HW128256   2.451   3.300   8.977  0.8596  0.4389  1.4384
 7803SOL    HW228257   2.496   3.159   9.010  0.2383  0.2227  1.3539
 7804SOL     OW28258   2.758   2.840   0.151 -0.3424  0.4333  0.3245
 7804SOL    HW128259   2.671   2.875   0.172 -0.2225  0.0054  1.6399
 7804SOL    HW228260   2.800   2.829   0.237  1.1646  1.0230 -0.3328
 7805SOL     OW28261   4.409   1.643   9.513  0.1604  0.2256 -0.0815
 7805SOL    HW128262   4.453   1.703   9.573 -0.9821  0.3383  0.6620
 7805SOL    HW228263   4.402   1.561   9.561  1.2589 -0.3484 -0.9054
 7806SOL     OW28264   2.783   2.824   9.781 -0.1824 -0.5674 -0.1323
 7806SOL    HW128265   2.733   2.845   9.702 -2.7081 -0.6099  1.4020
 7806SOL    HW228266   2.724   2.770   9.833  1.5015 -0.6706  1.7356
 7807SOL     OW28267   1.730   1.098   9.749  0.5125 -0.6516  0.1002
 7807SOL    HW128268   1.650   1.127   9.794  2.2586  2.0273  1.6039
 7807SOL    HW228269   1.801   1.120   9.809  2.6374 -0.3473 -2.4425
 7808SOL     OW28270   3.766   3.377   8.436 -0.8345 -0.4272 -0.1516
 7808SOL    HW128271   3.694   3.316   8.419 -0.5052 -0.6822 -0.6609
 7808SOL    HW228272   3.818   3.335   8.505 -2.6015  0.9653  2.0961
 7809SOL     OW28273   2.915   4.136   8.555 -0.1900 -0.1003  0.3003
 7809SOL    HW128274   2.967   4.057   8.539 -0.8823  0.0496 -2.9517
 7809SOL    HW228275   2.957   4.203   8.501 -0.7910  1.2831  1.5348
 7810SOL     OW28276   1.998   3.474   7.793 -0.0690 -0.6419  0.2380
 7810SOL    HW128277   2.036   3.492   7.879 -0.1031 -0.3154  0.1827
 7810SOL    HW228278   1.957   3.388   7.803 -1.6823  0.2046  1.0778
 7811SOL     OW28279   1.801   2.942   9.457  0.2157 -0.6361  0.3866
 7811SOL    HW128280   1.750   3.019   9.483  0.6589 -0.2724  0.1875
 7811SOL    HW228281   1.743   2.868   9.475 -1.1251 -0.1129 -1.5779
 7812SOL     OW28282   3.037   3.268   8.209 -0.3987 -0.2995  0.3178
 7812SOL    HW128283   3.054   3.261   8.115  1.9032 -2.1144  0.8021
 7812SOL    HW228284   2.970   3.202   8.226  0.6441 -1.4066  0.2399
 7813SOL     OW28285   3.771   1.858   9.153 -0.2753  0.0952  0.5361
 7813SOL    HW128286   3.793   1.854   9.060 -0.0125 -0.7910  0.6247
 7813SOL    HW228287   3.675   1.860   9.155 -0.2659  1.6165  0.2120
 7814SOL     OW28288   4.578   3.547   9.748  0.4320 -0.3450  0.5650
 7814SOL    HW128289   4.598   3.611   9.679  0.3065  1.7415  2.4118
 7814SOL    HW228290   4.526   3.596   9.811  0.4765 -2.2585  2.1082
 7815SOL     OW28291   3.319   2.218   1.614  0.5130  0.7362  0.5305
 7815SOL    HW128292   3.262   2.145   1.588  2.5424  0.2092 -2.6375
 7815SOL    HW228293   3.379   2.180   1.678  0.3848  0.0643  0.2520
 7816SOL     OW28294   2.692   3.406   8.834  0.3614  0.1206 -0.3120
 7816SOL    HW128295   2.626   3.426   8.767 -0.2857  2.0524  0.8529
 7816SOL    HW228296   2.642   3.363   8.904  0.5227  0.5662  0.0834
 7817SOL     OW28297   1.418   4.062   9.010 -1.1299  0.6251  0.2498
 7817SOL    HW128298   1.372   4.009   8.945  2.0292  1.2407 -2.6625
 7817SOL    HW228299   1.503   4.018   9.019 -0.6822  1.8548  2.3053
 7818SOL     OW28300   2.936   4.255   9.927 -0.6620 -0.0575  0.3242
 7818SOL    HW128301   2.954   4.229   9.836 -2.1094 -0.7296  0.2167
 7818SOL    HW228302   2.984   4.193   9.980  0.1395  0.2966  0.0212
 7819SOL     OW28303   3.137   2.319   0.466  0.2926  0.1096  0.1866
 7819SOL    HW128304   3.191   2.240   0.468 -0.7559 -0.6484 -1.3171
 7819SOL    HW228305   3.047   2.287   0.468 -0.1480  1.3584  2.1826
 7820SOL     OW28306   3.864   2.313   9.853 -0.3509  0.0930  0.2152
 7820SOL    HW128307   3.939   2.271   9.895 -0.5873  0.5879  1.1722
 7820SOL    HW228308   3.794   2.248   9.860 -0.4665  0.2812  0.8564
 7821SOL     OW28309   2.286   2.980   1.079 -0.0232 -0.1783  0.7475
 7821SOL    HW128310   2.291   3.075   1.070  1.6848 -0.4192 -1.1193
 7821SOL    HW228311   2.203   2.965   1.126 -1.4657  2.1084 -0.9567
 7822SOL     OW28312   2.125   1.011   0.727  0.4992 -0.2840 -0.0343
 7822SOL    HW128313   2.136   0.917   0.738  0.1091 -0.3762 -0.4156
 7822SOL    HW228314   2.172   1.032   0.647 -0.6490 -0.4036 -0.7548
 7823SOL     OW28315   3.864   1.930   0.545  0.8988 -0.0110  0.1898
 7823SOL    HW128316   3.858   1.857   0.606  0.8207  0.2747  0.5253
 7823SOL    HW228317   3.913   1.997   0.593  1.2803  0.0262 -0.2426
 7824SOL     OW28318   1.951   1.848   1.577  0.2921 -0.3307 -0.0632
 7824SOL    HW128319   1.895   1.925   1.564  0.9331  0.4665  1.6062
 7824SOL    HW228320   1.895   1.773   1.556  0.2879  0.6565 -3.7768
 7825SOL     OW28321   2.956   1.157   1.156  0.1631 -0.2508  0.0280
 7825SOL    HW128322   3.028   1.185   1.099 -0.9501  0.1572 -1.2141
 7825SOL    HW228323   2.990   1.080   1.202  0.5714 -1.5802 -2.3895
 7826SOL     OW28324   4.252   2.046   9.406 -0.0365 -0.3094  0.2761
 7826SOL    HW128325   4.250   2.063   9.312 -0.6683  0.4664  0.4269
 7826SOL    HW228326   4.282   2.128   9.445 -1.8632  0.0846  0.9045
 7827SOL     OW28327   4.883   3.109   9.008  0.0384  0.5990 -0.5421
 7827SOL    HW128328   4.816   3.173   9.033 -1.2528 -1.4690  1.6505
 7827SOL    HW228329   4.966   3.153   9.023 -0.7599  0.8077  3.9876
 7828SOL     OW28330   2.268   0.577   8.098 -0.4687  0.2061  0.4510
 7828SOL    HW128331   2.225   0.541   8.020  0.8218  2.0690 -1.1880
 7828SOL    HW228332   2.201   0.576   8.166 -2.1033  0.0283 -1.1398
 7829SOL     OW28333   2.521   2.150   1.104  0.1652  0.1756 -0.2391
 7829SOL    HW128334   2.487   2.209   1.036  0.8197 -1.6953 -2.2613
 7829SOL    HW228335   2.443   2.108   1.141 -0.2299  1.5594  0.5250
 7830SOL     OW28336   1.895   1.760   0.307  0.3239 -0.2114 -0.2349
 7830SOL    HW128337   1.986   1.782   0.288  1.0720 -1.2827  1.9391
 7830SOL    HW228338   1.845   1.833   0.270  2.1291  0.9914 -0.3992
 7831SOL     OW28339   2.062   2.976   9.100 -0.1292  0.0006 -0.0481
 7831SOL    HW128340   2.051   2.975   9.005 -0.9907 -1.5304  0.0595
 7831SOL    HW228341   2.130   2.911   9.117 -0.3378 -0.0920  0.4387
 7832SOL     OW28342   3.154   9.968   9.871  0.2479  0.2631  0.9320
 7832SOL    HW128343   3.101  10.047   9.878  0.6080  0.5383  0.5890
 7832SOL    HW228344   3.240   9.993   9.904  0.7863  0.4392 -0.5559
 7833SOL     OW28345   3.840   2.797   0.148  0.1234 -1.1126 -0.4709
 7833SOL    HW128346   3.841   2.719   0.092 -0.2720 -2.4432  1.3337
 7833SOL    HW228347   3.834   2.763   0.237  1.4512  0.9455  0.4498
 7834SOL     OW28348   3.187   3.743   0.471 -0.3596 -0.7556 -0.3594
 7834SOL    HW128349   3.198   3.718   0.379 -1.7581 -0.6837 -0.5518
 7834SOL    HW228350   3.175   3.660   0.517 -1.5224 -0.6740 -0.5082
 7835SOL     OW28351   1.458   4.659   0.058  0.4386  0.2905  0.7313
 7835SOL    HW128352   1.512   4.655  -0.021 -1.4770 -1.0651 -0.5626
 7835SOL    HW228353   1.433   4.751   0.066  0.8187  0.4686 -0.1516
 7836SOL     OW28354   3.422   4.005   0.951 -0.2049  0.0362 -1.0960
 7836SOL    HW128355   3.473   4.078   0.915 -0.6443 -0.1017 -2.0082
 7836SOL    HW228356   3.353   4.048   1.003  1.0661  0.2154  0.4895
 7837SOL     OW28357   1.555   4.716   1.965  0.5975 -0.1226 -0.2057
 7837SOL    HW128358   1.625   4.657   1.993  0.4461  0.0607  0.5754
 7837SOL    HW228359   1.513   4.744   2.047  1.2935  1.8426 -0.4974
 7838SOL     OW28360   3.832   5.904   2.776 -0.2646 -0.4520 -0.0713
 7838SOL    HW128361   3.799   5.833   2.832 -0.6242  0.5762  1.0410
 7838SOL    HW228362   3.894   5.861   2.717 -0.2434 -1.6465  0.7972
 7839SOL     OW28363   4.252   3.478   1.031  0.8446  0.2033 -0.1551
 7839SOL    HW128364   4.291   3.529   1.102  1.9774 -1.2344  0.2730
 7839SOL    HW228365   4.163   3.460   1.060  1.1490  0.0425  0.6780
 7840SOL     OW28366   5.297   3.613   9.779  1.1712  0.4774 -0.1656
 7840SOL    HW128367   5.337   3.603   9.865 -0.3068  0.4894  0.5290
 7840SOL    HW228368   5.207   3.639   9.797  0.9694  0.9053 -1.7228
 7841SOL     OW28369   1.509   5.850   1.071 -0.0142 -0.1262 -0.1910
 7841SOL    HW128370   1.525   5.874   1.162 -0.0772  0.7037 -0.3989
 7841SOL    HW228371   1.567   5.907   1.021 -1.3739  0.7700 -0.7754
 7842SOL     OW28372   2.487   5.253   1.116  0.0092 -0.0384  0.1629
 7842SOL    HW128373   2.513   5.300   1.037  0.1722  0.0499  0.2663
 7842SOL    HW228374   2.408   5.205   1.092  1.1237 -1.5247 -0.6012
 7843SOL     OW28375   1.328   5.550   0.506 -0.1894 -0.9220 -0.1639
 7843SOL    HW128376   1.403   5.537   0.565  1.3774  1.4660 -1.5871
 7843SOL    HW228377   1.258   5.583   0.564  1.1733  0.9215  0.4806
 7844SOL     OW28378   3.050   5.573   0.442  0.2949  0.2366 -0.3760
 7844SOL    HW128379   3.026   5.652   0.395  2.5200  0.3100 -1.4723
 7844SOL    HW228380   3.055   5.599   0.533 -0.8658  0.8909 -0.4989
 7845SOL     OW28381   2.902   5.161   9.889  0.0325 -0.2395  0.3711
 7845SOL    HW128382   2.873   5.182   9.978 -1.4676  0.2270 -0.2080
 7845SOL    HW228383   2.966   5.229   9.868  0.2131 -0.2122  1.0006
 7846SOL     OW28384   1.970   6.382   0.566 -0.4016 -0.1086 -0.8557
 7846SOL    HW128385   1.964   6.391   0.470 -0.9199 -1.2653 -0.9429
 7846SOL    HW228386   1.950   6.290   0.582  0.8583 -0.2009  0.2804
 7847SOL     OW28387   1.764   3.376   1.145  0.0633 -0.2307 -0.1556
 7847SOL    HW128388   1.738   3.407   1.058  1.1759  0.2563 -0.3175
 7847SOL    HW228389   1.828   3.308   1.128 -0.4824 -0.8584  0.2690
 7848SOL     OW28390   3.521   4.700   8.704  0.4178  0.0395  0.5939
 7848SOL    HW128391   3.506   4.745   8.621  0.0555  1.0788  1.2055
 7848SOL    HW228392   3.435   4.697   8.746  0.2264 -2.2512  0.0701
 7849SOL     OW28393   2.766   5.342   0.101  0.4751  0.1101 -0.0157
 7849SOL    HW128394   2.822   5.416   0.075 -1.5119  1.2375 -1.2424
 7849SOL    HW228395   2.684   5.357   0.053  0.5616 -3.7631 -1.5251
 7850SOL     OW28396   0.620   4.884   1.012  0.5749  0.3432  0.2943
 7850SOL    HW128397   0.633   4.927   1.097 -2.4647  0.0911  0.9790
 7850SOL    HW228398   0.608   4.791   1.034  0.9058  0.1004 -0.5295
 7851SOL     OW28399   9.330   5.013   9.486  0.2778 -0.3474 -0.0845
 7851SOL    HW128400   9.322   4.935   9.541 -0.0329  0.8269  1.6025
 7851SOL    HW228401   9.413   5.002   9.440  0.9429 -1.0117  1.2458
 7852SOL     OW28402   2.595   6.287   3.830 -0.4261 -0.1385 -0.2526
 7852SOL    HW128403   2.675   6.241   3.854 -0.3299  0.1121 -0.0959
 7852SOL    HW228404   2.595   6.286   3.734 -0.0757  0.1372 -0.2555
 7853SOL     OW28405   4.596   7.062   1.757  0.0956 -0.1136  0.5436
 7853SOL    HW128406   4.691   7.062   1.745  0.0627  1.7388  0.2686
 7853SOL    HW228407   4.578   7.141   1.807 -1.4584  0.2916 -0.6351
 7854SOL     OW28408   4.017   4.698   1.171  0.1825 -0.5869  0.2008
 7854SOL    HW128409   4.043   4.744   1.092  2.2806  0.1705  1.2987
 7854SOL    HW228410   3.990   4.611   1.140 -1.5499  0.5603 -1.6058
 7855SOL     OW28411   3.184   2.923   0.120  0.0783  0.3534  0.4393
 7855SOL    HW128412   3.262   2.954   0.073  0.4612 -0.1559  0.7396
 7855SOL    HW228413   3.112   2.969   0.078  0.5391  0.8243  0.1506
 7856SOL     OW28414   4.205   5.540   0.610 -0.0891 -0.0485 -0.5318
 7856SOL    HW128415   4.172   5.502   0.691 -0.7773 -0.2972 -0.9243
 7856SOL    HW228416   4.300   5.526   0.614 -0.1647 -0.4172  0.0404
 7857SOL     OW28417   0.799   5.903   0.372  0.2804  0.2033 -0.1729
 7857SOL    HW128418   0.741   5.908   0.296  0.3026  0.3781 -0.1787
 7857SOL    HW228419   0.885   5.929   0.338 -0.1386  2.4097  0.3679
 7858SOL     OW28420   3.811   4.368   0.607 -0.1805  0.2526 -0.3012
 7858SOL    HW128421   3.740   4.413   0.652 -0.7091  0.7942 -1.6402
 7858SOL    HW228422   3.890   4.409   0.640 -0.4245 -1.0378  1.9487
 7859SOL     OW28423   2.477   4.721   0.459 -0.1339 -0.6441 -0.4111
 7859SOL    HW128424   2.411   4.706   0.527  0.2691  1.0329  0.3924
 7859SOL    HW228425   2.428   4.750   0.383 -0.1983  3.1213  0.9699
 7860SOL     OW28426   0.849   5.062   9.737  0.1082  0.6382  0.2344
 7860SOL    HW128427   0.836   5.156   9.726 -1.5530  0.2355 -1.4312
 7860SOL    HW228428   0.925   5.055   9.795  0.0065  2.9988  0.6919
 7861SOL     OW28429   2.053   5.618   0.429  0.1684 -0.5218 -0.3280
 7861SOL    HW128430   1.965   5.588   0.453 -0.6215 -0.4112 -2.9685
 7861SOL    HW228431   2.105   5.538   0.423  0.2993 -0.5819  1.3053
 7862SOL     OW28432   2.423   6.164   1.865 -0.1644  0.4497  0.5458
 7862SOL    HW128433   2.500   6.136   1.913 -0.1880  0.2225  0.4526
 7862SOL    HW228434   2.349   6.138   1.920 -0.2796 -1.9231 -0.6873
 7863SOL     OW28435   2.259   2.333   2.037 -0.7880 -0.5450  0.7883
 7863SOL    HW128436   2.325   2.309   1.972 -0.1839 -0.9256  1.5331
 7863SOL    HW228437   2.176   2.327   1.991 -0.3077 -0.0479 -0.1716
 7864SOL     OW28438   2.780   4.556   1.430  0.1611 -0.1304  0.3696
 7864SOL    HW128439   2.783   4.598   1.344 -0.3672 -0.2378  0.2974
 7864SOL    HW228440   2.836   4.479   1.421  1.4100  0.7478  0.6099
 7865SOL     OW28441   4.202   5.219   0.573  0.4700 -0.5808 -0.3161
 7865SOL    HW128442   4.278   5.263   0.613  0.5469  0.0172 -1.1017
 7865SOL    HW228443   4.183   5.271   0.495  0.3919 -1.7990 -1.1174
 7866SOL     OW28444   1.440   5.448   0.255  0.5070  0.5275  0.2124
 7866SOL    HW128445   1.390   5.466   0.335  2.1057 -1.4819  1.7072
 7866SOL    HW228446   1.530   5.436   0.285  0.9079 -1.6303 -1.7080
 7867SOL     OW28447   0.594   4.159   1.690 -0.2485  0.1664  0.1488
 7867SOL    HW128448   0.615   4.071   1.657 -1.2621  0.6922 -1.9758
 7867SOL    HW228449   0.534   4.144   1.762  1.4265 -0.9874  1.3426
 7868SOL     OW28450   2.539   5.735   9.785 -0.1810 -0.1748 -0.3437
 7868SOL    HW128451   2.631   5.759   9.771 -0.5980  1.1957 -0.8149
 7868SOL    HW228452   2.524   5.753   9.878 -0.1479  0.2380 -0.4145
 7869SOL     OW28453   3.375   6.364   1.893  0.0226  0.5245 -0.0894
 7869SOL    HW128454   3.450   6.316   1.925  1.1312  1.4222 -1.2883
 7869SOL    HW228455   3.410   6.424   1.827 -1.9221 -0.0136 -1.6806
 7870SOL     OW28456   1.289   5.741   0.916 -0.2376 -0.3284  0.3227
 7870SOL    HW128457   1.273   5.836   0.914  0.9265 -0.1133  0.5523
 7870SOL    HW228458   1.362   5.731   0.977 -1.2125 -1.5133  1.3170
 7871SOL     OW28459   4.188   5.061   1.218  0.1271  0.1626  0.0908
 7871SOL    HW128460   4.152   4.984   1.262  1.2387 -1.5562 -1.8702
 7871SOL    HW228461   4.113   5.102   1.176 -0.3126 -0.5252  0.2010
 7872SOL     OW28462   1.821   5.580   0.592 -0.6741 -0.6230 -0.0137
 7872SOL    HW128463   1.772   5.634   0.655  1.0267 -1.7553  2.3487
 7872SOL    HW228464   1.825   5.494   0.633  2.2554 -0.8572 -0.7111
 7873SOL     OW28465   2.559   2.535   2.347 -0.0187 -0.2032  0.4175
 7873SOL    HW128466   2.605   2.460   2.311  0.9510  1.1686 -1.3017
 7873SOL    HW228467   2.552   2.516   2.441  1.2494 -1.8796  0.1965
 7874SOL     OW28468   5.209   3.909   0.252  0.2257  0.4441  0.3305
 7874SOL    HW128469   5.204   3.999   0.218 -1.3362  0.6284  0.9884
 7874SOL    HW228470   5.159   3.857   0.190  0.8519  0.0800  0.1287
 7875SOL     OW28471   2.903   3.772   1.442 -0.4806 -0.0726 -0.0752
 7875SOL    HW128472   2.926   3.707   1.375  0.6964 -0.0594  0.2936
 7875SOL    HW228473   2.832   3.823   1.403 -0.3804 -0.6037 -0.9746
 7876SOL     OW28474   1.610   5.289   1.915  0.1146 -0.3231  0.1443
 7876SOL    HW128475   1.665   5.277   1.837  0.7925  0.1478  0.5413
 7876SOL    HW228476   1.557   5.366   1.895 -2.3365 -2.3354 -1.3260
 7877SOL     OW28477   2.635   4.369   8.522  0.1733  0.0867 -0.0615
 7877SOL    HW128478   2.667   4.450   8.561 -0.2344  0.0127  0.4355
 7877SOL    HW228479   2.619   4.390   8.430  1.2459  0.2330 -0.2158
 7878SOL     OW28480   1.825   4.906   8.448 -0.2430  0.3135  0.3726
 7878SOL    HW128481   1.745   4.854   8.449  0.2286 -0.4021  1.6836
 7878SOL    HW228482   1.804   4.985   8.498 -0.6468  0.9245 -0.7497
 7879SOL     OW28483   1.273   3.986   2.096  0.0474  0.8138 -0.4025
 7879SOL    HW128484   1.274   3.898   2.134 -1.2504  0.0090 -2.1742
 7879SOL    HW228485   1.186   3.994   2.056  0.3218  2.7282 -0.6627
 7880SOL     OW28486   3.854   5.993   0.652 -0.1820  0.1572 -0.2040
 7880SOL    HW128487   3.759   6.004   0.655 -0.1833  0.9569 -2.0544
 7880SOL    HW228488   3.888   6.082   0.654  0.5757 -0.1470  1.1020
 7881SOL     OW28489   3.175   2.918   1.321  0.2965 -0.6720  0.0196
 7881SOL    HW128490   3.245   2.967   1.364 -0.8292 -0.2328  1.4128
 7881SOL    HW228491   3.174   2.950   1.231 -0.7678  2.2814  1.0503
 7882SOL     OW28492   3.907   2.552   0.012 -0.3664 -0.3734  0.1951
 7882SOL    HW128493   3.982   2.516   0.058  0.2335 -1.1987 -1.3933
 7882SOL    HW228494   3.902   2.502  -0.069 -2.5427 -0.2351  0.2161
 7883SOL     OW28495   3.655   5.187   2.164 -0.1007  0.4943  0.0614
 7883SOL    HW128496   3.640   5.276   2.194  0.5104 -0.1568  2.3879
 7883SOL    HW228497   3.576   5.165   2.115 -1.0093  1.6934  0.9540
 7884SOL     OW28498   2.064   6.138   9.891  0.0234  0.7811 -0.1040
 7884SOL    HW128499   1.989   6.081   9.875  1.7305 -1.5756  0.0032
 7884SOL    HW228500   2.120   6.088   9.950  3.4309  0.8904 -3.0770
 7885SOL     OW28501   3.922   5.917   1.032  0.1096 -0.0218  0.1309
 7885SOL    HW128502   3.974   5.962   0.966  1.4634  0.8069  1.7399
 7885SOL    HW228503   3.853   5.872   0.981  0.3796  1.5855 -1.7203
 7886SOL     OW28504   3.035   4.999   3.741  0.1874  0.0184 -0.2162
 7886SOL    HW128505   3.052   5.074   3.683 -0.7229  0.8454  0.5752
 7886SOL    HW228506   3.061   5.030   3.828 -1.4422 -0.1286  0.3318
 7887SOL     OW28507   2.648   5.291   1.623 -0.1275  0.0828  0.0441
 7887SOL    HW128508   2.633   5.209   1.575 -2.9101  0.7905 -0.4020
 7887SOL    HW228509   2.706   5.267   1.695  1.3170 -1.7128 -1.6496
 7888SOL     OW28510   1.747   4.624   0.996 -0.5409  0.0165  0.5087
 7888SOL    HW128511   1.770   4.547   0.944 -0.0554  0.1980  0.4511
 7888SOL    HW228512   1.804   4.619   1.072 -0.4110  0.3930  0.4359
 7889SOL     OW28513   2.308   4.949   0.651  0.0232  0.3341 -0.3663
 7889SOL    HW128514   2.299   4.954   0.555 -0.2435  2.0428 -0.2608
 7889SOL    HW228515   2.299   4.855   0.670 -3.3598  0.3260 -1.6668
 7890SOL     OW28516   1.299   4.942   0.182  0.6722 -0.6870  0.1416
 7890SOL    HW128517   1.351   4.955   0.261  0.1375  0.2204  0.3541
 7890SOL    HW228518   1.214   4.912   0.215  0.7599 -1.2492 -0.1475
 7891SOL     OW28519   3.026   4.996   1.647  0.1805  0.1320  0.1101
 7891SOL    HW128520   3.028   5.010   1.552 -0.9157  0.8139  0.1742
 7891SOL    HW228521   3.029   4.901   1.658 -1.6124 -0.0304 -0.6754
 7892SOL     OW28522   2.775   5.975   0.255 -0.0691 -0.0357  1.0031
 7892SOL    HW128523   2.757   6.069   0.264 -1.5721 -0.1164 -0.9034
 7892SOL    HW228524   2.752   5.955   0.165 -1.0948 -2.5231  1.7898
 7893SOL     OW28525   2.960   5.058   0.916  0.4104 -0.2635  0.0934
 7893SOL    HW128526   2.934   5.064   0.824  1.8334 -1.7087 -0.4521
 7893SOL    HW228527   2.879   5.044   0.964 -0.2090 -0.9586 -1.1314
 7894SOL     OW28528   1.954   4.852   0.968 -0.0233  0.3194  0.5803
 7894SOL    HW128529   1.876   4.797   0.959 -0.3386  0.8432  0.0473
 7894SOL    HW228530   2.008   4.807   1.032  1.3862 -2.5291 -2.4602
 7895SOL     OW28531   3.170   4.891   2.180  0.0012 -0.0005 -0.4349
 7895SOL    HW128532   3.135   4.837   2.109  1.0727 -1.1724 -0.0871
 7895SOL    HW228533   3.165   4.835   2.257  1.4386  0.2648 -0.1316
 7896SOL     OW28534   1.541   4.800   1.000  0.2419  0.0768 -0.1280
 7896SOL    HW128535   1.500   4.803   0.913  0.2169 -0.1734 -0.1233
 7896SOL    HW228536   1.578   4.713   1.007  0.3787  0.1486  0.0534
 7897SOL     OW28537   2.449   3.013   2.565 -0.4214  0.2631  0.3036
 7897SOL    HW128538   2.515   2.972   2.621 -0.8717 -0.7158  0.1264
 7897SOL    HW228539   2.427   2.946   2.501  0.1413  1.4124 -1.1023
 7898SOL     OW28540   0.477   4.388   0.750  0.4622  0.0240 -0.0348
 7898SOL    HW128541   0.548   4.432   0.798  1.6168  0.2175 -1.8933
 7898SOL    HW228542   0.508   4.299   0.738 -0.5478 -0.4804  1.0080
 7899SOL     OW28543   2.328   3.612   2.327 -0.3096  0.8255 -0.2234
 7899SOL    HW128544   2.242   3.636   2.361  0.2756  0.5565  1.4987
 7899SOL    HW228545   2.378   3.694   2.326 -0.1062  0.7041  0.2013
 7900SOL     OW28546   0.924   5.215   0.693  0.2120 -0.3429  0.6166
 7900SOL    HW128547   0.920   5.248   0.603  1.7042  0.2559  0.7528
 7900SOL    HW228548   0.837   5.179   0.709 -0.2410  0.0360 -0.8800
 7901SOL     OW28549   0.874   5.789   1.140  0.2768  0.2249  0.3163
 7901SOL    HW128550   0.943   5.724   1.123  0.2849  0.8361 -2.1153
 7901SOL    HW228551   0.920   5.873   1.144 -0.3849  0.7184 -1.9762
 7902SOL     OW28552   3.177   5.617   1.256  0.3105 -0.5529 -0.6611
 7902SOL    HW128553   3.229   5.695   1.274  1.1211 -1.1022 -0.5487
 7902SOL    HW228554   3.117   5.610   1.330  0.7898 -0.4856 -0.2634
 7903SOL     OW28555   2.575   4.359   1.296 -0.2918 -0.3480  0.2530
 7903SOL    HW128556   2.495   4.367   1.244  0.3586  2.4768 -0.3874
 7903SOL    HW228557   2.557   4.408   1.376  0.5516 -0.3200  0.4294
 7904SOL     OW28558   3.127   2.603   1.514 -0.5217 -0.1131 -0.4912
 7904SOL    HW128559   3.097   2.512   1.504 -2.0044  0.3366 -0.2104
 7904SOL    HW228560   3.222   2.598   1.500 -0.9408 -1.2695 -3.3970
 7905SOL     OW28561   1.361   4.622   1.413 -0.3174  0.3132 -0.1146
 7905SOL    HW128562   1.452   4.615   1.442 -0.0218 -1.3801 -1.3822
 7905SOL    HW228563   1.310   4.626   1.494  0.9778  3.3472  0.6368
 7906SOL     OW28564   2.661   5.517   0.676  0.0893 -0.2853 -0.1461
 7906SOL    HW128565   2.660   5.513   0.581 -0.0276  0.0564 -0.1624
 7906SOL    HW228566   2.590   5.578   0.698  1.0976  0.8269  0.0854
 7907SOL     OW28567   1.849   4.721   2.287  0.1743 -0.6041  0.5475
 7907SOL    HW128568   1.838   4.726   2.382 -0.2388  0.0781  0.4606
 7907SOL    HW228569   1.760   4.711   2.253  0.1295  1.3104  0.0922
 7908SOL     OW28570   2.445   6.113   9.771 -0.4943 -0.5730  0.0159
 7908SOL    HW128571   2.368   6.169   9.770 -1.0284 -1.2948 -1.2499
 7908SOL    HW228572   2.445   6.071   9.685  1.1372 -0.8157  0.1060
 7909SOL     OW28573   2.224   4.394   0.261  0.3932  0.3653  0.2012
 7909SOL    HW128574   2.168   4.470   0.275 -1.3285 -0.7872 -0.2608
 7909SOL    HW228575   2.295   4.427   0.205 -0.8339  1.4267 -0.7686
 7910SOL     OW28576   2.880   4.700   0.529 -0.4427  0.0299 -0.0383
 7910SOL    HW128577   2.934   4.640   0.581 -0.3211  0.2059  0.0401
 7910SOL    HW228578   2.841   4.644   0.461 -0.7873 -0.2447  0.3801
 7911SOL     OW28579   3.578   4.538   0.635 -0.6271  0.3146  0.6157
 7911SOL    HW128580   3.510   4.528   0.568  1.4131  0.1883 -1.4868
 7911SOL    HW228581   3.537   4.504   0.715 -1.8697 -3.1311 -1.3382
 7912SOL     OW28582   2.598   3.693   0.541 -0.1909  0.1448  0.0886
 7912SOL    HW128583   2.681   3.683   0.494 -0.3618  0.7285 -0.3373
 7912SOL    HW228584   2.559   3.605   0.540  0.1018  0.0191 -0.3071
 7913SOL     OW28585   3.390   6.668   3.589  0.7256  0.7446  0.1647
 7913SOL    HW128586   3.365   6.747   3.541 -0.4090  0.5172  0.3743
 7913SOL    HW228587   3.345   6.677   3.673  2.8130  1.2266  1.2715
 7914SOL     OW28588   3.477   1.158   1.125  0.1647  0.3646  0.3818
 7914SOL    HW128589   3.435   1.078   1.160  0.7027 -0.3832 -0.6633
 7914SOL    HW228590   3.495   1.211   1.203 -1.0563 -0.1183  1.0082
 7915SOL     OW28591   4.370   5.518   9.826 -0.7516  0.0706  0.3023
 7915SOL    HW128592   4.358   5.445   9.765 -1.1731  1.1366 -0.9176
 7915SOL    HW228593   4.321   5.590   9.786 -0.0412  1.1194  1.3128
 7916SOL     OW28594   1.060   5.420   1.441 -0.1294 -0.3026 -0.0904
 7916SOL    HW128595   0.968   5.434   1.463 -0.4476 -1.0722 -0.8630
 7916SOL    HW228596   1.109   5.478   1.499 -1.2216  1.9811 -1.3931
 7917SOL     OW28597   2.320   5.505   0.972 -0.2783  0.0255 -0.5154
 7917SOL    HW128598   2.405   5.462   0.963 -0.7288 -0.4947 -2.6126
 7917SOL    HW228599   2.324   5.550   1.056  2.8092  1.6577 -1.4866
 7918SOL     OW28600   3.563   4.999   1.018 -0.0681 -0.2208  0.1068
 7918SOL    HW128601   3.554   4.983   0.924 -2.8802  0.3942  0.2126
 7918SOL    HW228602   3.657   4.999   1.034  0.5095  0.8508 -2.9332
 7919SOL     OW28603   2.078   3.179   9.330  0.5743  0.5640 -0.1656
 7919SOL    HW128604   2.172   3.195   9.341  0.6778 -0.1329 -0.0033
 7919SOL    HW228605   2.036   3.240   9.390  1.0121 -0.7245  1.4776
 7920SOL     OW28606   3.503   4.688   3.654 -0.7877 -0.9687 -0.3817
 7920SOL    HW128607   3.529   4.775   3.623  0.7948 -1.7168 -1.2342
 7920SOL    HW228608   3.486   4.700   3.747 -0.1801  0.1685 -0.3978
 7921SOL     OW28609   1.666   3.589   2.373  0.5165  0.1324  0.4041
 7921SOL    HW128610   1.737   3.651   2.384 -0.8165  1.5600  1.2149
 7921SOL    HW228611   1.594   3.625   2.426 -1.7187  0.1641 -2.5053
 7922SOL     OW28612   4.933   5.459   1.564 -0.1624 -0.9568 -0.5768
 7922SOL    HW128613   4.990   5.520   1.612 -0.1001 -0.4810 -1.2422
 7922SOL    HW228614   4.949   5.480   1.472 -1.1535 -1.0648 -0.7727
 7923SOL     OW28615   3.710   5.662   9.792  0.6830  0.6040 -1.0523
 7923SOL    HW128616   3.722   5.613   9.873  1.4930 -0.9125 -2.0418
 7923SOL    HW228617   3.680   5.748   9.819 -1.1429 -0.5587  0.7440
 7924SOL     OW28618   2.807   6.206   0.976  0.1565 -0.0273  1.0557
 7924SOL    HW128619   2.827   6.112   0.982 -0.5565 -0.0610  3.4963
 7924SOL    HW228620   2.712   6.210   0.982 -0.0164  0.7316 -1.5621
 7925SOL     OW28621   2.734   2.979   1.494  0.2400  0.9092  0.6059
 7925SOL    HW128622   2.677   2.973   1.418 -1.3111  1.5434  1.6847
 7925SOL    HW228623   2.701   2.911   1.554  3.4710 -1.8304 -0.5352
 7926SOL     OW28624   1.301   5.292   1.984  0.0866 -0.1846  0.1890
 7926SOL    HW128625   1.364   5.233   1.943  0.0455  0.0697 -0.2424
 7926SOL    HW228626   1.320   5.285   2.078 -0.5823 -1.6363  0.2291
 7927SOL     OW28627   0.681   5.121   0.751 -0.4226 -0.6219  0.1267
 7927SOL    HW128628   0.677   5.029   0.777  1.7749 -0.7573  0.0628
 7927SOL    HW228629   0.591   5.153   0.760 -1.3225 -2.9395 -0.4694
 7928SOL     OW28630   1.598   3.884   0.203  0.0610 -0.4387  0.0593
 7928SOL    HW128631   1.509   3.879   0.238  0.7609  0.6312  2.0600
 7928SOL    HW228632   1.653   3.851   0.273  1.3913  0.4728 -0.5390
 7929SOL     OW28633   4.143   5.406   1.154  0.3818 -0.1500  0.0173
 7929SOL    HW128634   4.062   5.358   1.136  0.9356 -0.0027 -3.2866
 7929SOL    HW228635   4.117   5.474   1.216 -2.7548  1.6873 -3.0726
 7930SOL     OW28636   1.949   6.231   2.181  0.1846 -0.2015 -0.3755
 7930SOL    HW128637   1.931   6.171   2.108 -0.2882 -1.0615  0.4220
 7930SOL    HW228638   1.983   6.174   2.251 -2.0781  0.1214  1.0617
 7931SOL     OW28639   1.365   3.838   1.098  0.8816 -0.6118 -0.2856
 7931SOL    HW128640   1.381   3.894   1.022  3.0573 -2.2607 -1.0902
 7931SOL    HW228641   1.388   3.893   1.173 -0.1163  0.6220 -0.8600
 7932SOL     OW28642   2.120   3.491   1.956  0.4818  0.1800  0.2082
 7932SOL    HW128643   2.203   3.444   1.951  0.5651  0.3519 -0.0289
 7932SOL    HW228644   2.083   3.486   1.868  1.0966  1.6489 -0.1622
 7933SOL     OW28645   4.431   5.715   1.817  0.0432  0.2058 -0.7711
 7933SOL    HW128646   4.341   5.746   1.808 -0.6652 -1.9808 -1.7992
 7933SOL    HW228647   4.485   5.794   1.815 -1.8072  1.4815 -1.0013
 7934SOL     OW28648   3.147   3.379   3.151 -0.2628  0.1336 -0.5402
 7934SOL    HW128649   3.153   3.456   3.208  2.3532 -0.7663  0.4942
 7934SOL    HW228650   3.226   3.384   3.097  0.4662 -2.3121  0.2321
 7935SOL     OW28651   3.269   3.698   9.154  0.4801  0.0639  0.3620
 7935SOL    HW128652   3.207   3.627   9.139 -0.3339  0.4180  1.9935
 7935SOL    HW228653   3.224   3.758   9.212  2.8580 -0.3847  2.7653
 7936SOL     OW28654   2.641   3.555   2.858  0.2761 -0.0483 -0.2937
 7936SOL    HW128655   2.650   3.498   2.935  0.2320  0.5662  0.1720
 7936SOL    HW228656   2.628   3.495   2.785 -1.3750 -0.5962  0.4183
 7937SOL     OW28657   3.335   3.228   9.981  0.2503  0.6754 -0.3030
 7937SOL    HW128658   3.344   3.133   9.988 -2.2304  0.5484  1.9461
 7937SOL    HW228659   3.280   3.241   9.904 -0.2294  0.2236 -0.0410
 7938SOL     OW28660   1.273   6.124   3.115  0.0022 -0.0616 -0.0263
 7938SOL    HW128661   1.193   6.124   3.168  0.0200 -0.2483  0.0017
 7938SOL    HW228662   1.318   6.044   3.140  2.1776  1.9815  2.8931
 7939SOL     OW28663   1.094   5.950   3.598  0.4670 -0.3308 -0.3048
 7939SOL    HW128664   1.183   5.972   3.625  0.0304  0.5205  0.5022
 7939SOL    HW228665   1.053   6.035   3.579 -1.2795 -0.3505  2.9125
 7940SOL     OW28666   1.192   3.512   0.478  0.6040  0.7826 -0.4863
 7940SOL    HW128667   1.255   3.583   0.491  1.3296  0.1219 -0.3049
 7940SOL    HW228668   1.222   3.444   0.538 -1.3657  1.1483  0.9360
 7941SOL     OW28669   3.537   3.634   0.440 -0.4233 -0.0475 -0.5082
 7941SOL    HW128670   3.575   3.715   0.407 -2.7960  1.7678  1.1114
 7941SOL    HW228671   3.452   3.627   0.397 -1.1058 -0.6080  0.8962
 7942SOL     OW28672   3.808   4.667   0.577 -0.0956  0.4930  0.5059
 7942SOL    HW128673   3.729   4.617   0.597  1.5158 -1.2002  3.0867
 7942SOL    HW228674   3.794   4.752   0.618 -0.9698  0.5396  0.1095
 7943SOL     OW28675   2.870   4.905   0.067  0.0012 -0.1613  0.4427
 7943SOL    HW128676   2.894   4.977   0.008 -0.2064  0.4442  1.1055
 7943SOL    HW228677   2.941   4.902   0.131  0.4570 -1.1139 -0.0832
 7944SOL     OW28678   2.744   3.697   0.813 -0.0418 -0.0676 -0.3447
 7944SOL    HW128679   2.815   3.633   0.816 -0.6807 -0.8002 -0.7906
 7944SOL    HW228680   2.741   3.726   0.722  1.0305  1.5067  0.0908
 7945SOL     OW28681   2.183   5.772   8.627  0.6839 -0.6763 -0.0784
 7945SOL    HW128682   2.202   5.750   8.719  0.7805  1.2917  0.4026
 7945SOL    HW228683   2.090   5.755   8.617  0.2736  0.8444  0.9319
 7946SOL     OW28684   4.037   5.824   0.777 -0.1104  0.0011 -0.3339
 7946SOL    HW128685   4.124   5.862   0.782  0.1861 -0.4646 -1.8482
 7946SOL    HW228686   3.986   5.885   0.724 -0.7002  0.2311  0.4709
 7947SOL     OW28687   4.078   5.529   1.386  0.0698 -0.0717 -0.2471
 7947SOL    HW128688   3.988   5.497   1.385  0.0361 -0.0190  0.7727
 7947SOL    HW228689   4.127   5.464   1.436  0.2739  0.7275  0.6199
 7948SOL     OW28690   0.910   4.575   9.769 -0.1759  0.0120 -0.3468
 7948SOL    HW128691   0.965   4.595   9.692  0.5758 -0.5681  0.0286
 7948SOL    HW228692   0.953   4.620   9.841  0.1798 -0.9548  0.0653
 7949SOL     OW28693   4.101   3.088   0.764 -0.3305 -0.4200 -0.3526
 7949SOL    HW128694   4.023   3.036   0.785 -0.6817  0.8796  1.7580
 7949SOL    HW228695   4.069   3.178   0.762  1.3079  0.2505  1.7096
 7950SOL     OW28696   2.393   4.716   1.882 -0.0037  0.4518 -0.0498
 7950SOL    HW128697   2.354   4.801   1.901 -2.4112 -0.3993 -0.9723
 7950SOL    HW228698   2.324   4.667   1.837  1.8535 -1.4511 -0.9415
 7951SOL     OW28699   3.674   6.153   1.048 -0.2025  0.2369  0.0709
 7951SOL    HW128700   3.655   6.224   0.987 -1.6768 -1.3365 -1.3972
 7951SOL    HW228701   3.703   6.081   0.992 -0.5027 -0.8962  1.3439
 7952SOL     OW28702   3.584   6.185   2.696  0.3875  0.0418  0.1538
 7952SOL    HW128703   3.661   6.201   2.642  0.4758 -2.6758 -0.5778
 7952SOL    HW228704   3.518   6.152   2.635 -0.3906 -0.5122  1.2789
 7953SOL     OW28705   1.243   3.723   1.507  0.0056 -0.1620  0.5084
 7953SOL    HW128706   1.248   3.794   1.571  1.3540 -0.0054  0.2600
 7953SOL    HW228707   1.276   3.646   1.553  2.7953  0.3591 -0.5133
 7954SOL     OW28708   3.357   4.373   1.101 -0.6055  0.3687  0.1805
 7954SOL    HW128709   3.287   4.428   1.137 -1.0660 -0.9636  1.3568
 7954SOL    HW228710   3.314   4.290   1.079  0.2225  0.2152 -0.9411
 7955SOL     OW28711   1.632   6.644   0.516  0.3454 -0.2375 -0.0589
 7955SOL    HW128712   1.704   6.644   0.453  1.0843  1.0201  0.7771
 7955SOL    HW228713   1.554   6.664   0.464  0.6538 -1.1514 -0.8913
 7956SOL     OW28714   3.407   5.821   0.993  0.2005 -0.4035 -0.3647
 7956SOL    HW128715   3.401   5.768   0.914  1.9762 -1.3847  0.1414
 7956SOL    HW228716   3.316   5.837   1.018 -0.3759 -2.9611 -0.6844
 7957SOL     OW28717   3.486   4.949   0.756  0.1444 -0.0182  0.2650
 7957SOL    HW128718   3.394   4.936   0.778  0.0338  0.6565  0.2165
 7957SOL    HW228719   3.496   4.913   0.668 -0.1644  0.2657  0.1128
 7958SOL     OW28720   1.615   4.514   1.338  0.2052  0.0610  0.8791
 7958SOL    HW128721   1.625   4.440   1.279 -0.0200 -0.0348  0.9613
 7958SOL    HW228722   1.699   4.519   1.384  0.2877 -0.0260  0.7396
 7959SOL     OW28723   2.490   3.370   2.207 -0.4151 -0.7908 -0.7724
 7959SOL    HW128724   2.538   3.317   2.271 -0.8136 -0.6164 -0.3281
 7959SOL    HW228725   2.410   3.396   2.252 -0.0992  0.4110 -0.9020
 7960SOL     OW28726   2.885   5.870   2.065 -0.3330  0.1535  0.4155
 7960SOL    HW128727   2.851   5.939   2.123  0.4850  1.4073 -0.5807
 7960SOL    HW228728   2.970   5.903   2.035 -0.9207 -0.2866 -1.8341
 7961SOL     OW28729   2.724   6.316   9.509  0.0620  0.1231 -0.1806
 7961SOL    HW128730   2.743   6.283   9.597 -1.8499 -0.7214 -0.0690
 7961SOL    HW228731   2.636   6.353   9.516 -0.0695  0.1171 -1.7344
 7962SOL     OW28732   3.247   6.226   1.049  0.2159  0.6050  0.3993
 7962SOL    HW128733   3.273   6.134   1.053  0.3347  0.5763 -0.8189
 7962SOL    HW228734   3.153   6.226   1.069  0.3200  0.2722  0.8815
 7963SOL     OW28735   0.291   4.935   1.228  0.1410  0.0890  0.0587
 7963SOL    HW128736   0.376   4.977   1.222 -0.6006  1.3627 -1.7856
 7963SOL    HW228737   0.228   5.006   1.215 -1.1961 -0.9369  0.7723
 7964SOL     OW28738   1.391   2.144   2.507 -0.0336 -0.6349  0.6130
 7964SOL    HW128739   1.403   2.223   2.559 -1.3778 -1.2064  1.8024
 7964SOL    HW228740   1.462   2.086   2.534 -0.3112 -0.6592  1.2906
 7965SOL     OW28741   1.697   4.278   1.226 -0.0802  0.6728  0.1385
 7965SOL    HW128742   1.784   4.274   1.187 -0.6952 -3.1036 -1.0730
 7965SOL    HW228743   1.703   4.228   1.307 -1.2980 -0.3206 -0.3615
 7966SOL     OW28744   2.252   3.468   1.665 -0.0428 -0.4321  0.1505
 7966SOL    HW128745   2.255   3.382   1.707 -1.7842 -0.3421  0.5077
 7966SOL    HW228746   2.189   3.456   1.593 -1.5138  0.9659  1.1919
 7967SOL     OW28747   2.290   5.028   1.050 -0.2668  0.1010  0.3458
 7967SOL    HW128748   2.313   4.936   1.066 -0.3533 -0.2590 -1.4533
 7967SOL    HW228749   2.332   5.048   0.966 -0.5037  1.6181  0.5862
 7968SOL     OW28750   2.834   4.732   1.993 -0.0144 -0.4778 -0.2284
 7968SOL    HW128751   2.767   4.664   1.986 -1.1800  0.6005  0.1966
 7968SOL    HW228752   2.867   4.741   1.904 -0.6808 -0.7732 -0.5111
 7969SOL     OW28753   1.999   3.956   1.956 -0.4657 -0.1996  0.2052
 7969SOL    HW128754   2.043   3.879   1.992  0.7775  0.8135  0.8693
 7969SOL    HW228755   1.951   3.922   1.881 -2.0374 -2.1102  2.0050
 7970SOL     OW28756   3.057   2.625   1.201 -0.1187  0.0641 -0.4633
 7970SOL    HW128757   2.986   2.626   1.135  0.2806 -0.6564 -0.9109
 7970SOL    HW228758   3.128   2.674   1.160  0.5565 -1.3873 -1.0603
 7971SOL     OW28759   3.825   5.803   2.207 -0.3664 -0.0112 -0.1193
 7971SOL    HW128760   3.800   5.711   2.213 -2.8898  0.6024 -0.6362
 7971SOL    HW228761   3.898   5.812   2.268 -1.2298 -1.9743  1.2723
 7972SOL     OW28762   0.380   5.057   9.591 -0.2233  0.3864  0.9244
 7972SOL    HW128763   0.360   5.150   9.605  1.0257  0.5394  1.7587
 7972SOL    HW228764   0.297   5.012   9.611 -1.7271  1.5145 -2.4237
 7973SOL     OW28765   1.205   4.889   1.688  0.1210 -0.1433  0.6178
 7973SOL    HW128766   1.252   4.806   1.702  2.3329  0.5807 -2.0099
 7973SOL    HW228767   1.148   4.872   1.613 -0.6292  0.2637  1.0869
 7974SOL     OW28768   2.272   4.506   1.371  0.1610  0.0866  0.0042
 7974SOL    HW128769   2.345   4.559   1.403 -0.1075  0.4737 -0.0267
 7974SOL    HW228770   2.298   4.480   1.283  0.1835  0.3757 -0.0756
 7975SOL     OW28771   1.873   4.634   0.352  0.2747  0.2116 -0.0116
 7975SOL    HW128772   1.967   4.632   0.332  0.3040 -0.6462  0.2034
 7975SOL    HW228773   1.867   4.692   0.428  0.8313 -0.9968  0.9727
 7976SOL     OW28774   4.630   7.757   2.144  1.0020 -0.0953 -0.3159
 7976SOL    HW128775   4.698   7.820   2.168  0.9733  0.7467 -2.3293
 7976SOL    HW228776   4.550   7.809   2.137  1.6636  0.4679 -5.6389
 7977SOL     OW28777   3.845   6.281   2.066  0.0013  0.4119  0.1038
 7977SOL    HW128778   3.904   6.281   1.990  1.0561 -0.4277  0.9092
 7977SOL    HW228779   3.854   6.369   2.103 -0.8900  0.9834 -1.0297
 7978SOL     OW28780   1.616   5.288   1.163  0.1613 -0.0420  0.0331
 7978SOL    HW128781   1.578   5.262   1.248  2.3380  1.5861  1.5630
 7978SOL    HW228782   1.658   5.209   1.130 -2.0506 -1.1072 -0.3146
 7979SOL     OW28783   2.444   7.211   0.617 -0.2763 -0.1042 -0.2739
 7979SOL    HW128784   2.533   7.179   0.627 -0.0905  0.5826  0.3610
 7979SOL    HW228785   2.400   7.146   0.563  0.5507 -0.5565 -0.3992
 7980SOL     OW28786   3.825   2.863   1.491 -0.3970  0.3293 -0.0419
 7980SOL    HW128787   3.808   2.834   1.401  0.6848 -0.6846  0.0748
 7980SOL    HW228788   3.759   2.931   1.507 -1.5185 -0.4995 -1.0942
 7981SOL     OW28789   2.450   3.864   0.368  0.1900  0.0290 -0.6003
 7981SOL    HW128790   2.495   3.794   0.415  0.9255  0.0414 -1.2882
 7981SOL    HW228791   2.514   3.896   0.305 -0.2599  1.0843 -0.5359
 7982SOL     OW28792   2.586   4.687   1.061  0.1406  0.5834 -0.3352
 7982SOL    HW128793   2.496   4.683   1.092  0.1143 -3.2335 -0.6852
 7982SOL    HW228794   2.638   4.697   1.140 -0.5158  3.0147 -0.1428
 7983SOL     OW28795   1.353   5.458   3.829  0.4083 -0.0757 -0.7800
 7983SOL    HW128796   1.370   5.476   3.736  0.0902 -0.9863 -1.0219
 7983SOL    HW228797   1.258   5.459   3.837  0.4283 -0.2676 -0.5164
 7984SOL     OW28798   3.639   5.365   2.835 -0.6419  0.2580 -0.2397
 7984SOL    HW128799   3.551   5.366   2.872 -0.3667  0.5547  0.4187
 7984SOL    HW228800   3.630   5.318   2.752 -1.1238 -1.0867  0.5631
 7985SOL     OW28801   1.673   5.337   0.363  0.2198 -0.1515  0.8851
 7985SOL    HW128802   1.742   5.368   0.304 -2.2662  2.4159 -0.7490
 7985SOL    HW228803   1.719   5.280   0.425  3.5132  0.1116 -1.2136
 7986SOL     OW28804   1.449   4.115   8.611 -0.5924 -0.0373  0.4052
 7986SOL    HW128805   1.480   4.037   8.564 -0.3468 -0.4930  1.3181
 7986SOL    HW228806   1.401   4.080   8.686 -1.2715  0.6884  0.3138
 7987SOL     OW28807   3.375   6.082   3.487  0.1065 -0.2871  0.0799
 7987SOL    HW128808   3.385   6.156   3.428  0.3269 -0.8953 -0.6519
 7987SOL    HW228809   3.386   6.005   3.431  0.6525 -0.8600  0.9692
 7988SOL     OW28810   4.515   5.377   1.761  0.0046  0.3952 -0.3141
 7988SOL    HW128811   4.599   5.336   1.776  0.3139  0.1887 -2.4287
 7988SOL    HW228812   4.450   5.311   1.786  0.4931 -0.9388 -2.4074
 7989SOL     OW28813   1.292   4.443   0.676  0.0695  0.2108 -0.0083
 7989SOL    HW128814   1.383   4.458   0.700 -0.3553  1.3419  0.9439
 7989SOL    HW228815   1.289   4.352   0.647  0.7089 -1.1312  3.8632
 7990SOL     OW28816   3.809   5.665   9.537  0.8056  0.0805 -0.6507
 7990SOL    HW128817   3.863   5.586   9.540  1.3467  0.4716 -0.0102
 7990SOL    HW228818   3.784   5.681   9.628 -0.0872  0.1115 -0.8963
 7991SOL     OW28819   2.102   3.113   2.287 -0.4299 -0.2512  0.0958
 7991SOL    HW128820   2.083   3.110   2.194  2.0313 -1.5081 -0.4302
 7991SOL    HW228821   2.145   3.197   2.301  1.0211 -0.9115 -0.3145
 7992SOL     OW28822   1.338   5.245   9.604 -0.0495 -0.0793 -0.3613
 7992SOL    HW128823   1.413   5.250   9.545  0.8087  1.2926  0.8426
 7992SOL    HW228824   1.271   5.299   9.562 -0.4769 -1.5018 -1.5599
 7993SOL     OW28825   1.101   5.685   2.131  0.2399  0.3077  0.3608
 7993SOL    HW128826   1.119   5.777   2.112 -2.6268  1.0215  0.8348
 7993SOL    HW228827   1.052   5.686   2.213 -2.1067 -1.3853 -0.9380
 7994SOL     OW28828   3.643   6.348   1.440 -0.1461 -0.0171  0.2478
 7994SOL    HW128829   3.705   6.290   1.395  0.0723  0.8370 -0.5642
 7994SOL    HW228830   3.671   6.436   1.417  0.6098  0.4806  2.9341
 7995SOL     OW28831   3.657   5.903   0.874  0.5389 -0.1114 -0.5436
 7995SOL    HW128832   3.575   5.862   0.903 -1.8294  4.3673 -0.5294
 7995SOL    HW228833   3.650   5.904   0.779  0.1476  1.0660 -0.5064
 7996SOL     OW28834   0.945   2.384   1.695 -0.5046 -0.0730  0.4458
 7996SOL    HW128835   0.918   2.439   1.621 -0.9083 -1.7880 -0.7182
 7996SOL    HW228836   0.880   2.401   1.763 -1.3422 -0.0372 -0.3541
 7997SOL     OW28837   1.521   4.877   1.485 -0.7652  0.5566 -0.4754
 7997SOL    HW128838   1.511   4.844   1.574 -2.2545 -1.8214 -1.4848
 7997SOL    HW228839   1.435   4.911   1.461 -0.0298  2.4426 -0.5584
 7998SOL     OW28840   3.600   6.230   1.937  0.4717  0.2847  0.1904
 7998SOL    HW128841   3.665   6.201   2.001 -0.3827  1.8222  1.8186
 7998SOL    HW228842   3.649   6.285   1.876  1.6121 -2.4830 -1.4707
 7999SOL     OW28843   0.774   5.230   1.338 -0.5866  0.2436  0.2293
 7999SOL    HW128844   0.766   5.320   1.368  1.1010 -0.0583  1.6684
 7999SOL    HW228845   0.781   5.179   1.418  0.3296 -0.9746 -0.6132
 8000SOL     OW28846   2.509   3.824   0.831 -0.0776 -0.1819 -0.3282
 8000SOL    HW128847   2.474   3.815   0.742 -0.5195  1.8352 -0.3881
 8000SOL    HW228848   2.595   3.781   0.827 -1.1848 -2.3704 -1.0196
 8001SOL     OW28849   2.029   3.182   2.032  0.3098 -0.0078 -0.3879
 8001SOL    HW128850   2.046   3.273   2.059 -0.6545  0.3784 -1.0389
 8001SOL    HW228851   2.093   3.166   1.962 -0.1491  0.5092 -0.9412
 8002SOL     OW28852   2.746   4.090   0.270  0.2157  0.2268  0.5245
 8002SOL    HW128853   2.705   4.007   0.246  1.7781 -0.7590  1.1550
 8002SOL    HW228854   2.728   4.148   0.197 -0.5865 -0.7831 -0.0922
 8003SOL     OW28855   2.821   4.715   1.708 -0.4429 -0.2535 -0.2605
 8003SOL    HW128856   2.799   4.645   1.647 -2.3891  0.5125 -0.4654
 8003SOL    HW228857   2.898   4.757   1.670  1.1776 -2.6698  0.2132
 8004SOL     OW28858   0.827   4.018   0.722  0.2028 -0.2063  0.0941
 8004SOL    HW128859   0.813   4.039   0.815 -0.8166 -0.9352  0.1148
 8004SOL    HW228860   0.845   3.924   0.722 -1.0109 -0.4453 -0.5648
 8005SOL     OW28861   2.751   4.561   3.038 -0.1014 -0.2114  0.5596
 8005SOL    HW128862   2.688   4.626   3.068  1.0695  1.0884  0.2825
 8005SOL    HW228863   2.806   4.544   3.115 -0.0122 -0.3957  0.4551
 8006SOL     OW28864   1.689   3.959   1.150  0.4962 -0.4432  0.1976
 8006SOL    HW128865   1.752   3.975   1.080  0.5132  1.3194  0.5944
 8006SOL    HW228866   1.738   3.971   1.231  0.1219 -1.0319  0.5212
 8007SOL     OW28867   3.357   5.643   0.758 -0.5351  0.3273  0.3142
 8007SOL    HW128868   3.273   5.689   0.756 -0.1621  1.0429  1.3799
 8007SOL    HW228869   3.333   5.551   0.745 -1.3960  0.6457 -0.4112
 8008SOL     OW28870   2.986   3.294   0.102 -0.0828 -0.2287 -0.2113
 8008SOL    HW128871   3.043   3.353   0.153  0.8221 -0.6257 -0.7394
 8008SOL    HW228872   2.933   3.249   0.167  0.4628 -0.1063  0.3218
 8009SOL     OW28873   3.319   4.188   2.249 -0.2605  0.0350  0.5373
 8009SOL    HW128874   3.395   4.185   2.307 -0.2915  1.0852  0.6425
 8009SOL    HW228875   3.335   4.120   2.184  1.7027  1.5719 -0.6094
 8010SOL     OW28876   3.230   4.507   0.833  0.2541  0.3652 -0.6849
 8010SOL    HW128877   3.193   4.444   0.894  2.2362 -0.3992 -0.2398
 8010SOL    HW228878   3.157   4.531   0.776 -0.6704 -1.9433 -0.5306
 8011SOL     OW28879   4.034   4.347   0.018  0.2932  0.1765 -0.1157
 8011SOL    HW128880   4.035   4.322   0.111 -2.3124 -0.1391 -0.1235
 8011SOL    HW228881   4.105   4.295  -0.021  1.4614  0.3526  1.6884
 8012SOL     OW28882   3.649   3.771   0.052  0.8131 -0.5366  0.1572
 8012SOL    HW128883   3.650   3.835  -0.019 -2.0669  0.2396  0.7682
 8012SOL    HW228884   3.594   3.700   0.020  0.1953 -0.5691  1.2872
 8013SOL     OW28885   3.085   5.275   0.426 -0.7710 -0.0304  0.9311
 8013SOL    HW128886   3.027   5.227   0.366  0.4495 -0.9699  0.4802
 8013SOL    HW228887   3.049   5.364   0.427 -2.1095 -0.5468  0.5172
 8014SOL     OW28888   4.443   3.868   2.326  0.1254 -0.2938  0.1653
 8014SOL    HW128889   4.498   3.929   2.375 -0.8170  0.8818 -0.2201
 8014SOL    HW228890   4.362   3.916   2.310  0.1029 -0.9361 -1.8142
 8015SOL     OW28891   2.746   4.063   1.826  0.5144  0.4931 -0.3980
 8015SOL    HW128892   2.698   3.980   1.816  1.0162  0.1115  0.3117
 8015SOL    HW228893   2.679   4.127   1.848 -0.0296  0.5020 -2.0268
 8016SOL     OW28894   3.418   6.547   0.423 -0.0852  0.3939  0.0331
 8016SOL    HW128895   3.422   6.642   0.426  1.7857  0.3835 -0.9449
 8016SOL    HW228896   3.325   6.526   0.422 -0.5061  2.2408 -0.5357
 8017SOL     OW28897   2.838   7.125   3.105 -0.0873 -0.1039  0.2615
 8017SOL    HW128898   2.916   7.180   3.110 -2.0081  2.6688  0.4471
 8017SOL    HW228899   2.867   7.048   3.056  3.0051  0.3841  1.1733
 8018SOL     OW28900   3.114   5.670   2.546 -0.3278 -0.1125 -0.8103
 8018SOL    HW128901   3.116   5.766   2.548  1.7173 -0.1436 -0.5927
 8018SOL    HW228902   3.023   5.648   2.566 -0.6226  1.7537  0.0341
 8019SOL     OW28903   4.165   4.766   0.003  0.4945  0.2884 -0.2660
 8019SOL    HW128904   4.229   4.705  -0.034  0.3233  0.1216 -0.2850
 8019SOL    HW228905   4.090   4.760  -0.055  0.6094  0.7762 -0.4671
 8020SOL     OW28906   3.883   4.583   9.402  0.3684 -0.7766 -0.4511
 8020SOL    HW128907   3.847   4.571   9.490  0.4469  0.1444 -0.2962
 8020SOL    HW228908   3.978   4.583   9.414  0.3602  0.6782 -0.3638
 8021SOL     OW28909   2.233   3.876   0.910  0.3352  0.4799 -0.3564
 8021SOL    HW128910   2.258   3.923   0.990  0.0279 -0.6103  0.3889
 8021SOL    HW228911   2.310   3.822   0.889  0.4164  0.7636 -0.8110
 8022SOL     OW28912   1.206   5.556   1.644 -0.0451  0.0918  0.5343
 8022SOL    HW128913   1.299   5.550   1.621 -0.3183  1.1734 -0.9402
 8022SOL    HW228914   1.204   5.540   1.738  1.4694 -1.3265  0.3489
 8023SOL     OW28915   2.318   7.084   1.071  0.4619 -0.1293 -0.4083
 8023SOL    HW128916   2.351   7.060   1.158 -0.0663 -0.1404 -0.2035
 8023SOL    HW228917   2.224   7.099   1.086  0.4814  0.4143 -0.8706
 8024SOL     OW28918   2.673   3.084   1.241  0.0682 -0.7257  0.1971
 8024SOL    HW128919   2.605   3.095   1.175  1.1364 -0.8621 -0.9557
 8024SOL    HW228920   2.673   3.166   1.289  0.5178  0.1164 -1.1938
 8025SOL     OW28921   1.885   4.900   9.672 -0.4532  0.4318  0.1742
 8025SOL    HW128922   1.853   4.882   9.761  0.8768 -2.3688  0.1399
 8025SOL    HW228923   1.828   4.970   9.640 -1.5554  0.8489  2.8960
 8026SOL     OW28924   1.949   5.096   2.341  0.2729 -0.5465 -0.1048
 8026SOL    HW128925   1.899   5.022   2.309  0.2414 -0.0785 -1.1476
 8026SOL    HW228926   1.885   5.149   2.389  0.1205 -0.7544 -0.0764
 8027SOL     OW28927   0.730   5.543   2.496 -0.6284  0.0090 -0.6083
 8027SOL    HW128928   0.735   5.490   2.417 -0.9439  1.6654 -1.7708
 8027SOL    HW228929   0.803   5.513   2.550  1.1205  0.5572 -2.6104
 8028SOL     OW28930   1.920   5.426   2.210 -0.1006  0.4693 -0.6618
 8028SOL    HW128931   1.911   5.520   2.194 -2.9481  0.1025 -1.4237
 8028SOL    HW228932   1.849   5.405   2.270  1.8670 -0.8240  1.3148
 8029SOL     OW28933   1.954   4.192   2.959  0.0023  0.6655 -0.1416
 8029SOL    HW128934   2.015   4.151   3.020  1.2367  1.3955 -0.8560
 8029SOL    HW228935   1.975   4.154   2.874 -0.6175  0.8383 -0.3781
 8030SOL     OW28936   2.900   3.765   0.519  0.6641 -0.1266 -0.0678
 8030SOL    HW128937   2.901   3.796   0.429 -0.1632  1.9181  0.5944
 8030SOL    HW228938   2.987   3.726   0.533  0.5598 -1.0567 -1.9186
 8031SOL     OW28939   2.290   4.459   0.860 -0.2524  0.1053 -0.0360
 8031SOL    HW128940   2.343   4.448   0.781 -0.5827 -0.9611 -0.1151
 8031SOL    HW228941   2.207   4.415   0.840 -0.3238 -0.1954  0.9175
 8032SOL     OW28942   2.527   5.462   1.296  0.6691  0.3571 -0.6123
 8032SOL    HW128943   2.602   5.403   1.312 -1.7806 -2.5917  0.5148
 8032SOL    HW228944   2.477   5.418   1.228 -0.4626  1.9120 -0.8002
 8033SOL     OW28945   3.221   4.125   1.077  0.1492  0.0048  0.1907
 8033SOL    HW128946   3.140   4.136   1.027  1.2461 -1.1476 -1.8841
 8033SOL    HW228947   3.198   4.062   1.145 -0.5702 -0.7168 -0.7036
 8034SOL     OW28948   2.226   3.750   1.463 -0.4817  0.1244 -0.7431
 8034SOL    HW128949   2.234   3.745   1.558  1.5478 -1.6289 -0.9701
 8034SOL    HW228950   2.181   3.669   1.438  0.0421  0.0153 -1.3678
 8035SOL     OW28951   4.094   2.581   1.385  0.1237  0.5143  0.0248
 8035SOL    HW128952   4.085   2.648   1.317  2.4880  0.9644  0.0863
 8035SOL    HW228953   4.082   2.498   1.339  2.1089  0.7949 -1.0576
 8036SOL     OW28954   9.776   4.477   1.081 -0.2937 -0.0509 -0.3039
 8036SOL    HW128955   9.737   4.561   1.104 -0.3122  0.3089 -1.6268
 8036SOL    HW228956   9.845   4.464   1.145 -0.6272  0.7295  0.2196
 8037SOL     OW28957   2.090   5.188   9.255 -0.0965  0.4285  0.5506
 8037SOL    HW128958   2.111   5.102   9.220 -0.0351  0.9253 -0.6568
 8037SOL    HW228959   2.152   5.201   9.327  0.1243 -0.3854  0.5024
 8038SOL     OW28960   0.986   5.403   0.499  0.1938  0.2346  0.3275
 8038SOL    HW128961   1.034   5.344   0.441  1.0148  0.7449  0.4692
 8038SOL    HW228962   1.052   5.466   0.529 -0.4881  0.7254  0.8279
 8039SOL     OW28963   1.794   2.565   1.395  0.9048  0.5015  0.0301
 8039SOL    HW128964   1.776   2.498   1.461  0.5073 -0.0890 -0.6792
 8039SOL    HW228965   1.742   2.539   1.319  2.6377  0.2702 -1.1109
 8040SOL     OW28966   1.498   3.817   2.209 -0.7647  0.0632  0.4221
 8040SOL    HW128967   1.540   3.900   2.233  0.0911 -0.4869  0.8388
 8040SOL    HW228968   1.426   3.808   2.271 -1.2964  0.8496 -0.0802
 8041SOL     OW28969   2.642   5.073   2.543  0.2929 -0.3795  0.6317
 8041SOL    HW128970   2.643   5.112   2.630  1.8342  2.6951 -0.6979
 8041SOL    HW228971   2.725   5.026   2.537  0.2755 -0.4268  0.7635
 8042SOL     OW28972   2.848   5.336   2.176 -0.4787  0.0633  0.0315
 8042SOL    HW128973   2.874   5.413   2.124 -2.1471  0.7183  0.1539
 8042SOL    HW228974   2.908   5.267   2.146 -0.4186  0.8211 -1.6988
 8043SOL     OW28975   2.159   4.173   1.516  0.0544 -0.4269 -0.3314
 8043SOL    HW128976   2.109   4.181   1.598  0.7844 -0.8120  0.1555
 8043SOL    HW228977   2.119   4.098   1.471 -1.1933  0.5836 -0.9356
 8044SOL     OW28978   3.516   2.155   2.510  0.2146  0.1755  0.0041
 8044SOL    HW128979   3.610   2.136   2.509  0.3990  0.9543  1.0640
 8044SOL    HW228980   3.484   2.113   2.590 -0.3574 -0.1707 -0.4037
 8045SOL     OW28981   3.225   7.296   4.179  0.1736 -0.7635  0.0530
 8045SOL    HW128982   3.233   7.201   4.179 -0.9078 -0.8942  2.1416
 8045SOL    HW228983   3.130   7.312   4.185  0.4396  0.3838  1.9437
 8046SOL     OW28984   1.450   3.100   2.972 -0.2342  0.3326  0.5614
 8046SOL    HW128985   1.447   3.020   3.024 -0.1340  0.2917  0.5028
 8046SOL    HW228986   1.438   3.072   2.882  1.3980  0.2228  0.3794
 8047SOL     OW28987   2.732   5.485   2.972 -0.2276 -0.4557 -0.3529
 8047SOL    HW128988   2.746   5.574   3.006 -0.1950 -0.7383  0.3630
 8047SOL    HW228989   2.744   5.428   3.047 -0.6127 -1.0454 -0.7383
 8048SOL     OW28990   2.765   4.831   4.100  0.0044 -0.0678  0.1671
 8048SOL    HW128991   2.693   4.875   4.053  1.2382 -1.0623 -2.8049
 8048SOL    HW228992   2.737   4.740   4.105  0.8284 -0.3658 -0.5692
 8049SOL     OW28993   1.222   5.380   2.608  0.1289  0.3987  0.2391
 8049SOL    HW128994   1.263   5.452   2.655  1.8401  1.0699 -2.1627
 8049SOL    HW228995   1.287   5.354   2.542 -1.3744 -1.8052 -0.4520
 8050SOL     OW28996   2.335   5.843   1.004 -0.6078  0.0425  0.8380
 8050SOL    HW128997   2.293   5.803   1.080 -2.0100 -0.5345 -0.2238
 8050SOL    HW228998   2.325   5.937   1.019 -1.8314 -0.0777  0.8647
 8051SOL     OW28999   1.642   4.109   3.283 -0.0624 -0.3181  0.1432
 8051SOL    HW129000   1.664   4.059   3.205 -0.9758 -0.9398  0.2713
 8051SOL    HW229001   1.585   4.051   3.333  0.8011 -0.0683  1.4411
 8052SOL     OW29002   4.030   3.024   4.046  0.3507 -0.3570 -0.1402
 8052SOL    HW129003   3.937   3.007   4.029  0.4372 -2.2331  1.1558
 8052SOL    HW229004   4.030   3.111   4.086 -1.1519 -1.3429  2.1347
 8053SOL     OW29005   2.326   5.484   1.503 -1.0058 -0.0671  0.6718
 8053SOL    HW129006   2.382   5.443   1.437 -0.1378  2.4905 -0.2642
 8053SOL    HW229007   2.358   5.449   1.586  0.0504 -0.8576 -0.0408
 8054SOL     OW29008   3.053   5.147   2.196  0.4059 -0.2899  0.6894
 8054SOL    HW129009   3.129   5.206   2.192  0.7679 -0.6147  2.2028
 8054SOL    HW229010   3.091   5.060   2.186  0.0055 -0.3428 -0.3981
 8055SOL     OW29011   1.925   6.265   2.598  0.4033 -0.6665 -0.0281
 8055SOL    HW129012   1.897   6.188   2.548 -0.3790 -1.1669  1.1529
 8055SOL    HW229013   1.915   6.239   2.689 -0.4248  1.0335  0.3876
 8056SOL     OW29014   2.035   4.494   2.732  0.1848  0.5341 -0.2639
 8056SOL    HW129015   1.976   4.555   2.776  0.7399  1.0157 -0.1826
 8056SOL    HW229016   1.980   4.418   2.712 -0.0481  0.2161  1.4482
 8057SOL     OW29017   2.442   4.653   4.121 -0.0323 -0.5072  0.3287
 8057SOL    HW129018   2.355   4.621   4.142 -0.7873  1.5317  0.4874
 8057SOL    HW229019   2.428   4.745   4.098  1.8346 -0.6432 -1.4309
 8058SOL     OW29020   4.982   4.048   2.493 -0.2078 -0.4973 -0.1236
 8058SOL    HW129021   5.031   4.115   2.446 -0.8432 -0.1501 -0.3055
 8058SOL    HW229022   4.979   3.973   2.433  1.5048 -1.1268  0.5408
 8059SOL     OW29023   2.602   4.170   2.498 -0.1157  0.0717 -0.0923
 8059SOL    HW129024   2.591   4.264   2.511  0.1586 -0.1236  1.6276
 8059SOL    HW229025   2.651   4.163   2.416 -0.2170  1.4259 -0.2742
 8060SOL     OW29026   1.459   4.265   2.589  0.6760  0.2716  0.4397
 8060SOL    HW129027   1.440   4.248   2.681  2.0478 -0.3424  0.6042
 8060SOL    HW229028   1.413   4.196   2.542  3.5298 -2.0172  0.9210
 8061SOL     OW29029   3.556   4.822   3.317  0.5362  0.4228 -0.4930
 8061SOL    HW129030   3.481   4.853   3.267 -0.4621  1.0275  1.3642
 8061SOL    HW229031   3.534   4.732   3.340 -0.2224  1.0242  1.1833
 8062SOL     OW29032   0.922   4.813   1.859  0.3789  0.2209 -0.1745
 8062SOL    HW129033   0.900   4.790   1.949  0.7496  1.9729  0.3935
 8062SOL    HW229034   1.017   4.807   1.854  0.2472 -1.4587 -0.9229
 8063SOL     OW29035   0.914   4.046   1.669 -0.1774 -0.3957  0.0278
 8063SOL    HW129036   0.944   4.047   1.760 -0.0459 -1.2118 -0.0032
 8063SOL    HW229037   0.826   4.009   1.673  0.4924 -2.0843 -0.3591
 8064SOL     OW29038   1.531   3.109   1.816  0.3906 -0.1689 -0.5246
 8064SOL    HW129039   1.617   3.120   1.857  0.3378 -0.6813 -0.2778
 8064SOL    HW229040   1.519   3.190   1.765  0.3494  0.5746  0.6477
 8065SOL     OW29041   1.554   4.328   4.003 -0.4619  0.5242 -0.3591
 8065SOL    HW129042   1.477   4.347   4.056 -0.0640  1.0744  0.0267
 8065SOL    HW229043   1.562   4.233   4.006 -0.9279  0.4894 -0.1236
 8066SOL     OW29044   2.280   5.241   2.047 -0.6890  0.4462 -0.0120
 8066SOL    HW129045   2.374   5.258   2.048 -0.6752  0.3567  0.2155
 8066SOL    HW229046   2.262   5.201   2.132 -1.0174  0.9087  0.1388
 8067SOL     OW29047   1.938   5.423   2.616 -0.2968 -0.0749 -0.7333
 8067SOL    HW129048   2.020   5.378   2.636 -1.7944 -1.5291  2.4184
 8067SOL    HW229049   1.954   5.514   2.637  0.3728 -0.4432  0.3593
 8068SOL     OW29050   3.543   3.493   1.964 -0.0634  0.3605  0.0104
 8068SOL    HW129051   3.492   3.420   1.999 -0.2715  2.1772  3.6070
 8068SOL    HW229052   3.626   3.453   1.939 -0.7401 -1.3842  0.4543
 8069SOL     OW29053   2.452   7.354   3.175  0.3607  0.1705  0.2035
 8069SOL    HW129054   2.513   7.373   3.104 -0.1771 -0.3286 -0.4052
 8069SOL    HW229055   2.394   7.430   3.178 -0.7032 -0.5666 -1.0648
 8070SOL     OW29056   3.218   5.751   1.628 -0.0216 -0.2160 -0.4111
 8070SOL    HW129057   3.233   5.841   1.602  1.0359 -0.4311 -0.5814
 8070SOL    HW229058   3.305   5.717   1.649 -0.3008 -1.4357 -1.1501
 8071SOL     OW29059   1.718   4.665   3.379 -0.1522  0.4918  0.6045
 8071SOL    HW129060   1.639   4.626   3.417  0.2518 -0.4390  0.5007
 8071SOL    HW229061   1.700   4.669   3.285 -0.9052  2.2205  0.8135
 8072SOL     OW29062   3.261   5.126   3.373 -0.0687 -0.4883  0.5482
 8072SOL    HW129063   3.327   5.167   3.428 -0.2901  0.0246  0.4367
 8072SOL    HW229064   3.192   5.100   3.434  1.1453 -2.9276  0.9536
 8073SOL     OW29065   2.298   6.794   2.063 -0.4167 -0.0504 -0.5113
 8073SOL    HW129066   2.204   6.810   2.075 -0.6002 -0.0430 -1.8963
 8073SOL    HW229067   2.308   6.782   1.969  0.8189 -1.0975 -0.2535
 8074SOL     OW29068   1.589   4.550   2.235 -0.0284  0.6847 -0.2152
 8074SOL    HW129069   1.502   4.584   2.254 -1.0156 -1.6538 -0.4275
 8074SOL    HW229070   1.603   4.482   2.300  2.0514  1.6376  0.4034
 8075SOL     OW29071   2.855   4.758   3.429 -0.0980 -0.1827 -0.7688
 8075SOL    HW129072   2.883   4.732   3.517 -0.6804 -1.7711 -1.0290
 8075SOL    HW229073   2.834   4.851   3.437  0.8042 -0.0766  0.5295
 8076SOL     OW29074   5.187   3.918   2.300  0.1803 -0.0396 -0.7281
 8076SOL    HW129075   5.257   3.890   2.358 -0.4484  0.7758  0.4540
 8076SOL    HW229076   5.222   3.995   2.255 -0.4015  1.1871  0.8548
 8077SOL     OW29077   2.790   4.842   2.240 -0.0101  0.2905 -0.0177
 8077SOL    HW129078   2.799   4.780   2.168  0.5457 -0.2286  0.5013
 8077SOL    HW229079   2.765   4.789   2.316 -0.6182  0.8399  0.1695
 8078SOL     OW29080   5.488   2.995   4.136  0.2217  0.2989  0.0053
 8078SOL    HW129081   5.544   2.919   4.121  1.4943  1.0245  0.9744
 8078SOL    HW229082   5.398   2.961   4.130  0.7764 -1.1520 -0.1274
 8079SOL     OW29083   2.308   3.285   1.990  0.2509 -0.5727  0.6416
 8079SOL    HW129084   2.376   3.335   2.036  1.4562  0.7023 -2.4262
 8079SOL    HW229085   2.348   3.199   1.976  0.7919 -0.2104 -0.0869
 8080SOL     OW29086   1.472   5.537   1.859  0.2070  0.5163 -0.1024
 8080SOL    HW129087   1.501   5.626   1.839 -0.9227  0.9081 -0.0927
 8080SOL    HW229088   1.391   5.550   1.909  0.9214 -0.4943  1.3283
 8081SOL     OW29089   2.525   0.844   3.569  0.3759 -0.1958 -0.6469
 8081SOL    HW129090   2.521   0.750   3.552  0.5269 -0.4646  0.7848
 8081SOL    HW229091   2.434   0.871   3.576  0.3565 -0.5131  0.4040
 8082SOL     OW29092   1.393   3.406   2.427 -0.3960 -0.0887  0.1298
 8082SOL    HW129093   1.371   3.325   2.474  0.2982 -0.5441 -0.3113
 8082SOL    HW229094   1.424   3.376   2.341  1.2861  0.5432  0.4936
 8083SOL     OW29095   3.323   4.033   4.673 -0.0492 -0.1025  0.5025
 8083SOL    HW129096   3.374   4.109   4.644 -1.4975  0.7816  0.2513
 8083SOL    HW229097   3.309   4.048   4.767  0.6356 -0.6332  0.6937
 8084SOL     OW29098   2.884   3.080   1.700 -0.4693  0.3409 -0.0014
 8084SOL    HW129099   2.821   3.058   1.632 -0.8714  0.7942  0.2260
 8084SOL    HW229100   2.870   3.173   1.718  0.0683  0.3777  0.2523
 8085SOL     OW29101   4.106   6.763   2.614  0.2451 -0.9414 -0.3254
 8085SOL    HW129102   4.033   6.766   2.552  1.3625 -0.7495 -1.6731
 8085SOL    HW229103   4.149   6.848   2.604 -0.6643 -0.1716  2.1129
 8086SOL     OW29104   2.922   3.620   1.197  0.0193  0.0580 -0.1017
 8086SOL    HW129105   2.836   3.632   1.158 -0.4098 -0.5976  0.6369
 8086SOL    HW229106   2.951   3.534   1.166  1.5407  1.3261 -2.4461
 8087SOL     OW29107   2.860   5.605   1.645  0.2984 -0.6173  1.0793
 8087SOL    HW129108   2.888   5.696   1.655 -1.8016  0.2424 -0.4586
 8087SOL    HW229109   2.781   5.598   1.698 -1.2165 -0.6877 -1.0968
 8088SOL     OW29110   0.604   5.901   2.670  0.0722 -0.1908  0.3792
 8088SOL    HW129111   0.635   5.897   2.760 -0.7798  0.6359  0.7125
 8088SOL    HW229112   0.551   5.821   2.658  1.4750 -1.1034  0.1106
 8089SOL     OW29113   3.718   4.741   0.902 -0.2441 -0.6022  0.2878
 8089SOL    HW129114   3.629   4.716   0.878 -0.0955  0.8199 -1.9254
 8089SOL    HW229115   3.766   4.659   0.905 -0.7813 -1.0844 -2.3245
 8090SOL     OW29116   1.288   5.719   2.961 -0.3445  0.0593  0.0095
 8090SOL    HW129117   1.232   5.751   3.031  0.1774  0.8408  0.0805
 8090SOL    HW229118   1.286   5.624   2.969 -1.4758  0.0950  0.1482
 8091SOL     OW29119   0.846   5.482   1.014  0.1853  0.1225  0.4436
 8091SOL    HW129120   0.933   5.520   1.008  0.0742  0.6993  2.0581
 8091SOL    HW229121   0.799   5.516   0.939  1.0201  0.7150  0.1854
 8092SOL     OW29122   3.454   6.453   2.309 -0.2592  0.4107 -0.7234
 8092SOL    HW129123   3.491   6.365   2.309 -0.2734  0.4015  0.1394
 8092SOL    HW229124   3.364   6.441   2.278 -0.8639 -0.1500  1.1706
 8093SOL     OW29125   4.331   5.836   2.159 -0.3382 -0.1015 -0.4667
 8093SOL    HW129126   4.415   5.794   2.144 -0.4316 -0.5271  0.1612
 8093SOL    HW229127   4.348   5.902   2.226 -0.3096  0.4614 -1.0313
 8094SOL     OW29128   2.494   5.266   3.914  0.1062  0.0838 -0.0080
 8094SOL    HW129129   2.476   5.173   3.897 -0.7361 -0.0273  1.3949
 8094SOL    HW229130   2.513   5.303   3.828 -1.7940 -0.9075 -0.8815
 8095SOL     OW29131   2.816   5.445   1.249 -0.1974  0.0641 -0.3122
 8095SOL    HW129132   2.881   5.404   1.306  0.2073  1.2816  0.1086
 8095SOL    HW229133   2.837   5.413   1.161  0.7145  0.1393 -0.1210
 8096SOL     OW29134   1.012   4.272   2.231  0.7892 -0.3589 -0.0188
 8096SOL    HW129135   1.084   4.328   2.205  1.9408 -1.0999  1.5181
 8096SOL    HW229136   1.051   4.186   2.245 -0.2955 -0.6775  1.2308
 8097SOL     OW29137   2.378   3.692   1.815  0.8125 -0.3924 -0.2388
 8097SOL    HW129138   2.290   3.712   1.783  0.2605 -1.3788  0.6280
 8097SOL    HW229139   2.403   3.612   1.769  1.4468  0.1318 -0.8178
 8098SOL     OW29140   2.878   4.529   3.282  0.3973 -0.2279 -0.4433
 8098SOL    HW129141   2.888   4.599   3.347  0.1948  1.0099 -1.7202
 8098SOL    HW229142   2.828   4.461   3.327  2.4934 -0.5230  1.5467
 8099SOL     OW29143   1.638   5.551   2.578 -0.5330  0.1686 -0.5008
 8099SOL    HW129144   1.606   5.613   2.644  0.6288 -2.0215  2.2453
 8099SOL    HW229145   1.661   5.606   2.503  0.3076  3.0653  1.7511
 8100SOL     OW29146   3.263   3.559   1.467 -0.2684  0.5105 -0.5116
 8100SOL    HW129147   3.247   3.542   1.374  0.5963 -2.6585 -0.1208
 8100SOL    HW229148   3.179   3.542   1.509 -0.6759  2.0043 -0.6972
 8101SOL     OW29149   3.621   4.014   3.364  0.2281  0.2411  0.0861
 8101SOL    HW129150   3.600   4.103   3.394  0.4067  0.5024 -0.5395
 8101SOL    HW229151   3.706   4.023   3.321  0.8762 -0.5052  1.2088
 8102SOL     OW29152   1.543   5.203   2.578 -0.1026 -0.0963 -0.0975
 8102SOL    HW129153   1.464   5.168   2.537 -0.6541  1.1612 -0.1365
 8102SOL    HW229154   1.536   5.177   2.669  0.3423 -1.5479 -0.4704
 8103SOL     OW29155   2.072   5.004   2.727  0.1881  0.0653  0.5714
 8103SOL    HW129156   2.027   4.928   2.765 -0.2670 -0.3683 -0.8306
 8103SOL    HW229157   2.153   4.968   2.691  0.0991  0.2832  0.1486
 8104SOL     OW29158   4.533   6.627   3.191 -0.4183  0.3095 -0.7986
 8104SOL    HW129159   4.535   6.723   3.189  1.2647  0.3017 -0.2263
 8104SOL    HW229160   4.590   6.600   3.120  0.5336 -0.2462  0.1556
 8105SOL     OW29161   3.127   5.394   1.901 -0.2852  0.1686 -0.5839
 8105SOL    HW129162   3.071   5.452   1.953  1.6450  2.8207 -1.3296
 8105SOL    HW229163   3.092   5.400   1.812 -1.8766 -2.1902 -0.1692
 8106SOL     OW29164   1.338   5.584   2.733  0.3271  0.4604 -0.3400
 8106SOL    HW129165   1.326   5.625   2.818 -0.0082 -2.7007  1.1921
 8106SOL    HW229166   1.432   5.565   2.728  0.2901  0.3241 -0.5265
 8107SOL     OW29167   1.394   1.535   1.001  0.0313  0.0156 -0.4199
 8107SOL    HW129168   1.342   1.497   0.930  0.1492 -1.9188  0.4853
 8107SOL    HW229169   1.393   1.468   1.069  0.2808  1.6736  1.2407
 8108SOL     OW29170   1.595   1.671   9.224  0.4102  0.0481 -0.4408
 8108SOL    HW129171   1.550   1.655   9.307 -1.7308  0.1884 -1.5276
 8108SOL    HW229172   1.652   1.595   9.211  0.4191 -0.1817  0.9337
 8109SOL     OW29173   2.698   5.748   2.396  0.2337  0.0448 -0.1413
 8109SOL    HW129174   2.717   5.818   2.459  0.3916  0.1850 -0.3423
 8109SOL    HW229175   2.715   5.667   2.444  2.9120  0.1781 -0.7764
 8110SOL     OW29176   1.748   3.664   2.014 -0.0376  0.6080  0.0721
 8110SOL    HW129177   1.785   3.752   2.009 -0.6708  0.7940 -2.3758
 8110SOL    HW229178   1.784   3.619   1.937 -1.4306 -0.5836  0.0949
 8111SOL     OW29179   3.054   1.815   2.959  0.2579 -0.1416  0.6475
 8111SOL    HW129180   3.065   1.733   2.912 -1.2053 -0.5443  0.9837
 8111SOL    HW229181   3.141   1.856   2.957  0.0857  0.1973 -2.9568
 8112SOL     OW29182   2.316   4.918   2.642  0.4502 -0.0624  0.0108
 8112SOL    HW129183   2.394   4.870   2.668 -0.7946 -1.6215  0.9129
 8112SOL    HW229184   2.302   4.894   2.550  2.0895  1.7010 -0.7293
 8113SOL     OW29185   5.952   6.944   1.470 -0.6684  0.4694  0.5648
 8113SOL    HW129186   5.972   7.002   1.543 -0.2690 -0.7374  1.4269
 8113SOL    HW229187   5.890   6.880   1.505  1.7392 -1.8938  0.7171
 8114SOL     OW29188   2.999   3.903   0.874  0.6890 -0.1542 -0.3590
 8114SOL    HW129189   3.036   3.816   0.857 -0.5870 -0.6234 -0.7782
 8114SOL    HW229190   2.913   3.901   0.834 -0.0509  0.7309  1.1383
 8115SOL     OW29191   1.206   5.717   4.186  0.8541 -0.9581 -0.1640
 8115SOL    HW129192   1.212   5.730   4.091 -1.4148  1.0236 -0.0773
 8115SOL    HW229193   1.114   5.731   4.206  1.9748  2.7083  2.9086
 8116SOL     OW29194   1.487   2.571   1.826 -0.0708 -0.2523 -0.2055
 8116SOL    HW129195   1.417   2.606   1.771  0.3352 -0.0419 -0.5880
 8116SOL    HW229196   1.461   2.481   1.844 -1.1936  0.2705  0.9026
 8117SOL     OW29197   3.050   2.945   2.457  0.4083 -0.0391 -0.4841
 8117SOL    HW129198   2.966   2.900   2.446  0.5922 -0.8313  1.2143
 8117SOL    HW229199   3.113   2.875   2.473  1.2670  0.6105 -0.9926
 8118SOL     OW29200   1.928   2.712   2.211  0.1858  0.2214  0.4945
 8118SOL    HW129201   1.928   2.617   2.200  2.5368  0.2274  0.2280
 8118SOL    HW229202   2.016   2.733   2.242 -0.6970  2.1824  1.7710
 8119SOL     OW29203   1.603   3.979   1.717 -0.5077  0.2809  0.2119
 8119SOL    HW129204   1.511   3.990   1.741 -0.6394 -2.8119  1.3215
 8119SOL    HW229205   1.601   3.917   1.644  0.6917  0.4708  0.0139
 8120SOL     OW29206   1.592   4.686   2.588  0.7492  0.0952 -0.0576
 8120SOL    HW129207   1.522   4.660   2.529 -0.0475  1.9417  0.0431
 8120SOL    HW229208   1.554   4.677   2.676  0.6801  0.9657  0.0045
 8121SOL     OW29209   2.197   4.237   1.241  0.1370  0.3587 -0.4713
 8121SOL    HW129210   2.111   4.261   1.205 -0.5090  1.6001  1.8040
 8121SOL    HW229211   2.178   4.204   1.329  1.8669 -0.8319 -0.5157
 8122SOL     OW29212   3.296   3.588   1.154 -0.7906 -0.8558  0.2821
 8122SOL    HW129213   3.225   3.636   1.111  0.3224  0.8517  0.2804
 8122SOL    HW229214   3.371   3.647   1.149  0.5192 -2.4373  0.6918
 8123SOL     OW29215   2.904   4.934   2.514  0.6222 -0.1710 -0.4910
 8123SOL    HW129216   2.889   4.853   2.562  0.9242  0.8296  1.3223
 8123SOL    HW229217   2.881   4.912   2.424  0.4077 -2.1842  0.0152
 8124SOL     OW29218   2.587   4.601   2.046  0.3662  0.4022  0.8249
 8124SOL    HW129219   2.538   4.637   1.971 -1.6310  0.0828  1.9442
 8124SOL    HW229220   2.522   4.593   2.115  2.0020 -0.1989  2.3192
 8125SOL     OW29221   2.794   5.284   3.705 -0.3373  0.0722 -0.3582
 8125SOL    HW129222   2.764   5.238   3.627 -1.3008  0.5803 -0.2944
 8125SOL    HW229223   2.858   5.347   3.672  0.1783 -0.5667 -0.5797
 8126SOL     OW29224   2.781   2.619   1.076  0.0572 -0.4925 -0.1578
 8126SOL    HW129225   2.765   2.538   1.124 -0.0844 -1.0353 -1.1321
 8126SOL    HW229226   2.697   2.643   1.039  0.0611  0.1974  0.2612
 8127SOL     OW29227   1.247   4.500   2.450  0.3996  0.0835 -0.0735
 8127SOL    HW129228   1.315   4.434   2.465 -1.1948 -1.1443  1.9810
 8127SOL    HW229229   1.228   4.494   2.357  1.9152 -0.7311 -0.3497
 8128SOL     OW29230   2.019   5.700   3.891 -0.4581 -0.1032 -0.2861
 8128SOL    HW129231   1.958   5.764   3.928 -0.0788  0.6518 -0.9406
 8128SOL    HW229232   2.036   5.639   3.962  0.2463  1.3159  0.7977
 8129SOL     OW29233   4.419   5.170   3.230  0.2865  0.1483 -0.6407
 8129SOL    HW129234   4.332   5.200   3.255 -0.1700 -1.5613 -0.1646
 8129SOL    HW229235   4.404   5.107   3.160  1.1937  0.3946 -1.0647
 8130SOL     OW29236   3.938   5.179   1.126 -0.1885  0.3519  0.4783
 8130SOL    HW129237   3.911   5.098   1.083  2.6769 -1.7887  2.5273
 8130SOL    HW229238   3.856   5.224   1.146 -1.7708 -1.2102 -2.1802
 8131SOL     OW29239   1.784   4.409   2.788  0.1849 -1.1561  0.2716
 8131SOL    HW129240   1.837   4.336   2.821  1.8684  0.5068  1.3710
 8131SOL    HW229241   1.718   4.423   2.855  1.0313 -0.4663  0.9739
 8132SOL     OW29242   6.536   5.943   0.596  0.0628  0.3145 -0.3523
 8132SOL    HW129243   6.516   5.853   0.568  1.3134 -0.2159  0.4157
 8132SOL    HW229244   6.614   5.966   0.546 -0.6304  1.2351 -1.0376
 8133SOL     OW29245   2.114   4.046   0.555  0.6408  0.5236  0.7281
 8133SOL    HW129246   2.041   4.038   0.616 -0.0620  2.8478  0.2338
 8133SOL    HW229247   2.073   4.052   0.469  1.4449  1.4743  0.4116
 8134SOL     OW29248   2.970   3.010   2.806  0.2185  0.0005  1.0277
 8134SOL    HW129249   3.024   2.944   2.764 -0.9030 -1.2553  1.5020
 8134SOL    HW229250   2.955   3.076   2.738  0.4438 -0.7810  0.2114
 8135SOL     OW29251   2.058   3.926   2.278 -0.2322  0.6793 -0.3508
 8135SOL    HW129252   1.998   3.980   2.227  1.6129  2.7613 -0.3786
 8135SOL    HW229253   2.088   3.858   2.217 -0.3642  1.3419 -1.1569
 8136SOL     OW29254   3.381   4.337   2.932  0.3665 -0.5403 -0.1925
 8136SOL    HW129255   3.304   4.293   2.966 -1.3918  2.1061 -0.6419
 8136SOL    HW229256   3.380   4.318   2.838  0.5178 -0.8725 -0.1276
 8137SOL     OW29257   2.401   5.005   2.911  0.0719  0.3208 -0.6762
 8137SOL    HW129258   2.388   5.099   2.923 -1.1137  0.1241 -0.2839
 8137SOL    HW229259   2.352   4.985   2.831  0.4236  0.0647 -0.8252
 8138SOL     OW29260   2.105   6.048   3.930  0.1683  0.4129 -0.1463
 8138SOL    HW129261   2.181   6.093   3.968  0.5640 -0.8931  0.6373
 8138SOL    HW229262   2.122   6.048   3.836  0.8088  0.7344 -0.0394
 8139SOL     OW29263   2.641   6.278   2.609 -0.3725  0.1312  0.4955
 8139SOL    HW129264   2.553   6.301   2.579 -0.8904 -0.7780  1.2837
 8139SOL    HW229265   2.637   6.282   2.704  0.7550  1.1643  0.5157
 8140SOL     OW29266   0.144   3.646   2.633 -0.7491 -0.0944 -0.1118
 8140SOL    HW129267   0.082   3.707   2.672  1.1006  3.7093 -2.8423
 8140SOL    HW229268   0.225   3.658   2.683 -0.0469  0.5467 -1.3897
 8141SOL     OW29269   2.239   5.216   1.730 -0.3081  0.1849 -0.0025
 8141SOL    HW129270   2.326   5.220   1.691 -0.6065 -1.2629 -0.8705
 8141SOL    HW229271   2.179   5.225   1.655 -0.9040  0.9780  0.5618
 8142SOL     OW29272   2.350   6.563   3.452 -0.1936  0.2464  0.6142
 8142SOL    HW129273   2.393   6.565   3.366  1.2239  2.0131  1.3288
 8142SOL    HW229274   2.422   6.573   3.515 -1.3164 -0.0174  1.9591
 8143SOL     OW29275   2.768   5.456   2.410 -0.3792 -0.6340  0.4370
 8143SOL    HW129276   2.739   5.434   2.321 -0.0645 -1.1175  0.4534
 8143SOL    HW229277   2.851   5.409   2.421 -0.0554  0.0018  0.7298
 8144SOL     OW29278   1.810   4.140   4.189  0.4998  0.1085  0.4149
 8144SOL    HW129279   1.724   4.157   4.151  1.1310 -0.0571 -1.1093
 8144SOL    HW229280   1.793   4.075   4.258 -1.0913  2.6031  2.5014
 8145SOL     OW29281   2.723   5.971   3.019  0.3681  0.1607 -0.0182
 8145SOL    HW129282   2.691   6.014   2.940 -2.7421 -3.3134 -0.7818
 8145SOL    HW229283   2.690   6.024   3.091  2.6514  2.9646 -0.9201
 8146SOL     OW29284   4.971   6.432   1.789 -0.7327  0.7717  0.3937
 8146SOL    HW129285   5.006   6.514   1.825 -0.1203  1.2516 -1.2759
 8146SOL    HW229286   4.880   6.452   1.769 -0.0381  1.6811 -1.9380
 8147SOL     OW29287   3.548   3.064   3.523  0.1352 -0.2110  0.0489
 8147SOL    HW129288   3.493   3.071   3.601  0.0158 -0.6758  0.0082
 8147SOL    HW229289   3.575   3.154   3.505 -0.6527  0.0317  0.0378
 8148SOL     OW29290   1.938   2.337   4.098 -0.3534 -0.0890  0.8295
 8148SOL    HW129291   1.868   2.301   4.153 -1.1776  1.3275  0.7162
 8148SOL    HW229292   1.892   2.379   4.025  0.6732 -0.3249  0.0266
 8149SOL     OW29293   1.406   5.261   2.243 -0.1495  0.7776  0.3536
 8149SOL    HW129294   1.383   5.334   2.301  0.7002  0.7095  0.7844
 8149SOL    HW229295   1.388   5.183   2.295  0.2977  0.7092  0.4079
 8150SOL     OW29296   2.594   4.950   1.846 -0.3354  0.2013  0.1859
 8150SOL    HW129297   2.672   4.984   1.889 -1.1977  2.3051  0.1719
 8150SOL    HW229298   2.529   4.945   1.916 -1.2705  2.0879 -0.5030
 8151SOL     OW29299   1.633   3.975   2.005  0.1902 -0.6764 -0.9203
 8151SOL    HW129300   1.583   3.896   2.026  0.5435 -0.4836  0.7419
 8151SOL    HW229301   1.602   4.001   1.919 -2.2513 -0.8168 -0.1224
 8152SOL     OW29302   1.243   4.169   3.891 -0.7134  0.1346 -0.2234
 8152SOL    HW129303   1.227   4.232   3.962 -1.1731 -0.3765  0.1310
 8152SOL    HW229304   1.157   4.134   3.870 -0.7074  0.9226 -1.6507
 8153SOL     OW29305   2.463   5.093   3.523  0.0004  0.3789  0.0738
 8153SOL    HW129306   2.456   5.030   3.596  0.5025  0.5956  0.3150
 8153SOL    HW229307   2.382   5.143   3.526  0.1889  0.6481  0.7342
 8154SOL     OW29308   2.413   4.367   2.508 -0.1311 -0.3795 -0.3820
 8154SOL    HW129309   2.348   4.435   2.525  0.0076 -0.7343  1.6949
 8154SOL    HW229310   2.365   4.301   2.457 -0.4795  0.8737 -1.7230
 8155SOL     OW29311   2.170   5.268   2.658  0.5698 -0.3778  0.0281
 8155SOL    HW129312   2.123   5.187   2.639 -1.8332  1.4114 -1.7974
 8155SOL    HW229313   2.214   5.290   2.576  1.4794  0.0409  0.6136
 8156SOL     OW29314   1.858   2.287   2.411  0.5233 -0.1949  0.1653
 8156SOL    HW129315   1.795   2.354   2.437  0.0567 -0.5006 -0.1524
 8156SOL    HW229316   1.911   2.271   2.489  1.5377  1.5143 -0.1558
 8157SOL     OW29317   2.646   1.543   2.020 -0.3632 -0.3595  0.3525
 8157SOL    HW129318   2.576   1.606   2.033  0.2919  0.3902  0.3063
 8157SOL    HW229319   2.634   1.512   1.930  1.6009  2.6311 -1.0500
 8158SOL     OW29320   1.493   4.519   3.807 -0.2389 -0.0803 -0.2971
 8158SOL    HW129321   1.514   4.464   3.883  0.7574  1.5570  0.6445
 8158SOL    HW229322   1.558   4.495   3.741 -1.0889 -1.4889 -0.6335
 8159SOL     OW29323   1.388   5.893   3.170 -0.1877  0.4258  0.0320
 8159SOL    HW129324   1.402   5.856   3.083  0.2990  1.2752 -0.2535
 8159SOL    HW229325   1.381   5.816   3.227  2.5953 -0.1160 -0.2914
 8160SOL     OW29326   3.461   3.323   4.344 -0.4009  0.4180 -0.1492
 8160SOL    HW129327   3.379   3.336   4.392  0.3933  0.2062  1.2872
 8160SOL    HW229328   3.434   3.319   4.252 -1.7841  2.1931  0.1440
 8161SOL     OW29329   4.799   3.235   4.030  0.1159 -0.2659  0.3704
 8161SOL    HW129330   4.764   3.313   4.072  1.3223  0.9140 -0.7671
 8161SOL    HW229331   4.729   3.207   3.970 -0.8247 -0.8213  1.7097
 8162SOL     OW29332   3.483   3.207   1.725  0.1695  0.4903  0.1590
 8162SOL    HW129333   3.518   3.296   1.730 -1.0099  1.0277 -0.8438
 8162SOL    HW229334   3.460   3.185   1.816  0.6038  1.1513  0.4275
 8163SOL     OW29335   3.684   5.569   2.074 -0.0954 -0.2940  0.2732
 8163SOL    HW129336   3.589   5.581   2.067  0.3206  3.3728 -0.0535
 8163SOL    HW229337   3.714   5.568   1.983  0.3191  0.0569  0.4051
 8164SOL     OW29338   3.679   4.485   3.565 -0.0168 -0.1270  0.2895
 8164SOL    HW129339   3.626   4.486   3.485 -0.5007 -0.8813  0.5962
 8164SOL    HW229340   3.644   4.557   3.618 -0.0554  0.0239  0.0606
 8165SOL     OW29341   1.825   3.804   2.412 -0.1312  0.5149  0.8696
 8165SOL    HW129342   1.890   3.858   2.368  0.2100 -0.4218  0.2189
 8165SOL    HW229343   1.751   3.863   2.428  0.7091  1.4701  1.2364
 8166SOL     OW29344   1.578   3.151   3.331  0.0014  0.2733  0.2923
 8166SOL    HW129345   1.572   3.138   3.426 -0.5161 -2.8785 -0.0975
 8166SOL    HW229346   1.488   3.169   3.304  0.5219  3.6516  0.6654
 8167SOL     OW29347   3.633   2.846   3.040 -0.0839  0.1530 -0.5391
 8167SOL    HW129348   3.674   2.762   3.063  1.6842  0.9788 -0.6575
 8167SOL    HW229349   3.569   2.861   3.110 -0.8878 -1.5928 -0.8494
 8168SOL     OW29350   3.222   4.752   1.911  0.0769 -0.0349 -0.0011
 8168SOL    HW129351   3.300   4.804   1.890 -1.1183  2.7452  1.9503
 8168SOL    HW229352   3.178   4.739   1.828  1.6918 -0.0425 -0.8689
 8169SOL     OW29353   1.864   5.523   1.744 -0.5985 -0.0911 -0.0048
 8169SOL    HW129354   1.895   5.561   1.826  0.0973 -0.9587  0.1517
 8169SOL    HW229355   1.829   5.597   1.694 -2.4028  0.2216  1.6755
 8170SOL     OW29356   0.765   6.117   2.163  0.0195  0.8053  0.0381
 8170SOL    HW129357   0.848   6.070   2.158  0.3267  1.4567 -1.2092
 8170SOL    HW229358   0.782   6.188   2.226  0.4099  0.9401 -0.2141
 8171SOL     OW29359   1.038   4.834   5.111 -0.6607  0.5076 -0.3926
 8171SOL    HW129360   1.047   4.814   5.204 -1.6145 -0.9415 -0.5973
 8171SOL    HW229361   0.949   4.868   5.102 -0.3967  1.1346 -0.7074
 8172SOL     OW29362   1.368   4.153   2.833 -0.1275  0.6225 -1.1635
 8172SOL    HW129363   1.279   4.119   2.818 -0.9683  2.1810  0.1262
 8172SOL    HW229364   1.413   4.083   2.879 -1.6822  1.0027  1.0082
 8173SOL     OW29365   3.544   4.553   3.332 -0.0183 -0.1331  0.6451
 8173SOL    HW129366   3.613   4.551   3.265 -0.1456  0.5398  0.4825
 8173SOL    HW229367   3.475   4.498   3.298 -1.4410  2.7322 -1.3116
 8174SOL     OW29368   1.475   5.048   4.796 -0.1468  0.0344 -0.0338
 8174SOL    HW129369   1.389   5.031   4.836 -0.4795 -3.5144 -2.0566
 8174SOL    HW229370   1.456   5.105   4.722 -0.4075  1.2243  0.9325
 8175SOL     OW29371   2.222   5.106   3.205 -0.4562 -0.0866  0.5398
 8175SOL    HW129372   2.185   5.166   3.270 -0.0753 -0.1119  0.7842
 8175SOL    HW229373   2.146   5.072   3.158 -0.7608 -0.3217  1.1927
 8176SOL     OW29374   2.793   2.953   3.495 -0.6361 -0.7660 -0.0814
 8176SOL    HW129375   2.858   2.907   3.441  0.6418 -1.3366  1.8783
 8176SOL    HW229376   2.837   3.035   3.521 -1.1034 -0.6531  0.3682
 8177SOL     OW29377   0.926   4.870   3.188  0.4114  0.0818 -0.4064
 8177SOL    HW129378   0.834   4.842   3.192 -0.0355  1.5804  0.1445
 8177SOL    HW229379   0.975   4.789   3.172 -0.8004 -1.0801  1.5301
 8178SOL     OW29380   3.446   4.986   3.638 -0.6747  0.0370 -0.2011
 8178SOL    HW129381   3.389   5.046   3.686 -1.1228 -0.8334  0.3735
 8178SOL    HW229382   3.389   4.914   3.612  0.2017 -0.9690  0.5969
 8179SOL     OW29383   2.078   4.377   9.783 -0.2275 -0.4776 -0.7260
 8179SOL    HW129384   2.170   4.396   9.763  0.7107 -1.9753  2.0204
 8179SOL    HW229385   2.052   4.444   9.846 -1.2623  0.3326 -1.9691
 8180SOL     OW29386   9.344   5.997   4.393  0.3774  0.0204  0.1140
 8180SOL    HW129387   9.350   6.073   4.450  2.5088  0.2930 -0.4135
 8180SOL    HW229388   9.275   6.019   4.330 -0.0185  0.8984  0.8534
 8181SOL     OW29389   2.329   3.631   2.630  0.0710 -0.1787 -0.1175
 8181SOL    HW129390   2.257   3.642   2.568 -0.7885  0.8341  1.0424
 8181SOL    HW229391   2.296   3.667   2.712  1.4619 -0.8345  0.7485
 8182SOL     OW29392   1.772   5.302   3.345 -0.0403  0.3032 -0.0533
 8182SOL    HW129393   1.699   5.259   3.389  0.3784  2.0644  2.4498
 8182SOL    HW229394   1.756   5.285   3.252 -1.9542 -1.9181  0.6071
 8183SOL     OW29395   2.803   6.967   4.212 -0.3849  0.3771 -0.2989
 8183SOL    HW129396   2.709   6.988   4.205 -0.9184 -1.3799  1.1710
 8183SOL    HW229397   2.811   6.920   4.295  2.1128  1.9697  0.4004
 8184SOL     OW29398   2.314   4.420   1.972 -1.0968  0.2213  0.0313
 8184SOL    HW129399   2.359   4.401   1.890  0.0408 -1.3351  1.0032
 8184SOL    HW229400   2.268   4.339   1.994 -2.4931  1.0523  0.2537
 8185SOL     OW29401   9.713   7.592   3.921  0.0638 -0.0395  0.5729
 8185SOL    HW129402   9.660   7.669   3.942 -0.1939 -0.3309  1.0110
 8185SOL    HW229403   9.779   7.588   3.990  0.2605 -0.0475  0.3871
 8186SOL     OW29404   2.684   1.793   1.007  0.1015 -0.3406 -0.3669
 8186SOL    HW129405   2.605   1.803   1.061 -0.5572  0.2389 -1.4161
 8186SOL    HW229406   2.679   1.704   0.974  0.1378 -0.4626 -0.0477
 8187SOL     OW29407   4.455   5.431   1.415 -0.2549  0.1083  0.6032
 8187SOL    HW129408   4.444   5.340   1.388  0.8895  0.2517 -0.3574
 8187SOL    HW229409   4.510   5.470   1.348  0.3977  1.1677  1.7359
 8188SOL     OW29410   2.989   6.652   2.598 -0.1593 -0.5929 -0.2800
 8188SOL    HW129411   2.971   6.559   2.608 -0.5096 -0.6300 -1.1662
 8188SOL    HW229412   3.073   6.656   2.551 -0.3912 -0.4741 -0.6922
 8189SOL     OW29413   3.583   3.662   1.403  0.0597 -0.1346  0.0362
 8189SOL    HW129414   3.631   3.741   1.429  2.4378 -1.4205 -0.3296
 8189SOL    HW229415   3.518   3.694   1.341  0.5340  1.6332  0.4021
 8190SOL     OW29416   2.912   4.269   2.821 -0.2356 -0.2988 -0.4136
 8190SOL    HW129417   2.884   4.271   2.913 -1.8622 -1.1799 -0.8850
 8190SOL    HW229418   2.934   4.177   2.805  0.9647  0.0228 -0.6414
 8191SOL     OW29419   0.936   5.384   1.839 -0.1696 -0.3685 -0.4742
 8191SOL    HW129420   1.003   5.453   1.838 -2.8878  2.4512  1.4495
 8191SOL    HW229421   0.983   5.306   1.867  2.5032  1.3133 -0.0516
 8192SOL     OW29422   3.228   5.386   3.555 -0.0717  0.0508  0.3592
 8192SOL    HW129423   3.153   5.446   3.550 -0.3710 -0.4619 -2.9518
 8192SOL    HW229424   3.302   5.436   3.523  0.3172 -0.4341  0.4851
 8193SOL     OW29425   2.749   5.018   3.822  0.0714 -0.3871 -0.2348
 8193SOL    HW129426   2.834   4.976   3.836  0.2971  0.3487  0.7016
 8193SOL    HW229427   2.770   5.111   3.812 -0.7466  0.0214  1.6175
 8194SOL     OW29428   1.903   2.662   3.986  0.1565 -0.4592  0.1139
 8194SOL    HW129429   1.911   2.675   4.080 -1.2273 -1.6543  0.4102
 8194SOL    HW229430   1.816   2.695   3.964  1.0909  1.3469 -1.0466
 8195SOL     OW29431   2.949   6.420   2.104  0.3293 -0.4558 -0.4028
 8195SOL    HW129432   2.855   6.403   2.096  0.0441  0.2061  1.3234
 8195SOL    HW229433   2.985   6.397   2.018 -1.4512 -0.4338 -1.1785
 8196SOL     OW29434   3.675   3.741   2.863 -0.0729  0.1930 -0.1264
 8196SOL    HW129435   3.704   3.695   2.785 -1.1545 -0.2318 -0.2876
 8196SOL    HW229436   3.580   3.746   2.854 -0.1611  0.5674  0.9271
 8197SOL     OW29437   3.901   3.573   1.204 -0.3090  0.3699  0.2829
 8197SOL    HW129438   3.871   3.636   1.139 -0.1109 -2.0188 -2.1717
 8197SOL    HW229439   3.832   3.508   1.209  0.5415 -0.4990  1.0548
 8198SOL     OW29440   4.121   3.408   1.340  0.4932 -0.0493  0.7832
 8198SOL    HW129441   4.173   3.488   1.333 -0.6078  0.8399  2.2981
 8198SOL    HW229442   4.048   3.421   1.279  1.1256 -0.5661 -0.0924
 8199SOL     OW29443   1.321   4.556   4.373 -0.7381  0.9444  0.2162
 8199SOL    HW129444   1.382   4.515   4.435 -0.0011  0.5465 -0.7514
 8199SOL    HW229445   1.237   4.557   4.419 -0.9659 -2.3388 -0.0019
 8200SOL     OW29446   1.831   5.139   2.603  0.4252  0.3143  0.0405
 8200SOL    HW129447   1.914   5.107   2.638 -0.5845  1.5243  3.6966
 8200SOL    HW229448   1.767   5.072   2.627 -0.2419  0.9970  0.1899
 8201SOL     OW29449   1.181   3.617   1.016  0.0124 -0.1196 -0.3050
 8201SOL    HW129450   1.251   3.680   1.035 -0.5635 -0.4560  3.1227
 8201SOL    HW229451   1.220   3.531   1.034 -0.6074 -0.4640 -0.5710
 8202SOL     OW29452   1.265   6.202   1.822 -0.5691 -0.2345 -0.2979
 8202SOL    HW129453   1.219   6.126   1.857 -1.1492 -1.1559 -2.8752
 8202SOL    HW229454   1.351   6.200   1.864 -0.8158 -1.9314  0.1718
 8203SOL     OW29455   1.334   4.124   1.683 -0.4700 -0.6755 -0.5008
 8203SOL    HW129456   1.285   4.196   1.723 -0.0203 -0.8712  0.4206
 8203SOL    HW229457   1.299   4.045   1.725  0.5700 -0.8227  0.1104
 8204SOL     OW29458   4.260   4.021   2.897 -0.1771  0.4956  0.1534
 8204SOL    HW129459   4.182   3.983   2.937 -1.4886  1.3013 -1.5419
 8204SOL    HW229460   4.310   3.945   2.867  0.0035 -0.0486  1.8080
 8205SOL     OW29461   2.736   6.505   1.814 -0.0788 -0.8394  0.1772
 8205SOL    HW129462   2.715   6.468   1.900  1.0530  1.3818  1.4288
 8205SOL    HW229463   2.817   6.461   1.788 -1.0644 -2.3975 -0.3289
 8206SOL     OW29464   9.880   4.777   3.792  0.0512  0.5180 -0.6298
 8206SOL    HW129465   9.924   4.707   3.840  0.4408 -1.3259 -3.5345
 8206SOL    HW229466   9.936   4.793   3.717 -2.0358  1.1791 -2.0851
 8207SOL     OW29467   2.649   1.991   4.025 -0.2816  0.1409  0.3025
 8207SOL    HW129468   2.671   2.017   4.114 -1.1097 -2.3695  1.2705
 8207SOL    HW229469   2.656   1.896   4.025 -3.8043 -0.2150 -1.2875
 8208SOL     OW29470   1.537   3.595   1.129  0.1889  0.8328 -0.7465
 8208SOL    HW129471   1.479   3.665   1.101 -2.1553 -0.4484  0.7696
 8208SOL    HW229472   1.566   3.553   1.047  0.7670  2.8460 -1.6011
 8209SOL     OW29473   2.153   4.066   2.509 -0.5122  1.0113  0.6449
 8209SOL    HW129474   2.198   4.131   2.455 -0.1942  1.7042  1.7277
 8209SOL    HW229475   2.138   3.993   2.450  1.0992  1.1895 -0.0251
 8210SOL     OW29476   2.542   3.139   1.005  0.0922  0.0226  0.2176
 8210SOL    HW129477   2.596   3.202   0.958  0.2157  0.3213  0.7558
 8210SOL    HW229478   2.511   3.079   0.938  1.9256 -0.7639  0.0317
 8211SOL     OW29479   2.122   5.605   1.919  0.0937 -0.2524  0.0499
 8211SOL    HW129480   2.159   5.672   1.862  0.9491 -1.4533 -0.8346
 8211SOL    HW229481   2.062   5.652   1.976  1.1571  1.3456 -0.1425
 8212SOL     OW29482   1.092   3.459   4.340 -0.1577 -0.0969 -0.0478
 8212SOL    HW129483   1.045   3.534   4.377  0.7812  0.3997  0.1405
 8212SOL    HW229484   1.031   3.422   4.276 -1.7342 -0.8277  1.8015
 8213SOL     OW29485   2.978   6.045   3.213  0.8629  0.3238  0.2512
 8213SOL    HW129486   2.891   6.031   3.252  0.7705 -0.0785 -0.0908
 8213SOL    HW229487   2.965   6.116   3.151  0.3022 -1.1347 -1.3200
 8214SOL     OW29488   2.268   4.433   1.635  0.0535  0.1296 -0.3149
 8214SOL    HW129489   2.260   4.438   1.539  0.8897  0.7983 -0.3542
 8214SOL    HW229490   2.180   4.408   1.664  0.1247 -1.3852 -1.3375
 8215SOL     OW29491   4.768   4.013   2.685 -0.1263  0.5101 -0.0522
 8215SOL    HW129492   4.782   4.082   2.750 -1.1123  0.4387  0.2595
 8215SOL    HW229493   4.838   4.024   2.621  1.0795  0.3361  1.2372
 8216SOL     OW29494   2.142   5.748   4.726  0.4518 -0.4586  0.0484
 8216SOL    HW129495   2.221   5.732   4.777  2.2134  1.6079 -1.9065
 8216SOL    HW229496   2.145   5.683   4.655  1.2272  0.5674 -0.8850
 8217SOL     OW29497   4.027   5.969   0.282  0.3594  0.3134 -0.0520
 8217SOL    HW129498   4.011   5.899   0.345  2.6730 -0.8056 -0.6375
 8217SOL    HW229499   4.123   5.977   0.279  0.1766  2.4185 -1.1786
 8218SOL     OW29500   2.906   5.102   1.395  0.5989 -0.1548 -0.3060
 8218SOL    HW129501   2.936   5.186   1.429 -0.0043  0.2825 -0.8347
 8218SOL    HW229502   2.830   5.079   1.449  1.5070 -0.9776  0.6511
 8219SOL     OW29503   2.628   6.011   1.986 -0.5883  0.0256  0.4619
 8219SOL    HW129504   2.625   5.926   1.943 -0.4363  0.8591 -1.2289
 8219SOL    HW229505   2.600   5.993   2.076  0.4402 -1.9690  0.4133
 8220SOL     OW29506   4.568   4.528   1.753  0.4563 -0.3689  0.1177
 8220SOL    HW129507   4.573   4.433   1.738 -0.6242 -0.4293  0.1076
 8220SOL    HW229508   4.498   4.557   1.695  0.5349  0.3852  0.4054
 8221SOL     OW29509   3.496   3.098   2.893  0.0843  0.4025  0.2947
 8221SOL    HW129510   3.480   3.152   2.816 -3.4305 -0.8950  0.0599
 8221SOL    HW229511   3.534   3.017   2.858 -1.1389 -0.0296 -0.0385
 8222SOL     OW29512   2.167   4.831   3.026  0.1612  0.2630  0.0362
 8222SOL    HW129513   2.227   4.860   2.958  0.7104  0.5746  0.6471
 8222SOL    HW229514   2.105   4.904   3.035  1.0079  0.8929  0.9423
 8223SOL     OW29515   2.069   5.147   1.506  0.0181  0.0653 -0.4035
 8223SOL    HW129516   1.984   5.187   1.486 -0.6113 -1.4609 -0.8430
 8223SOL    HW229517   2.057   5.055   1.486  0.9322 -0.6520  2.2275
 8224SOL     OW29518   4.379   8.517   3.790  0.3064 -0.1203 -0.7444
 8224SOL    HW129519   4.312   8.578   3.821  0.3010 -0.0901 -0.8157
 8224SOL    HW229520   4.449   8.524   3.855 -0.4997 -1.4514  0.2883
 8225SOL     OW29521   3.115   4.724   2.382  0.1368  0.4876 -0.2283
 8225SOL    HW129522   3.066   4.690   2.457  0.3400  0.2175 -0.2158
 8225SOL    HW229523   3.202   4.687   2.392 -0.0290 -0.1226 -0.9750
 8226SOL     OW29524   3.617   5.405   0.352 -0.0082  0.1640  0.0513
 8226SOL    HW129525   3.522   5.409   0.357  0.0764  1.1573  1.0044
 8226SOL    HW229526   3.635   5.337   0.287 -1.3613 -0.0802 -0.0746
 8227SOL     OW29527   1.943   4.916   1.401 -0.2934 -0.8690  0.7350
 8227SOL    HW129528   1.879   4.869   1.348  0.0135 -0.6756  0.2002
 8227SOL    HW229529   1.901   4.925   1.487 -1.4331  0.2483  0.0642
 8228SOL     OW29530   1.105   4.931   2.828  0.3414  0.4437  0.3992
 8228SOL    HW129531   1.143   5.014   2.859 -1.1707  1.8420 -1.3636
 8228SOL    HW229532   1.068   4.891   2.906 -0.0824  2.0945  1.0735
 8229SOL     OW29533   4.072   4.268   2.175 -0.3245  0.6243  0.3960
 8229SOL    HW129534   4.105   4.279   2.264 -1.7425 -0.8314  1.1257
 8229SOL    HW229535   4.146   4.292   2.119  0.5828  1.5530  1.9517
 8230SOL     OW29536   1.950   3.446   2.617 -0.3766 -0.2016  0.3026
 8230SOL    HW129537   1.863   3.408   2.604 -0.2143 -0.4677 -0.0313
 8230SOL    HW229538   1.942   3.499   2.696 -0.3171 -1.8050  1.4046
 8231SOL     OW29539   3.986   4.537   2.301  0.4430  0.0257  0.5659
 8231SOL    HW129540   3.896   4.505   2.309  0.4634 -0.8220 -1.9781
 8231SOL    HW229541   4.035   4.487   2.367 -0.9923  0.7389  2.2025
 8232SOL     OW29542   1.351   5.969   2.836 -0.1160  0.0391  0.2545
 8232SOL    HW129543   1.297   6.009   2.904 -2.1941 -0.5159 -1.0183
 8232SOL    HW229544   1.334   5.875   2.843  0.3525 -0.1045 -0.4555
 8233SOL     OW29545   2.881   6.077   1.302 -0.7887  0.4241 -0.0868
 8233SOL    HW129546   2.805   6.020   1.317 -0.2497 -0.0225  1.0424
 8233SOL    HW229547   2.956   6.025   1.333 -0.3719  2.0624  1.7742
 8234SOL     OW29548   2.126   3.794   1.723 -0.0943  0.1840 -0.1601
 8234SOL    HW129549   2.080   3.874   1.698 -0.5728 -0.0686 -0.0956
 8234SOL    HW229550   2.067   3.751   1.785  0.2993 -0.0658  0.0468
 8235SOL     OW29551   2.411   4.265   3.369  0.2190 -0.3042  0.0781
 8235SOL    HW129552   2.333   4.224   3.333  0.8767 -1.3873 -0.1786
 8235SOL    HW229553   2.379   4.325   3.437 -0.9086  0.4044 -1.0769
 8236SOL     OW29554   3.093   5.401   3.191  0.4925  0.2365 -0.1129
 8236SOL    HW129555   3.010   5.354   3.201 -0.4423  1.4866 -1.7153
 8236SOL    HW229556   3.126   5.375   3.105  0.6631  1.3937 -0.4085
 8237SOL     OW29557   2.469   4.307   4.151  0.4539  0.0702  0.0304
 8237SOL    HW129558   2.387   4.341   4.114  1.8022  2.2928 -1.0165
 8237SOL    HW229559   2.484   4.225   4.105 -1.6784 -0.8583  0.9339
 8238SOL     OW29560   1.617   3.264   2.250  0.2107 -0.2149 -0.6750
 8238SOL    HW129561   1.562   3.204   2.301 -0.6015  0.6047 -0.5681
 8238SOL    HW229562   1.687   3.209   2.216  1.2926 -0.6166  2.0762
 8239SOL     OW29563   2.533   3.875   2.540 -0.6240  0.7817 -0.7234
 8239SOL    HW129564   2.464   3.872   2.607  1.5925  1.5668  1.6463
 8239SOL    HW229565   2.551   3.968   2.528  0.9318  0.5345 -0.3738
 8240SOL     OW29566   2.612   2.330   3.551  0.8055  0.1134 -0.2739
 8240SOL    HW129567   2.582   2.308   3.463  1.1959 -0.4063 -0.2775
 8240SOL    HW229568   2.543   2.298   3.609  0.7297  0.1050 -0.3694
 8241SOL     OW29569   0.903   4.907   2.131  0.0266 -0.6935  0.0113
 8241SOL    HW129570   0.990   4.926   2.167 -0.1539  0.6312 -0.2245
 8241SOL    HW229571   0.872   4.833   2.182  0.9710 -0.6704  0.6400
 8242SOL     OW29572   2.603   3.181   1.617 -0.0043  0.6749 -0.3556
 8242SOL    HW129573   2.519   3.160   1.657 -0.4826  1.3857 -0.9685
 8242SOL    HW229574   2.631   3.100   1.576  0.4748 -0.0483  1.3849
 8243SOL     OW29575   1.292   4.379   5.159 -0.6572  0.0429 -0.5271
 8243SOL    HW129576   1.296   4.333   5.243  2.0134  0.1648 -0.5665
 8243SOL    HW229577   1.281   4.471   5.183 -2.0345 -0.1448 -0.3795
 8244SOL     OW29578   1.491   3.229   4.434 -0.7996  0.0409  0.0618
 8244SOL    HW129579   1.539   3.150   4.458 -2.0891 -0.5486  0.7704
 8244SOL    HW229580   1.556   3.299   4.439  0.0010 -0.7459  0.9324
 8245SOL     OW29581   1.590   5.304   5.601  0.4639  0.0826  0.2054
 8245SOL    HW129582   1.501   5.336   5.616  0.7259  0.2393  1.4711
 8245SOL    HW229583   1.646   5.379   5.619  0.9255 -0.3368  0.5227
 8246SOL     OW29584   3.564   5.078   3.416 -0.5543 -0.3876 -0.0649
 8246SOL    HW129585   3.543   5.058   3.507  0.1254 -0.9263 -0.0195
 8246SOL    HW229586   3.557   4.994   3.371  0.7686 -0.4461 -0.1842
 8247SOL     OW29587   2.587   4.684   3.530 -0.0617 -0.3838  0.3361
 8247SOL    HW129588   2.672   4.645   3.549  1.0811  2.4707  1.2269
 8247SOL    HW229589   2.584   4.764   3.582 -1.8272  1.4263 -2.4195
 8248SOL     OW29590   1.722   4.447   3.633  0.0654 -0.1103  0.5267
 8248SOL    HW129591   1.678   4.482   3.556  0.6664 -1.2094 -0.3175
 8248SOL    HW229592   1.770   4.522   3.668  0.9868  0.0356 -1.0121
 8249SOL     OW29593   1.886   4.776   6.231  0.2100  0.1479 -0.0723
 8249SOL    HW129594   1.810   4.755   6.285 -0.3343  0.0605 -0.8593
 8249SOL    HW229595   1.849   4.799   6.146  0.9811  1.3752 -0.0897
 8250SOL     OW29596   1.155   4.064   4.456 -0.2541 -0.3365  0.2007
 8250SOL    HW129597   1.140   4.158   4.446 -0.4324 -0.3704  0.1426
 8250SOL    HW229598   1.074   4.023   4.424 -0.6345 -0.4669  1.3053
 8251SOL     OW29599   1.813   5.063   5.319  0.3116  0.1020  0.0016
 8251SOL    HW129600   1.769   4.998   5.265 -1.1997  1.8194 -0.9028
 8251SOL    HW229601   1.905   5.037   5.318 -0.0118 -1.0212 -1.7545
 8252SOL     OW29602   1.758   4.463   4.996  0.1712  0.1833  0.3663
 8252SOL    HW129603   1.676   4.414   4.997  0.5824 -0.6485 -2.3702
 8252SOL    HW229604   1.731   4.555   5.003 -0.8698 -0.1912  1.2917
 8253SOL     OW29605   3.230   3.881   3.243 -1.0206 -0.3039 -0.4418
 8253SOL    HW129606   3.299   3.830   3.284 -0.3487  0.6636 -0.3519
 8253SOL    HW229607   3.239   3.969   3.281 -1.1332  0.2996 -1.7766
 8254SOL     OW29608   3.557   1.833   4.314 -0.0257  0.3475  0.0243
 8254SOL    HW129609   3.522   1.799   4.232  0.5984 -0.6622  0.1635
 8254SOL    HW229610   3.490   1.893   4.346 -0.5594  0.2507 -0.8975
 8255SOL     OW29611   1.537   3.473   4.709 -0.0846 -0.4308  0.0855
 8255SOL    HW129612   1.575   3.461   4.622  0.5478 -0.6406  0.3845
 8255SOL    HW229613   1.486   3.553   4.702 -1.0203 -1.0953 -0.8122
 8256SOL     OW29614   1.900   5.698   4.875 -0.1857  0.6003 -0.2783
 8256SOL    HW129615   1.908   5.614   4.919 -1.2482  0.3231 -0.5929
 8256SOL    HW229616   1.981   5.708   4.825 -0.4454 -0.6371 -0.9431
 8257SOL     OW29617   2.327   3.404   3.294 -0.3961 -0.0088 -0.3522
 8257SOL    HW129618   2.274   3.378   3.219 -1.3234  0.2804  0.2036
 8257SOL    HW229619   2.399   3.454   3.257  0.6544 -2.1638 -1.3177
 8258SOL     OW29620   1.979   5.049   6.638 -0.0020  0.4024  0.6870
 8258SOL    HW129621   1.907   5.112   6.631  0.0696  0.2923 -1.3332
 8258SOL    HW229622   1.992   5.018   6.549  1.4038 -0.8782  1.3230
 8259SOL     OW29623   2.034   4.294   3.617 -0.6629  0.8644 -0.5503
 8259SOL    HW129624   1.983   4.350   3.676  0.1743  0.7645  0.2804
 8259SOL    HW229625   1.975   4.278   3.543 -1.3273  1.9126 -0.2724
 8260SOL     OW29626   2.599   4.418   2.861 -1.0351  0.2526  0.0143
 8260SOL    HW129627   2.566   4.340   2.906 -0.8298  0.0266 -0.2273
 8260SOL    HW229628   2.649   4.465   2.927 -0.2729 -0.3579 -0.1191
 8261SOL     OW29629   0.552   4.962   4.705  0.2593 -0.4629  0.4506
 8261SOL    HW129630   0.549   4.950   4.800  0.6346  0.9150  0.6475
 8261SOL    HW229631   0.576   4.876   4.670 -0.9430 -1.2526  1.5281
 8262SOL     OW29632   5.773   5.762   2.931  0.2255  0.3277 -0.4937
 8262SOL    HW129633   5.699   5.701   2.932  0.8753 -0.4472  0.7369
 8262SOL    HW229634   5.848   5.710   2.958  0.9422  1.4929 -0.1916
 8263SOL     OW29635   1.552   3.845   3.815  0.0963 -0.1928 -0.6376
 8263SOL    HW129636   1.463   3.863   3.786  0.3945  1.6132 -0.5213
 8263SOL    HW229637   1.557   3.750   3.821 -1.9702 -0.3008 -0.1859
 8264SOL     OW29638   3.875   3.984   3.236  0.3085 -0.5501  0.7685
 8264SOL    HW129639   3.951   3.967   3.182  2.2373  0.5781  3.0258
 8264SOL    HW229640   3.879   3.918   3.306 -1.8379 -1.6543 -0.0838
 8265SOL     OW29641   1.552   3.290   4.903 -0.2023 -0.1344 -0.5838
 8265SOL    HW129642   1.544   3.362   4.842  0.0090  0.7206  0.3836
 8265SOL    HW229643   1.462   3.264   4.923 -0.2717 -0.3342 -1.1527
 8266SOL     OW29644   2.459   5.587   7.187  0.4391  0.8569  0.3358
 8266SOL    HW129645   2.426   5.536   7.113  1.9015  1.2762 -0.6288
 8266SOL    HW229646   2.432   5.537   7.264  1.2060 -1.0006 -0.5605
 8267SOL     OW29647   2.526   4.887   3.723 -0.2657  0.0732  0.3755
 8267SOL    HW129648   2.592   4.938   3.770  0.3127 -0.1467 -0.1890
 8267SOL    HW229649   2.443   4.915   3.761  0.1402  0.4413  1.0136
 8268SOL     OW29650   1.894   3.050   5.334  0.5392  0.0382  0.7464
 8268SOL    HW129651   1.880   2.956   5.340 -1.4809  0.3108  0.8319
 8268SOL    HW229652   1.944   3.072   5.413  0.8491 -0.9352  0.8207
 8269SOL     OW29653   3.013   4.446   5.063  0.0827  0.2946  0.4306
 8269SOL    HW129654   3.076   4.378   5.037  0.9181  1.1895  0.0958
 8269SOL    HW229655   2.929   4.413   5.033  0.5751 -0.2988 -0.3200
 8270SOL     OW29656   4.046   7.773   4.468  0.0030  0.5812 -0.3158
 8270SOL    HW129657   4.071   7.756   4.559  0.0869 -0.5563 -0.5418
 8270SOL    HW229658   4.103   7.845   4.441  0.0096  0.8974  0.5166
 8271SOL     OW29659   1.997   4.341   5.567  0.4953 -0.2551 -0.1550
 8271SOL    HW129660   1.950   4.319   5.487 -0.8270  3.1153 -0.3969
 8271SOL    HW229661   2.076   4.387   5.537  1.4002 -1.3891  0.4239
 8272SOL     OW29662   2.912   6.091   4.417  0.3621  0.0377 -0.0850
 8272SOL    HW129663   3.001   6.118   4.396 -0.0182  1.9217  0.6079
 8272SOL    HW229664   2.862   6.108   4.337 -0.2898  3.4578  0.9787
 8273SOL     OW29665   2.922   6.231   3.018  0.0029 -0.2692  0.1695
 8273SOL    HW129666   2.826   6.227   3.012  0.0656 -0.7124 -0.5801
 8273SOL    HW229667   2.945   6.311   2.970 -0.0791  0.5010  1.4046
 8274SOL     OW29668   3.611   3.289   3.435  0.4247 -0.4639  0.0706
 8274SOL    HW129669   3.627   3.292   3.340  1.0154  0.2593  0.1816
 8274SOL    HW229670   3.671   3.355   3.471  0.1051 -0.6378  0.9344
 8275SOL     OW29671   2.614   4.440   4.410 -0.3061 -0.1995 -0.7740
 8275SOL    HW129672   2.704   4.420   4.384 -0.1494  0.2886 -0.6073
 8275SOL    HW229673   2.560   4.389   4.350  0.0997 -2.5919  0.8032
 8276SOL     OW29674   2.866   5.732   3.094 -0.9758  0.5533  0.2430
 8276SOL    HW129675   2.830   5.819   3.077 -2.0631  0.1021  0.2320
 8276SOL    HW229676   2.937   5.723   3.030 -1.1487  1.2422 -0.0510
 8277SOL     OW29677   4.165   3.444   2.483  0.3371  0.6833 -0.7398
 8277SOL    HW129678   4.155   3.454   2.388 -0.4512  1.5943 -0.5628
 8277SOL    HW229679   4.223   3.515   2.509 -1.2625  1.8220 -0.2169
 8278SOL     OW29680   2.484   3.123   5.160  0.1707  0.3031  0.0896
 8278SOL    HW129681   2.422   3.170   5.104  0.8138  1.2063  0.1275
 8278SOL    HW229682   2.518   3.053   5.105  1.0810  1.4110 -0.7783
 8279SOL     OW29683   2.862   4.356   5.805  0.3647  0.8865  0.3980
 8279SOL    HW129684   2.867   4.263   5.826 -0.4908  0.4259 -1.2975
 8279SOL    HW229685   2.875   4.401   5.888  1.7785 -0.7290  1.0762
 8280SOL     OW29686   1.641   3.977   4.303 -0.0462  0.3940 -0.4500
 8280SOL    HW129687   1.564   3.967   4.359  0.7082 -2.6677  0.1391
 8280SOL    HW229688   1.607   3.970   4.214 -0.4886 -1.0513 -0.1924
 8281SOL     OW29689   2.369   4.045   3.681 -0.1494  0.8466 -0.2337
 8281SOL    HW129690   2.306   4.101   3.725 -1.2189  0.5010 -1.3005
 8281SOL    HW229691   2.408   3.992   3.751 -0.9604  1.1367  0.4399
 8282SOL     OW29692   1.982   4.911   4.277  0.3066 -0.1209  0.2772
 8282SOL    HW129693   1.912   4.869   4.326  0.9566 -0.8511  0.5927
 8282SOL    HW229694   1.988   4.999   4.314  0.2143 -0.3797  0.9063
 8283SOL     OW29695   1.780   3.240   4.756  0.1635  0.0227 -0.1240
 8283SOL    HW129696   1.722   3.268   4.826 -0.4102 -0.4858 -0.3886
 8283SOL    HW229697   1.813   3.155   4.785  2.8539  1.4635  1.2472
 8284SOL     OW29698   2.589   2.658   5.036  0.5097 -0.3797 -0.0266
 8284SOL    HW129699   2.624   2.589   4.980  0.2374  2.1162 -3.4370
 8284SOL    HW229700   2.494   2.651   5.024  0.4737  0.4368 -0.2336
 8285SOL     OW29701   2.644   4.197   4.721 -0.6244 -0.1317 -0.3315
 8285SOL    HW129702   2.637   4.219   4.628  1.3930 -2.3331 -1.0559
 8285SOL    HW229703   2.702   4.121   4.724 -2.4348 -1.5171  2.5497
 8286SOL     OW29704   1.560   4.455   4.487 -0.1326 -0.3356 -0.6549
 8286SOL    HW129705   1.580   4.388   4.422  0.3743  0.9684 -1.8671
 8286SOL    HW229706   1.617   4.434   4.561  0.2543 -1.0535 -1.1476
 8287SOL     OW29707   1.996   2.033   6.336 -0.5099  0.5130 -0.2697
 8287SOL    HW129708   1.989   1.985   6.419  0.0729  2.6841  1.0924
 8287SOL    HW229709   2.058   2.104   6.355 -0.4734  1.1203 -2.5437
 8288SOL     OW29710   3.511   4.190   4.575 -0.3598 -0.2233 -0.6132
 8288SOL    HW129711   3.552   4.275   4.557 -0.8016 -0.1632 -1.3320
 8288SOL    HW229712   3.511   4.145   4.491 -0.4616 -0.8000 -0.3103
 8289SOL     OW29713   1.048   5.324   4.514 -0.5606  0.3869 -0.2753
 8289SOL    HW129714   1.115   5.385   4.485 -0.4663  0.1033 -0.6549
 8289SOL    HW229715   0.968   5.377   4.521 -0.1088  0.9089  1.0120
 8290SOL     OW29716   4.086   3.202   3.191 -0.0947  0.0216 -0.7223
 8290SOL    HW129717   4.134   3.120   3.179 -1.5420 -0.9201 -0.2290
 8290SOL    HW229718   3.993   3.176   3.191 -0.5289  1.4520  0.9139
 8291SOL     OW29719   2.403   4.131   5.669  0.4789 -0.0532  0.0603
 8291SOL    HW129720   2.415   4.036   5.677 -0.5780 -0.2807 -0.9197
 8291SOL    HW229721   2.360   4.142   5.585  1.7336  1.4137 -0.3974
 8292SOL     OW29722   1.642   3.582   5.369  0.4136 -0.6598 -0.0780
 8292SOL    HW129723   1.671   3.540   5.450 -0.5500  0.9105  1.1092
 8292SOL    HW229724   1.579   3.521   5.331  0.7467 -1.3266  0.4290
 8293SOL     OW29725   4.338   1.696   4.556  0.0121  0.0905 -0.4628
 8293SOL    HW129726   4.298   1.774   4.594  0.5995 -0.8575  2.2165
 8293SOL    HW229727   4.430   1.720   4.544  0.3650 -0.3915  1.0909
 8294SOL     OW29728   2.442   5.793   6.293  0.2152  0.1064 -0.0408
 8294SOL    HW129729   2.411   5.782   6.203  3.8541  2.7064 -1.7483
 8294SOL    HW229730   2.372   5.841   6.337 -2.1084 -2.2120 -1.1388
 8295SOL     OW29731   2.178   4.539   4.446  0.1259 -0.2171 -0.0329
 8295SOL    HW129732   2.133   4.511   4.366 -1.2761  0.9047  0.3398
 8295SOL    HW229733   2.186   4.634   4.437  0.8085 -0.1965  0.7341
 8296SOL     OW29734   2.742   4.831   4.934  0.0879 -0.1432  0.2409
 8296SOL    HW129735   2.809   4.777   4.977 -0.5540 -0.0917  1.2996
 8296SOL    HW229736   2.659   4.794   4.964 -0.3775 -0.6009 -1.5627
 8297SOL     OW29737   4.592   2.912   4.029 -0.4744 -1.0878  0.0174
 8297SOL    HW129738   4.553   2.831   4.063 -0.8184 -0.6556  0.6693
 8297SOL    HW229739   4.519   2.958   3.989 -0.7590 -0.0451  1.6785
 8298SOL     OW29740   2.590   5.035   4.334 -0.5357 -0.4574 -0.3585
 8298SOL    HW129741   2.543   5.020   4.252  3.4316  0.9485 -3.0031
 8298SOL    HW229742   2.655   4.965   4.337 -0.3758 -0.2453  1.4021
 8299SOL     OW29743   3.732   2.452   2.682  0.0678  0.2420  0.6716
 8299SOL    HW129744   3.805   2.434   2.623 -0.7991  1.8649 -0.9325
 8299SOL    HW229745   3.768   2.439   2.770  2.0137  0.1041 -0.1401
 8300SOL     OW29746   2.580   5.863   5.462  0.3680 -0.3311 -0.0505
 8300SOL    HW129747   2.624   5.786   5.426  1.0646  0.3554 -0.6723
 8300SOL    HW229748   2.639   5.896   5.529  0.1129 -0.2892  0.1533
 8301SOL     OW29749   2.099   5.410   5.527  0.0960  0.1020 -0.1505
 8301SOL    HW129750   2.186   5.369   5.528 -0.8752 -2.0243  0.6588
 8301SOL    HW229751   2.059   5.381   5.445 -1.4969 -2.6671  1.5011
 8302SOL     OW29752   1.039   4.037   4.768  0.1611 -0.9654  0.4350
 8302SOL    HW129753   1.005   4.123   4.744 -1.8690 -1.9283 -0.1705
 8302SOL    HW229754   1.048   4.041   4.863  0.8909  0.1960  0.3295
 8303SOL     OW29755   3.125   2.634   4.792 -0.6599  0.1085 -0.0942
 8303SOL    HW129756   3.129   2.722   4.830  0.1648  0.4196 -0.8973
 8303SOL    HW229757   3.088   2.647   4.705 -0.1664 -0.2980 -0.3625
 8304SOL     OW29758   3.930   3.216   2.903 -0.2669 -0.0832  0.5926
 8304SOL    HW129759   3.919   3.231   2.810  0.6864  1.4739  0.7241
 8304SOL    HW229760   3.901   3.125   2.916  1.1745 -0.8764 -1.4789
 8305SOL     OW29761   1.902   6.188   4.256 -0.2201  0.2689 -0.0896
 8305SOL    HW129762   1.887   6.241   4.334  0.4443  0.9679 -0.4331
 8305SOL    HW229763   1.893   6.249   4.183  1.5373  0.1409 -0.4391
 8306SOL     OW29764   3.648   3.323   3.973 -0.3418  0.0860  0.0707
 8306SOL    HW129765   3.684   3.394   3.920 -2.4544  0.1031 -1.4031
 8306SOL    HW229766   3.568   3.359   4.011 -0.1904 -0.7580  1.2250
 8307SOL     OW29767   2.831   5.319   3.253  0.3645  0.2005 -0.3546
 8307SOL    HW129768   2.782   5.251   3.205 -0.6582  0.6553  0.0358
 8307SOL    HW229769   2.772   5.345   3.324  0.7984  1.4313 -0.4457
 8308SOL     OW29770   1.386   1.805   3.465 -0.7726 -0.3959 -0.8568
 8308SOL    HW129771   1.313   1.742   3.465 -1.1071 -0.0237  0.0195
 8308SOL    HW229772   1.382   1.847   3.380 -0.6525 -1.4440 -1.3918
 8309SOL     OW29773   1.988   3.167   3.953 -0.3976  0.1717  0.6253
 8309SOL    HW129774   2.066   3.202   3.911  0.4978 -1.5548  0.7908
 8309SOL    HW229775   2.020   3.098   4.011 -1.8684  0.7059  2.1270
 8310SOL     OW29776   3.844   3.385   2.309 -0.2025 -0.6278 -0.3951
 8310SOL    HW129777   3.881   3.321   2.370  1.1995  0.4324 -0.1164
 8310SOL    HW229778   3.863   3.349   2.223 -1.0964 -1.5079 -0.2517
 8311SOL     OW29779   2.458   3.387   2.691  0.6502  0.4102  0.3840
 8311SOL    HW129780   2.426   3.319   2.750 -0.0149  0.4135  0.0292
 8311SOL    HW229781   2.388   3.453   2.691 -0.4512 -0.7075 -2.3028
 8312SOL     OW29782   2.009   3.977   4.378  0.8182  0.4241 -0.0793
 8312SOL    HW129783   1.952   3.930   4.439  1.1745 -1.0474 -0.8582
 8312SOL    HW229784   2.096   3.971   4.416  1.2548 -1.5825 -1.3207
 8313SOL     OW29785   2.098   3.857   5.411 -0.1960  0.1480 -0.1795
 8313SOL    HW129786   2.065   3.798   5.344  1.3482 -1.0470  0.0948
 8313SOL    HW229787   2.041   3.842   5.486  0.2632 -1.0997 -0.0712
 8314SOL     OW29788   2.538   4.395   4.907 -0.5752 -0.0234 -0.3409
 8314SOL    HW129789   2.580   4.335   4.846 -0.6590 -0.5475  0.1143
 8314SOL    HW229790   2.451   4.411   4.870 -0.3118  0.3419 -0.8048
 8315SOL     OW29791   1.981   4.292   4.950  0.4604 -0.0655 -0.0627
 8315SOL    HW129792   1.951   4.208   4.918 -1.2470  0.4072  0.2556
 8315SOL    HW229793   1.902   4.344   4.961  1.4963  1.6193 -0.3400
 8316SOL     OW29794   3.223   3.974   4.941 -0.9287  0.1596 -0.6171
 8316SOL    HW129795   3.137   3.980   4.984 -0.4238  1.6129  0.2235
 8316SOL    HW229796   3.265   3.898   4.980 -1.5223 -0.0873 -0.4558
 8317SOL     OW29797   0.735   4.639   1.695 -0.0468  0.7596 -0.3719
 8317SOL    HW129798   0.793   4.675   1.762 -0.4559  0.3857  0.1900
 8317SOL    HW229799   0.724   4.710   1.632  2.5498  0.2248 -1.4910
 8318SOL     OW29800   2.526   4.153   4.473  0.0633  0.3925  0.4651
 8318SOL    HW129801   2.456   4.158   4.408  0.7526  0.6042 -0.2703
 8318SOL    HW229802   2.480   4.143   4.557 -0.8475  0.7727  0.0197
 8319SOL     OW29803   2.743   3.791   5.177 -0.2832  0.3936  0.2085
 8319SOL    HW129804   2.648   3.787   5.164 -0.1915  1.2623 -0.8284
 8319SOL    HW229805   2.779   3.744   5.101  0.1491  1.4691 -0.2625
 8320SOL     OW29806   2.614   2.215   2.628  0.0919  0.6326 -0.1018
 8320SOL    HW129807   2.596   2.123   2.609  2.6286 -0.1173  0.8938
 8320SOL    HW229808   2.552   2.263   2.574 -1.8969 -1.6663  0.0396
 8321SOL     OW29809   1.631   4.341   2.408  0.6310  0.0570 -0.0101
 8321SOL    HW129810   1.723   4.349   2.432  1.1044 -0.4846 -1.5713
 8321SOL    HW229811   1.587   4.309   2.487  1.9937 -0.9043  0.3620
 8322SOL     OW29812   2.275   3.778   4.082  0.1907 -0.1762  0.2919
 8322SOL    HW129813   2.214   3.810   4.149  0.2566 -1.6353  1.0724
 8322SOL    HW229814   2.220   3.754   4.008 -0.2188 -1.6182  1.0450
 8323SOL     OW29815   3.221   3.595   6.155 -0.3925  0.4967  0.0297
 8323SOL    HW129816   3.271   3.583   6.236 -0.5616  3.1053  0.5627
 8323SOL    HW229817   3.137   3.630   6.184 -1.0514 -0.0577 -1.1729
 8324SOL     OW29818   6.325   4.288   2.687 -0.0343  0.4280 -0.3175
 8324SOL    HW129819   6.412   4.269   2.650  0.4577  0.8620  0.5965
 8324SOL    HW229820   6.325   4.243   2.771 -0.5324  0.8038 -0.1175
 8325SOL     OW29821   4.281   3.543   3.637 -0.8466 -0.4765 -0.1137
 8325SOL    HW129822   4.213   3.476   3.641  0.8179 -2.2001 -0.2622
 8325SOL    HW229823   4.245   3.610   3.578 -2.5553 -1.1838  0.1056
 8326SOL     OW29824   1.665   3.362   1.968 -0.1624 -0.0093  0.4261
 8326SOL    HW129825   1.708   3.388   1.886  0.7195  0.7291  1.1064
 8326SOL    HW229826   1.667   3.267   1.967  0.8978  0.0062  0.1286
 8327SOL     OW29827   2.381   3.771   4.673 -0.0055 -0.2646  0.5722
 8327SOL    HW129828   2.373   3.688   4.719  0.4347 -0.3161  0.5602
 8327SOL    HW229829   2.348   3.836   4.734 -0.0653 -0.4126  0.6978
 8328SOL     OW29830   3.417   5.517   3.384 -0.4259  0.5724  0.0727
 8328SOL    HW129831   3.466   5.599   3.380 -1.0976  1.0133  0.6621
 8328SOL    HW229832   3.481   5.452   3.415 -0.0513  1.0071  0.2108
 8329SOL     OW29833   1.408   4.644   5.009  0.1557  0.1720 -0.1548
 8329SOL    HW129834   1.489   4.694   4.999 -0.6237  1.1277 -1.8504
 8329SOL    HW229835   1.406   4.619   5.101  1.8335  1.0806  0.1336
 8330SOL     OW29836   1.160   2.546   6.942  0.4490 -0.0117 -0.1741
 8330SOL    HW129837   1.202   2.463   6.920 -0.8075 -0.6807 -0.1014
 8330SOL    HW229838   1.089   2.521   7.002  0.3178  1.1567  0.1582
 8331SOL     OW29839   1.028   4.144   4.163  0.0540  0.1229 -0.0499
 8331SOL    HW129840   0.995   4.102   4.242 -0.3816 -0.5122 -0.5722
 8331SOL    HW229841   1.032   4.237   4.185 -1.8367  0.1823  0.0947
 8332SOL     OW29842   3.835   3.213   3.747 -0.6776 -0.5229 -0.5323
 8332SOL    HW129843   3.877   3.158   3.682 -0.6692 -1.2823  0.1012
 8332SOL    HW229844   3.855   3.170   3.831 -1.5230 -0.1180 -0.1188
 8333SOL     OW29845   2.227   4.103   2.776  0.2190  0.4741 -0.1182
 8333SOL    HW129846   2.319   4.077   2.784  0.2870  0.1622 -1.7201
 8333SOL    HW229847   2.219   4.133   2.686 -0.5510  3.3539  0.8474
 8334SOL     OW29848   2.738   3.648   4.344  0.0313 -0.0918 -0.3275
 8334SOL    HW129849   2.700   3.685   4.423  0.8286 -1.6868  0.8185
 8334SOL    HW229850   2.662   3.631   4.287 -0.5734  0.6953  0.2357
 8335SOL     OW29851   2.443   2.613   3.506  0.3650 -0.2841 -0.5264
 8335SOL    HW129852   2.446   2.674   3.432 -0.6851  1.7620  1.0758
 8335SOL    HW229853   2.523   2.632   3.555  0.7230 -1.1627 -0.7728
 8336SOL     OW29854   2.058   3.625   5.053 -0.2420 -0.0627  0.1435
 8336SOL    HW129855   1.978   3.672   5.032  0.0065 -0.2943 -1.3590
 8336SOL    HW229856   2.069   3.562   4.982 -0.1323 -1.8595  1.7033
 8337SOL     OW29857   2.511   4.743   4.360 -0.2013  0.3177 -0.6395
 8337SOL    HW129858   2.484   4.711   4.274 -3.5656 -1.1055  0.8334
 8337SOL    HW229859   2.554   4.667   4.400  0.4063  0.6389 -0.6923
 8338SOL     OW29860   1.479   4.816   3.955 -0.2915  0.0178  0.4377
 8338SOL    HW129861   1.431   4.759   4.016 -1.3796  1.5123  0.9908
 8338SOL    HW229862   1.496   4.760   3.879 -1.0185 -1.1609  1.1193
 8339SOL     OW29863   2.335   6.009   3.084  0.2346 -0.5887 -0.3667
 8339SOL    HW129864   2.248   6.027   3.050 -0.5317 -1.8854  0.8307
 8339SOL    HW229865   2.377   6.095   3.091 -2.1626  0.4349  2.2172
 8340SOL     OW29866   2.121   3.773   6.241  0.5990 -0.7216  0.0738
 8340SOL    HW129867   2.029   3.749   6.230  1.1365 -2.5667 -0.6547
 8340SOL    HW229868   2.123   3.868   6.231 -0.9728 -0.8632 -1.7677
 8341SOL     OW29869   2.160   6.674   4.989  0.3647  0.4337 -0.0166
 8341SOL    HW129870   2.148   6.744   5.053 -0.9699  2.3935 -2.2882
 8341SOL    HW229871   2.082   6.679   4.934  1.0855 -1.7339 -1.2855
 8342SOL     OW29872   1.779   2.354   5.187  0.1102  0.2982  0.6049
 8342SOL    HW129873   1.839   2.296   5.141  0.3345  1.5526 -0.7197
 8342SOL    HW229874   1.833   2.430   5.212 -0.5473  0.6916  0.8646
 8343SOL     OW29875   3.029   4.029   1.848 -0.2923  0.2023  0.1133
 8343SOL    HW129876   3.017   3.949   1.796  0.3801  0.7839 -0.9492
 8343SOL    HW229877   2.940   4.064   1.859 -0.4449  0.0547 -0.6235
 8344SOL     OW29878   2.488   5.974   4.764 -0.1170  0.5883 -0.1630
 8344SOL    HW129879   2.458   6.048   4.818  1.2759  1.1869 -0.2069
 8344SOL    HW229880   2.562   6.008   4.715  1.0902 -1.0869  0.4617
 8345SOL     OW29881   3.071   3.628   6.631 -0.1214 -0.0902  0.3766
 8345SOL    HW129882   2.998   3.671   6.587 -0.1214 -0.0368  0.4287
 8345SOL    HW229883   3.075   3.669   6.717  0.0580  0.0009  0.3236
 8346SOL     OW29884   3.296   2.693   6.229 -0.0978  0.1265  0.0939
 8346SOL    HW129885   3.309   2.600   6.212 -0.4564  0.6270 -3.1425
 8346SOL    HW229886   3.202   2.701   6.250 -0.4042 -0.0264 -1.2062
 8347SOL     OW29887   2.982   4.225   5.376  0.2103  0.4227  0.6155
 8347SOL    HW129888   3.024   4.311   5.372 -1.5572  1.2404 -1.1148
 8347SOL    HW229889   2.905   4.239   5.432 -2.0699  0.9003 -2.5335
 8348SOL     OW29890   1.871   3.425   4.568  0.4354  0.2113 -0.4229
 8348SOL    HW129891   1.817   3.389   4.639  0.8821 -2.1434 -1.2152
 8348SOL    HW229892   1.959   3.393   4.588  0.5389 -0.5843 -2.0858
 8349SOL     OW29893   1.307   4.884   4.551 -0.2942  0.4697 -0.1891
 8349SOL    HW129894   1.358   4.808   4.579  1.7568  1.4810 -1.1045
 8349SOL    HW229895   1.346   4.958   4.597 -1.4399  1.1689 -0.3099
 8350SOL     OW29896   2.065   4.286   5.237 -0.0927 -0.3212 -0.6687
 8350SOL    HW129897   2.023   4.225   5.178 -1.4081 -2.3319  2.2265
 8350SOL    HW229898   2.159   4.268   5.228 -0.4051 -1.9406 -0.7221
 8351SOL     OW29899   3.681   5.377   9.863  0.2788 -0.3630 -0.3763
 8351SOL    HW129900   3.593   5.416   9.858 -0.6778 -2.1387  1.6006
 8351SOL    HW229901   3.734   5.442   9.910  0.3736  1.2582 -2.6639
 8352SOL     OW29902   2.076   2.706   5.081  0.0856  0.3831  0.3895
 8352SOL    HW129903   2.089   2.789   5.127 -3.1637  1.3678 -0.3434
 8352SOL    HW229904   2.040   2.648   5.148  0.9881 -0.0132  0.5387
 8353SOL     OW29905   0.822   3.791   4.222  0.2145 -0.5508  0.1409
 8353SOL    HW129906   0.787   3.789   4.133  0.2439 -3.4285  0.1271
 8353SOL    HW229907   0.781   3.715   4.265  2.6776 -1.1147  1.5793
 8354SOL     OW29908   1.614   3.791   5.017 -0.2100 -0.1658  0.2914
 8354SOL    HW129909   1.595   3.736   5.093  2.6462 -1.5587  0.0622
 8354SOL    HW229910   1.563   3.870   5.031 -3.3738 -2.3127  1.3017
 8355SOL     OW29911   2.377   3.662   6.291 -0.2252 -0.2211 -0.2767
 8355SOL    HW129912   2.417   3.653   6.205  0.8664  0.1066  0.1892
 8355SOL    HW229913   2.300   3.716   6.276 -0.9691 -1.5328 -1.3165
 8356SOL     OW29914   1.579   3.684   4.061  0.6812 -0.3910  0.2608
 8356SOL    HW129915   1.501   3.671   4.116  1.0351 -1.6064  0.4959
 8356SOL    HW229916   1.567   3.623   3.989  0.5460  0.7322 -0.6800
 8357SOL     OW29917   5.525   2.871   4.789 -0.5531  0.0021  0.3829
 8357SOL    HW129918   5.472   2.846   4.714  1.5311 -1.5869 -0.6076
 8357SOL    HW229919   5.482   2.950   4.823 -1.2396  1.0835 -2.7767
 8358SOL     OW29920   2.473   4.501   5.351 -0.0495 -0.5479  0.0211
 8358SOL    HW129921   2.490   4.447   5.275  0.5184  1.0793 -1.0293
 8358SOL    HW229922   2.556   4.543   5.371 -0.6555  0.5333  0.3492
 8359SOL     OW29923   3.025   4.791   2.963  0.4500  0.0559 -0.3810
 8359SOL    HW129924   3.054   4.757   3.047 -0.0906  0.3214 -0.0841
 8359SOL    HW229925   2.971   4.721   2.926  1.0982 -0.2626 -0.7375
 8360SOL     OW29926   5.359   2.230   4.707 -0.0216  0.3688 -0.0985
 8360SOL    HW129927   5.416   2.240   4.630  0.8316  0.4942  0.5400
 8360SOL    HW229928   5.388   2.148   4.747 -0.3861  0.3644  0.1585
 8361SOL     OW29929   2.065   4.031   4.806  0.6604 -0.2402  0.1817
 8361SOL    HW129930   2.083   4.003   4.896 -0.2285  1.0432  0.7700
 8361SOL    HW229931   2.054   3.950   4.758  1.5198 -0.9499  1.1532
 8362SOL     OW29932   4.504   4.372   3.590  0.4536  0.6396 -0.1387
 8362SOL    HW129933   4.500   4.305   3.659  0.3563  0.2870 -0.4870
 8362SOL    HW229934   4.443   4.440   3.619  0.4438  0.5117  0.1419
 8363SOL     OW29935   1.676   3.099   2.743 -0.1529 -0.0152  0.2085
 8363SOL    HW129936   1.675   3.159   2.668  1.2749 -1.7117 -1.2106
 8363SOL    HW229937   1.600   3.043   2.730  0.6614 -0.9622 -0.5384
 8364SOL     OW29938   1.954   4.502   4.725  0.1547 -0.2721  0.7403
 8364SOL    HW129939   1.875   4.448   4.728  0.0245 -0.0538  1.3079
 8364SOL    HW229940   1.935   4.575   4.784  0.1574  0.6212 -0.3447
 8365SOL     OW29941   2.096   4.270   4.622 -0.3970  0.4706  0.1605
 8365SOL    HW129942   2.114   4.212   4.696  0.5456  0.3250 -0.1712
 8365SOL    HW229943   2.008   4.303   4.638 -0.3183  0.2023  1.1887
 8366SOL     OW29944   2.238   4.535   5.734 -0.1817  0.1289  0.1595
 8366SOL    HW129945   2.216   4.527   5.641 -0.6997  0.0261  0.2873
 8366SOL    HW229946   2.266   4.448   5.761 -1.0319 -0.0909  0.3481
 8367SOL     OW29947   2.790   4.166   4.394 -0.1237  0.2340  0.2260
 8367SOL    HW129948   2.837   4.218   4.458 -0.5850 -0.0806  0.8214
 8367SOL    HW229949   2.706   4.147   4.435 -0.9942  1.2515 -1.0457
 8368SOL     OW29950   2.315   4.162   5.147  0.3441  0.4060 -0.0509
 8368SOL    HW129951   2.406   4.135   5.156  0.0703  0.2835  2.8941
 8368SOL    HW229952   2.292   4.140   5.057  2.0942 -3.1019  0.2684
 8369SOL     OW29953   1.247   5.387   4.186 -0.1464  0.3236 -0.1317
 8369SOL    HW129954   1.324   5.433   4.153 -0.6520 -0.0861 -1.9606
 8369SOL    HW229955   1.197   5.365   4.107 -1.5380 -0.4632  0.9466
 8370SOL     OW29956   2.612   5.268   5.132  0.1752  0.4560  0.2037
 8370SOL    HW129957   2.529   5.230   5.157  0.3429  0.0870  0.1966
 8370SOL    HW229958   2.590   5.330   5.061  0.1719 -1.1759 -1.2567
 8371SOL     OW29959   2.350   5.838   3.300 -0.7096  0.0705 -0.1089
 8371SOL    HW129960   2.391   5.912   3.345 -0.6983 -0.2054  0.3347
 8371SOL    HW229961   2.333   5.870   3.211 -0.3068  0.4613 -0.0441
 8372SOL     OW29962   3.014   4.056   5.140 -0.1470  0.4005  0.5494
 8372SOL    HW129963   3.016   4.109   5.220 -0.4172 -1.5297  1.8756
 8372SOL    HW229964   2.930   4.079   5.099  0.1322  1.6364  0.6516
 8373SOL     OW29965   1.197   3.950   4.065  0.3145 -0.0998  0.7103
 8373SOL    HW129966   1.106   3.954   4.094 -0.5734  0.2177 -1.9543
 8373SOL    HW229967   1.222   4.042   4.052  0.2932 -0.2606 -0.5782
 8374SOL     OW29968   1.251   4.323   5.941  0.2425 -0.1777 -0.0750
 8374SOL    HW129969   1.306   4.355   6.012 -1.3022  0.1730  0.9842
 8374SOL    HW229970   1.306   4.328   5.863  2.0717 -0.8993  1.1547
 8375SOL     OW29971   2.535   4.940   5.435  0.7385 -0.4183 -0.2197
 8375SOL    HW129972   2.462   4.883   5.456  0.5361  0.1215  0.5413
 8375SOL    HW229973   2.610   4.900   5.479  0.5422  0.0560  0.5515
 8376SOL     OW29974   2.047   3.217   2.781  0.2928  0.5645 -0.4370
 8376SOL    HW129975   1.992   3.232   2.858  0.8142  1.8689 -0.3066
 8376SOL    HW229976   2.030   3.292   2.724  2.0110  1.0643 -0.3350
 8377SOL     OW29977   2.976   2.382   4.062  0.0212 -0.1262  0.5479
 8377SOL    HW129978   3.014   2.309   4.110  0.7212  0.9457  1.6598
 8377SOL    HW229979   2.932   2.342   3.987 -1.5235 -1.8815  2.3513
 8378SOL     OW29980   2.572   5.481   5.859  0.5267  0.2482 -0.1902
 8378SOL    HW129981   2.501   5.491   5.922 -0.1886 -0.3901 -0.8838
 8378SOL    HW229982   2.639   5.432   5.906  0.0272 -0.1640  0.0951
 8379SOL     OW29983   1.615   3.754   5.612 -0.7889 -0.3385  0.2580
 8379SOL    HW129984   1.598   3.708   5.530  1.2262 -2.5957  1.0404
 8379SOL    HW229985   1.567   3.703   5.678 -0.1873 -0.1243  0.8652
 8380SOL     OW29986   3.631   6.432   4.739 -0.0853  0.4102  0.5307
 8380SOL    HW129987   3.651   6.515   4.782  0.4526 -0.2286  1.5308
 8380SOL    HW229988   3.688   6.431   4.662  1.4252  0.0631  1.6197
 8381SOL     OW29989   3.151   3.817   4.490 -0.4006  0.1026 -0.1439
 8381SOL    HW129990   3.068   3.864   4.494  0.5438  1.7894 -0.1598
 8381SOL    HW229991   3.148   3.756   4.564 -2.0712 -0.5758 -0.7550
 8382SOL     OW29992   4.237   2.347   5.619  0.4393  0.0691  0.6017
 8382SOL    HW129993   4.222   2.441   5.630  0.3190  0.0209  0.8395
 8382SOL    HW229994   4.162   2.305   5.660 -0.4689 -0.0903 -1.2096
 8383SOL     OW29995   1.937   3.945   3.227 -0.5341 -0.3189  0.4701
 8383SOL    HW129996   1.979   3.908   3.150  0.3268  0.7475  0.4146
 8383SOL    HW229997   1.846   3.960   3.200 -0.9188 -2.4282  0.5221
 8384SOL     OW29998   1.299   5.985   4.775  0.6545  0.5978  0.5440
 8384SOL    HW129999   1.266   5.940   4.853 -0.8721 -0.4853 -0.6800
 8384SOL    HW230000   1.361   5.922   4.737  1.5283  1.1964  0.9495
 8385SOL     OW30001   1.825   4.691   3.751  0.0615  0.0741  0.1674
 8385SOL    HW130002   1.805   4.639   3.829 -0.9326 -0.6503 -0.5596
 8385SOL    HW230003   1.854   4.776   3.785 -1.3041  0.0948  1.3096
 8386SOL     OW30004   1.081   6.108   4.690  0.1395 -0.4505  0.2702
 8386SOL    HW130005   1.139   6.035   4.715 -0.5393 -1.1863 -0.3044
 8386SOL    HW230006   1.036   6.077   4.612 -2.2261 -0.5047  1.6345
 8387SOL     OW30007   1.240   7.142   4.791  0.6798  0.3561 -0.4298
 8387SOL    HW130008   1.178   7.154   4.719  0.9970  0.3047 -0.7167
 8387SOL    HW230009   1.325   7.160   4.752  0.9123 -0.2711 -0.2230
 8388SOL     OW30010   4.562   2.967   4.337  0.1744  0.4970  0.1426
 8388SOL    HW130011   4.631   3.030   4.356  0.7540  0.4915 -1.8296
 8388SOL    HW230012   4.601   2.882   4.354  0.8731  0.4639 -1.4947
 8389SOL     OW30013   2.685   2.816   4.456  0.6394 -0.0137  0.1845
 8389SOL    HW130014   2.613   2.860   4.413  1.2442  0.2821 -0.5425
 8389SOL    HW230015   2.707   2.743   4.397  1.8813  0.7669 -0.3488
 8390SOL     OW30016   1.605   5.797   6.231  0.1344 -0.0118 -0.2348
 8390SOL    HW130017   1.670   5.776   6.298 -0.2937  0.2934  0.2840
 8390SOL    HW230018   1.582   5.713   6.192 -0.9273 -0.4295  1.2343
 8391SOL     OW30019   3.673   2.891   4.636  0.0939 -0.3366 -0.3155
 8391SOL    HW130020   3.691   2.978   4.671  0.1676 -0.0024 -1.1690
 8391SOL    HW230021   3.640   2.907   4.548  0.0604 -1.1707 -0.4579
 8392SOL     OW30022   4.034   3.916   3.026  0.0276 -0.2585  0.5462
 8392SOL    HW130023   4.056   3.825   3.007 -1.0896 -0.9280  2.3314
 8392SOL    HW230024   3.964   3.937   2.964  1.8204  0.1391 -1.4076
 8393SOL     OW30025   2.710   4.557   4.126  0.2232 -0.3225  0.0574
 8393SOL    HW130026   2.618   4.571   4.105  0.5076  1.3654 -0.1767
 8393SOL    HW230027   2.710   4.516   4.212 -0.7329 -0.0314  0.1963
 8394SOL     OW30028   3.870   2.821   5.874  0.1216  0.1332 -0.1375
 8394SOL    HW130029   3.820   2.901   5.888 -1.2963 -0.5541 -1.1137
 8394SOL    HW230030   3.815   2.751   5.908  1.5175 -0.4093  1.0616
 8395SOL     OW30031   2.064   4.905   3.544 -0.6286  0.3896 -0.4701
 8395SOL    HW130032   2.130   4.919   3.612  0.7983 -1.7977 -1.3701
 8395SOL    HW230033   2.013   4.986   3.545  0.6144  1.2205  1.8073
 8396SOL     OW30034   1.891   2.232   5.800 -0.5489  0.0352  0.2151
 8396SOL    HW130035   1.868   2.159   5.743 -0.4162  0.1799 -0.0270
 8396SOL    HW230036   1.825   2.299   5.782 -0.2482  0.2522 -0.0999
 8397SOL     OW30037   2.909   3.885   3.722  0.6920 -0.1561 -0.0142
 8397SOL    HW130038   2.915   3.980   3.733 -2.7681  0.5096 -2.8723
 8397SOL    HW230039   2.837   3.859   3.779  0.5305 -0.7898 -0.5035
 8398SOL     OW30040   3.783   4.083   2.433  0.1314  0.0157  0.4617
 8398SOL    HW130041   3.832   4.090   2.352  1.6379 -0.4487  1.3158
 8398SOL    HW230042   3.797   3.993   2.463 -0.5734  0.1180  1.1318
 8399SOL     OW30043   2.877   6.845   2.040  0.0365 -0.5982  0.0074
 8399SOL    HW130044   2.965   6.815   2.062  0.5746  0.5768 -0.4750
 8399SOL    HW230045   2.860   6.809   1.953  0.1643 -0.5918 -0.0201
 8400SOL     OW30046   3.183   5.392   2.665  0.3814  0.8248 -0.3155
 8400SOL    HW130047   3.179   5.485   2.645  0.3631  0.5279 -1.7544
 8400SOL    HW230048   3.148   5.349   2.587  1.5530 -0.4375 -0.1681
 8401SOL     OW30049   2.829   5.573   4.284  0.0208 -0.1955  0.4607
 8401SOL    HW130050   2.777   5.504   4.327  0.3221 -0.6320  0.1279
 8401SOL    HW230051   2.892   5.601   4.351 -0.9566  0.6842  1.0316
 8402SOL     OW30052   3.654   3.670   4.337  0.3850  0.0659  0.7019
 8402SOL    HW130053   3.657   3.727   4.260  2.8691 -0.6071  0.2725
 8402SOL    HW230054   3.590   3.712   4.395 -0.6921  1.1891 -1.2240
 8403SOL     OW30055   1.760   4.520   3.987 -0.1127 -0.0476 -0.4661
 8403SOL    HW130056   1.705   4.445   4.008 -1.8985  1.0024 -1.2843
 8403SOL    HW230057   1.751   4.579   4.062  0.1465 -0.0078 -0.4640
 8404SOL     OW30058   2.600   3.948   4.206  0.4670 -0.1188  0.1468
 8404SOL    HW130059   2.561   3.872   4.249 -0.8298 -0.0760 -0.9256
 8404SOL    HW230060   2.598   4.017   4.272 -0.5331 -0.3499  0.3710
 8405SOL     OW30061   2.489   5.120   4.855 -0.0580 -0.2458 -0.0913
 8405SOL    HW130062   2.509   5.214   4.861 -1.1418  0.0208 -0.5726
 8405SOL    HW230063   2.488   5.102   4.761 -0.1796 -0.6759 -0.0060
 8406SOL     OW30064   4.076   3.468   4.463 -0.2090  0.6338 -0.4036
 8406SOL    HW130065   3.983   3.485   4.478 -0.2247  0.8237 -0.6858
 8406SOL    HW230066   4.099   3.528   4.391 -0.4993 -1.2625 -2.1170
 8407SOL     OW30067   1.412   4.093   3.561  0.3172 -0.1045  0.0622
 8407SOL    HW130068   1.371   4.032   3.623  0.4422  0.4114  0.6662
 8407SOL    HW230069   1.413   4.046   3.478  0.1219 -0.8019  0.4465
 8408SOL     OW30070   1.093   4.406   3.344 -0.6231 -0.7151 -0.0690
 8408SOL    HW130071   1.098   4.419   3.249  0.2421 -1.5683 -0.1500
 8408SOL    HW230072   1.171   4.449   3.378 -1.0451 -0.2183  0.2952
 8409SOL     OW30073   1.825   5.939   6.802 -0.6074 -0.0374 -0.4885
 8409SOL    HW130074   1.837   5.969   6.712  1.6456 -1.2711 -0.6195
 8409SOL    HW230075   1.733   5.913   6.806 -0.8079  0.3046 -2.3495
 8410SOL     OW30076   2.218   4.817   4.416 -0.1001  0.4273  0.5168
 8410SOL    HW130077   2.302   4.831   4.373  0.2489  0.8997  1.3566
 8410SOL    HW230078   2.153   4.850   4.353  0.4899  2.5334  0.9699
 8411SOL     OW30079   1.717   4.373   4.707 -0.7291  0.1492  0.5585
 8411SOL    HW130080   1.692   4.284   4.680 -1.2001  0.5411 -0.3455
 8411SOL    HW230081   1.692   4.378   4.799 -2.5061 -0.0272  0.1066
 8412SOL     OW30082   2.699   4.623   5.485 -0.5519  0.1267  0.1772
 8412SOL    HW130083   2.771   4.565   5.510  0.1989  1.1602  0.4331
 8412SOL    HW230084   2.649   4.636   5.566 -1.0799 -0.6318 -0.0113
 8413SOL     OW30085   2.607   2.866   2.762 -0.3536  0.2859 -0.4373
 8413SOL    HW130086   2.537   2.801   2.756  1.5266 -1.6561 -2.0171
 8413SOL    HW230087   2.626   2.872   2.856 -0.2684 -1.7533 -0.3176
 8414SOL     OW30088   2.769   3.133   4.996 -0.0526  0.2548 -0.1631
 8414SOL    HW130089   2.718   3.060   4.960 -0.2439  0.6280 -0.6481
 8414SOL    HW230090   2.801   3.100   5.080  0.3007 -0.5824 -0.6121
 8415SOL     OW30091   2.514   6.827   4.543  0.2917  0.6729  0.4922
 8415SOL    HW130092   2.523   6.840   4.637 -0.1449  1.0099  0.4856
 8415SOL    HW230093   2.598   6.856   4.507  0.1814  1.2599  0.7025
 8416SOL     OW30094   2.531   3.014   4.289  0.5660  0.2620 -0.1161
 8416SOL    HW130095   2.551   3.012   4.196  0.9869  0.1406 -0.0234
 8416SOL    HW230096   2.471   3.088   4.299 -0.2660 -0.3301 -0.6334
 8417SOL     OW30097   2.831   4.477   2.374 -0.1897  0.2717 -0.1779
 8417SOL    HW130098   2.799   4.446   2.459  0.7342 -0.8023 -0.2070
 8417SOL    HW230099   2.875   4.401   2.336  1.1294  1.3115 -0.7645
 8418SOL     OW30100   2.214   4.719   4.703  0.1864 -0.1077 -0.3216
 8418SOL    HW130101   2.257   4.762   4.777  0.6377 -1.8341  0.4396
 8418SOL    HW230102   2.222   4.782   4.631 -1.1490  2.0182  1.3430
 8419SOL     OW30103   3.500   2.734   4.810 -0.1660  0.6756  0.1885
 8419SOL    HW130104   3.578   2.752   4.757  0.6275 -1.2059  0.6483
 8419SOL    HW230105   3.427   2.763   4.756  0.7159  0.1454 -1.3340
 8420SOL     OW30106   2.863   3.370   2.402  0.2142 -0.5979 -0.6290
 8420SOL    HW130107   2.836   3.278   2.402  1.0745 -0.8518 -0.7835
 8420SOL    HW230108   2.791   3.416   2.445  1.3941 -1.8141  2.8380
 8421SOL     OW30109   2.014   5.411   4.717 -0.1145 -0.3313  0.2707
 8421SOL    HW130110   1.960   5.334   4.696 -2.2994  1.1927  0.1419
 8421SOL    HW230111   2.092   5.401   4.663 -0.5621 -2.2444 -0.0654
 8422SOL     OW30112   1.967   4.721   4.919 -0.2775  0.0703  0.5394
 8422SOL    HW130113   1.880   4.732   4.957 -0.6768  0.2246 -0.4106
 8422SOL    HW230114   2.026   4.719   4.994 -1.1320 -0.3383  1.2046
 8423SOL     OW30115   1.334   4.743   3.025 -0.4819 -0.3218 -0.2964
 8423SOL    HW130116   1.246   4.746   3.063  0.7816 -1.2424  2.8783
 8423SOL    HW230117   1.383   4.685   3.083  2.5221  1.0556 -1.3502
 8424SOL     OW30118   3.996   6.197   1.870  0.4120  1.4280  0.5338
 8424SOL    HW130119   3.961   6.206   1.782 -2.0565 -0.6477  1.2473
 8424SOL    HW230120   3.986   6.104   1.891 -0.1842  2.0701  3.4248
 8425SOL     OW30121   2.728   3.335   5.179  0.2986  0.0177 -0.4877
 8425SOL    HW130122   2.773   3.419   5.169 -1.6603  1.2153  0.3690
 8425SOL    HW230123   2.748   3.287   5.099  1.6595  1.1806 -0.8736
 8426SOL     OW30124   2.422   4.824   6.025  0.6626  0.4366 -0.2067
 8426SOL    HW130125   2.342   4.839   5.974  1.2652 -1.2414 -1.6867
 8426SOL    HW230126   2.488   4.879   5.983 -0.0073  2.9576  1.9104
 8427SOL     OW30127   0.592   4.449   4.094  0.5939  0.6336  0.6045
 8427SOL    HW130128   0.561   4.400   4.170 -2.2323 -0.2279 -1.0348
 8427SOL    HW230129   0.538   4.528   4.093  0.6633  0.6796 -0.4305
 8428SOL     OW30130   2.778   6.223   5.614 -0.4123  0.2088  0.2293
 8428SOL    HW130131   2.804   6.145   5.664 -0.9306  0.7030  1.3033
 8428SOL    HW230132   2.763   6.290   5.681 -2.3200  0.5470 -0.5098
 8429SOL     OW30133   3.965   2.783   3.559 -0.4004 -0.2504  0.2051
 8429SOL    HW130134   4.006   2.698   3.575  0.3654 -0.0893 -0.8477
 8429SOL    HW230135   3.872   2.769   3.577  0.1421 -0.5415  2.9312
 8430SOL     OW30136   3.243   4.350   3.980  0.0969  0.0121  0.3153
 8430SOL    HW130137   3.199   4.424   3.938 -1.9179 -1.0066  0.5788
 8430SOL    HW230138   3.336   4.362   3.960 -0.3943  1.7438 -0.9679
 8431SOL     OW30139   2.043   3.442   3.579  0.0857  0.4794 -0.6397
 8431SOL    HW130140   2.020   3.406   3.493 -1.5395 -1.5885  0.6178
 8431SOL    HW230141   1.964   3.489   3.607  0.5813  1.0739 -0.2321
 8432SOL     OW30142   1.942   2.873   6.118 -0.4364 -0.0022 -0.1401
 8432SOL    HW130143   1.997   2.928   6.063 -0.5652  0.5753  0.3113
 8432SOL    HW230144   1.853   2.904   6.102 -0.4694  0.2118  0.4375
 8433SOL     OW30145   3.053   3.641   4.689 -0.3160  0.1408 -0.2443
 8433SOL    HW130146   3.071   3.591   4.769  0.7645 -1.2388 -1.3180
 8433SOL    HW230147   2.987   3.590   4.643 -1.0957  1.0441 -0.1430
 8434SOL     OW30148   1.366   1.973   3.254 -0.3576 -0.4514  0.6067
 8434SOL    HW130149   1.379   2.067   3.249 -0.6371 -0.3892  1.0870
 8434SOL    HW230150   1.399   1.940   3.170 -0.2363  0.0677  0.4505
 8435SOL     OW30151   3.288   3.196   2.670  0.7051 -0.0286  0.5311
 8435SOL    HW130152   3.277   3.101   2.663  0.6307  0.1071 -1.5685
 8435SOL    HW230153   3.198   3.231   2.668  0.7938  0.1706 -0.6084
 8436SOL     OW30154   1.095   5.072   4.698 -0.0663  0.5870 -0.2936
 8436SOL    HW130155   1.149   5.032   4.765 -0.6399  0.3929  0.0587
 8436SOL    HW230156   1.062   5.152   4.738 -0.1823  0.6159 -0.4436
 8437SOL     OW30157   2.711   2.676   4.222 -0.5429 -0.4282 -0.4179
 8437SOL    HW130158   2.773   2.715   4.161  1.0205 -0.7606  0.9096
 8437SOL    HW230159   2.649   2.628   4.167  0.7881 -0.6585 -1.7388
 8438SOL     OW30160   2.845   4.643   2.790  0.0552 -0.1303  0.1226
 8438SOL    HW130161   2.800   4.602   2.863  0.6314 -0.7135  0.1546
 8438SOL    HW230162   2.792   4.620   2.713  0.2570 -0.7598  0.1686
 8439SOL     OW30163   3.193   4.613   3.901 -0.1440  0.1485  0.1864
 8439SOL    HW130164   3.204   4.670   3.825  1.8182  2.4096  2.1131
 8439SOL    HW230165   3.103   4.629   3.931 -0.6909 -0.2416 -1.2106
 8440SOL     OW30166   2.060   6.216   4.558  0.2355 -0.3589  0.0574
 8440SOL    HW130167   2.080   6.122   4.562 -0.1108 -0.4924 -1.2798
 8440SOL    HW230168   2.103   6.247   4.478 -0.5490  0.4050 -0.0753
 8441SOL     OW30169   1.641   3.449   4.445  0.2304  0.5819  0.2599
 8441SOL    HW130170   1.730   3.433   4.476  0.7051 -1.8765 -2.1721
 8441SOL    HW230171   1.649   3.526   4.389  1.0154 -0.1077 -0.5980
 8442SOL     OW30172   3.060   2.989   7.451  0.1964 -0.1126  0.4243
 8442SOL    HW130173   2.982   3.019   7.498  0.1578  0.5731 -0.0607
 8442SOL    HW230174   3.057   3.037   7.368  0.7854 -0.5749  0.1375
 8443SOL     OW30175   1.508   5.206   6.306  0.0734 -0.2673 -0.2732
 8443SOL    HW130176   1.444   5.155   6.357 -0.2991 -0.1409 -0.6061
 8443SOL    HW230177   1.516   5.158   6.224  1.7337 -1.2386  0.4408
 8444SOL     OW30178   3.562   3.910   8.683 -0.0706 -0.7008 -0.2437
 8444SOL    HW130179   3.516   3.840   8.637 -1.1137 -0.8109  0.9477
 8444SOL    HW230180   3.493   3.956   8.731  0.9290 -0.2254  0.7376
 8445SOL     OW30181   2.210   4.178   8.570 -0.2663  0.6568  0.6449
 8445SOL    HW130182   2.254   4.109   8.620  1.4821  1.1243 -0.2012
 8445SOL    HW230183   2.202   4.251   8.632 -0.7179  0.2298  1.0885
 8446SOL     OW30184   2.032   2.871   7.458 -0.1351 -0.3338  0.4196
 8446SOL    HW130185   2.120   2.833   7.457 -0.4561 -1.0963  1.0973
 8446SOL    HW230186   1.993   2.842   7.375 -0.0996 -0.8431  0.5761
 8447SOL     OW30187   1.706   6.312   5.640 -0.3543  0.1753 -0.4430
 8447SOL    HW130188   1.611   6.313   5.629 -0.3540  0.3090 -0.4417
 8447SOL    HW230189   1.727   6.222   5.664 -0.5101  0.2119 -0.1774
 8448SOL     OW30190   1.236   3.674   7.687 -0.5201 -0.2366  0.0464
 8448SOL    HW130191   1.267   3.730   7.757 -2.5763 -1.6639  2.1491
 8448SOL    HW230192   1.217   3.734   7.615  1.1188  1.2890  0.8382
 8449SOL     OW30193   1.406   4.735   6.279  0.0558 -0.2968 -0.1043
 8449SOL    HW130194   1.384   4.711   6.369 -0.2669  0.8488  0.1251
 8449SOL    HW230195   1.342   4.688   6.226  0.6946 -1.5589  0.1949
 8450SOL     OW30196   1.722   3.904   6.067 -0.7745 -0.2255  0.0278
 8450SOL    HW130197   1.674   3.941   5.994 -2.0428  0.9019  1.4145
 8450SOL    HW230198   1.679   3.820   6.084 -1.5192  0.2560  0.5278
 8451SOL     OW30199   2.047   3.162   6.745  0.2508 -0.0191 -0.3415
 8451SOL    HW130200   2.048   3.237   6.686  1.8281 -0.1213 -0.4727
 8451SOL    HW230201   2.134   3.124   6.737 -0.2891 -1.4229  0.2926
 8452SOL     OW30202   1.608   3.532   6.127 -0.4898 -0.1908 -0.1558
 8452SOL    HW130203   1.525   3.532   6.079 -0.2737  0.2140 -0.5347
 8452SOL    HW230204   1.598   3.463   6.193 -2.3463  1.9462  1.9080
 8453SOL     OW30205   3.307   6.299   7.923 -0.6544 -0.2656 -0.4123
 8453SOL    HW130206   3.226   6.300   7.974  1.1455 -0.4570  2.5556
 8453SOL    HW230207   3.349   6.383   7.940  0.0211 -0.3523 -1.5352
 8454SOL     OW30208   2.992   2.676   8.747 -0.2457 -0.3411  0.0478
 8454SOL    HW130209   3.021   2.763   8.717  1.0034  0.1430  2.5189
 8454SOL    HW230210   2.919   2.695   8.807 -0.4670 -1.0639  0.0069
 8455SOL     OW30211   2.678   4.912   7.089 -0.1606 -0.3057  0.4063
 8455SOL    HW130212   2.657   4.873   7.174  1.1523  1.9155  1.7782
 8455SOL    HW230213   2.770   4.890   7.075  0.3708  1.5372  0.8242
 8456SOL     OW30214   2.558   5.036   5.868  0.2278 -0.6685 -0.1105
 8456SOL    HW130215   2.633   5.005   5.817 -0.1008 -0.3570 -0.7882
 8456SOL    HW230216   2.518   5.103   5.813 -1.8857 -2.4197 -0.7525
 8457SOL     OW30217   0.480   2.791   7.592 -0.3368  0.3767 -0.2178
 8457SOL    HW130218   0.488   2.861   7.527  0.7402  0.6262  0.1783
 8457SOL    HW230219   0.453   2.715   7.541  2.1136  0.1553 -1.2528
 8458SOL     OW30220   2.792   3.735   6.904  0.4927 -0.4457 -0.5899
 8458SOL    HW130221   2.857   3.727   6.833  1.7098 -0.0081  0.4518
 8458SOL    HW230222   2.821   3.810   6.955 -1.0966  0.0178 -0.3465
 8459SOL     OW30223   0.828   3.509   6.679  0.3884  0.0378 -0.0400
 8459SOL    HW130224   0.905   3.469   6.719  1.7187  0.9439 -1.6601
 8459SOL    HW230225   0.755   3.453   6.707  1.6888 -1.1021  1.1189
 8460SOL     OW30226   2.235   6.530   7.909  0.3810 -0.7040 -0.3247
 8460SOL    HW130227   2.236   6.614   7.864  1.8237 -0.4789  0.1214
 8460SOL    HW230228   2.216   6.466   7.841  0.6528 -0.1649 -0.9079
 8461SOL     OW30229   2.509   4.371   5.746  0.0763 -0.3550  0.1332
 8461SOL    HW130230   2.475   4.288   5.712  1.2937 -1.5111  1.6446
 8461SOL    HW230231   2.576   4.397   5.683 -1.8568  0.6625 -1.5374
 8462SOL     OW30232   2.874   4.492   6.907  0.0182 -0.8411  0.0854
 8462SOL    HW130233   2.799   4.492   6.848 -0.8086 -0.6767  1.1247
 8462SOL    HW230234   2.850   4.431   6.977  0.6003 -0.3313  0.7381
 8463SOL     OW30235   2.254   2.859   5.727 -0.2122 -0.2163  0.3865
 8463SOL    HW130236   2.244   2.778   5.776 -0.7111 -0.7610 -0.6063
 8463SOL    HW230237   2.336   2.897   5.759 -0.1528 -0.9456  1.0871
 8464SOL     OW30238   2.210   2.941   6.549  0.4308  0.8458  0.1956
 8464SOL    HW130239   2.166   2.903   6.473 -0.9358  1.8348  0.4784
 8464SOL    HW230240   2.244   2.866   6.598 -1.8936 -0.0086  0.5518
 8465SOL     OW30241   9.946   6.688   5.116  0.2100 -0.4357  0.8497
 8465SOL    HW130242   9.974   6.777   5.139 -1.8670  0.5977 -0.4605
 8465SOL    HW230243  10.011   6.658   5.053 -0.0763  0.8585 -0.0867
 8466SOL     OW30244   3.060   4.032   6.101  0.7595 -0.4441 -0.1128
 8466SOL    HW130245   3.057   4.081   6.183 -0.0899 -0.7075  0.0179
 8466SOL    HW230246   3.011   3.952   6.118  0.9693 -0.7091 -0.7359
 8467SOL     OW30247   4.569   3.367   4.430  0.2980  0.2772 -0.0676
 8467SOL    HW130248   4.480   3.333   4.421  0.7659 -0.4104 -2.4119
 8467SOL    HW230249   4.622   3.290   4.448  0.5372  0.5746  0.5005
 8468SOL     OW30250   0.047   4.366   7.247 -0.0170  0.1362 -0.5719
 8468SOL    HW130251   0.105   4.436   7.279 -0.7888  1.2767 -1.6401
 8468SOL    HW230252   0.082   4.287   7.288 -0.1271  1.3416  1.9990
 8469SOL     OW30253   3.412   3.776   6.596 -0.2763 -0.0584 -0.1467
 8469SOL    HW130254   3.395   3.760   6.689 -1.0982  1.7892  0.0425
 8469SOL    HW230255   3.500   3.815   6.594 -1.0252  1.6838  0.0615
 8470SOL     OW30256   1.971   4.408   8.511  0.8681 -0.2867  0.1241
 8470SOL    HW130257   1.888   4.441   8.478  1.1067  0.2962  0.0996
 8470SOL    HW230258   2.033   4.423   8.440  1.3492  0.8229  0.7700
 8471SOL     OW30259   1.736   2.623   6.761 -0.0349 -0.0422 -0.0757
 8471SOL    HW130260   1.652   2.659   6.790 -0.1378  0.3417 -0.8149
 8471SOL    HW230261   1.763   2.681   6.689  0.6650 -0.4009 -0.1064
 8472SOL     OW30262   0.732   4.380   6.209 -0.7056  0.2028  0.2718
 8472SOL    HW130263   0.804   4.339   6.160 -1.9332 -0.8812 -0.6549
 8472SOL    HW230264   0.658   4.321   6.196 -1.1865  0.1219  3.0860
 8473SOL     OW30265   1.359   4.632   5.790 -0.6637 -0.0569 -0.5102
 8473SOL    HW130266   1.381   4.717   5.750 -0.8778 -0.2722 -1.0920
 8473SOL    HW230267   1.426   4.572   5.757 -0.9089 -0.2605 -0.6406
 8474SOL     OW30268   1.436   6.614   8.152  0.4034 -0.2631 -0.4239
 8474SOL    HW130269   1.512   6.639   8.100  0.6892  0.4730  0.3248
 8474SOL    HW230270   1.384   6.558   8.095  2.1565 -1.8492 -0.5111
 8475SOL     OW30271   0.429   6.858   9.740  0.4186 -0.1153 -0.6228
 8475SOL    HW130272   0.456   6.825   9.654  1.0713  0.6662 -0.7247
 8475SOL    HW230273   0.407   6.780   9.790  2.6824 -0.7872 -0.6017
 8476SOL     OW30274   2.660   4.145   6.836 -0.4511 -0.3019 -0.8559
 8476SOL    HW130275   2.734   4.113   6.887 -2.3067 -1.9631  0.8363
 8476SOL    HW230276   2.695   4.222   6.790  2.1824 -0.7827  0.2416
 8477SOL     OW30277   4.530   2.936   6.023  0.3812  0.4806  0.6635
 8477SOL    HW130278   4.527   2.997   6.097 -3.2695  1.5825 -0.2702
 8477SOL    HW230279   4.535   2.850   6.063  1.4889  1.1803  2.0963
 8478SOL     OW30280   2.380   5.316   6.303  0.0698 -0.2696 -0.0139
 8478SOL    HW130281   2.431   5.254   6.251  0.5997  1.5438 -1.6855
 8478SOL    HW230282   2.413   5.304   6.392  1.7621 -0.7934 -0.6853
 8479SOL     OW30283   0.608   4.950   7.944  0.1776 -0.0535 -0.1208
 8479SOL    HW130284   0.554   5.015   7.989  1.9337  2.4741 -1.5092
 8479SOL    HW230285   0.547   4.904   7.886 -0.9400  0.9450  0.2585
 8480SOL     OW30286   2.657   4.140   7.581 -0.2639 -0.3755 -0.2298
 8480SOL    HW130287   2.702   4.080   7.640 -0.0438  0.5498  0.5661
 8480SOL    HW230288   2.589   4.180   7.636 -1.4224 -1.0373 -1.1604
 8481SOL     OW30289   1.218   3.661   8.020  0.3117  0.0473 -0.4752
 8481SOL    HW130290   1.178   3.607   8.088  0.0094  0.5174 -0.2795
 8481SOL    HW230291   1.303   3.620   8.003 -0.4828 -1.2840 -1.2920
 8482SOL     OW30292   1.399   3.089   7.817  0.3090 -0.3091  0.1166
 8482SOL    HW130293   1.488   3.062   7.796  0.4595 -1.2253  1.8416
 8482SOL    HW230294   1.402   3.113   7.910 -1.0621  0.3844 -0.0024
 8483SOL     OW30295   1.205   2.612   7.239  0.0085 -0.1011  0.0151
 8483SOL    HW130296   1.191   2.696   7.283 -0.0271 -1.8435  3.4375
 8483SOL    HW230297   1.146   2.551   7.283 -0.5232 -1.8289 -2.9241
 8484SOL     OW30298   1.857   3.487   7.184  0.1072  0.1076 -0.3339
 8484SOL    HW130299   1.841   3.574   7.220 -0.8924  0.1582 -0.8778
 8484SOL    HW230300   1.828   3.494   7.093  1.0996 -0.4704 -0.7056
 8485SOL     OW30301   2.633   3.952   6.605  0.2680 -0.1011 -0.0644
 8485SOL    HW130302   2.622   4.021   6.539  0.8498  0.4556  0.4050
 8485SOL    HW230303   2.612   3.994   6.688  0.8292 -0.4234  0.2507
 8486SOL     OW30304   2.189   5.609   5.867  0.4560  0.2319 -0.5473
 8486SOL    HW130305   2.248   5.589   5.794  0.6073  0.2670 -0.4363
 8486SOL    HW230306   2.110   5.643   5.826  0.8171  0.9507 -0.6621
 8487SOL     OW30307   9.923   4.789   5.495  0.2374  0.4481 -0.1669
 8487SOL    HW130308   9.953   4.735   5.568 -1.8757 -0.4443  0.0711
 8487SOL    HW230309  10.001   4.838   5.469  1.2354  0.2035  2.1608
 8488SOL     OW30310   2.593   3.537   5.845 -0.0075 -0.4033  0.0849
 8488SOL    HW130311   2.617   3.453   5.807 -0.7424 -1.2307  1.4223
 8488SOL    HW230312   2.642   3.602   5.793 -0.5278 -1.5324 -1.8489
 8489SOL     OW30313   2.414   4.541   7.485 -0.0922  0.6207 -0.2196
 8489SOL    HW130314   2.382   4.456   7.516  1.2891  0.2036  0.0916
 8489SOL    HW230315   2.496   4.554   7.532 -0.9981  2.8116  0.8450
 8490SOL     OW30316   3.253   2.639   6.586 -0.1497  0.3212  0.0970
 8490SOL    HW130317   3.235   2.545   6.588 -1.8934  0.6425  0.2789
 8490SOL    HW230318   3.328   2.651   6.644  0.2182 -0.9742 -0.0994
 8491SOL     OW30319   2.243   5.528   7.818 -0.2084 -0.3827  0.1822
 8491SOL    HW130320   2.290   5.580   7.883 -0.6299 -2.1810  1.9805
 8491SOL    HW230321   2.187   5.469   7.870 -0.1124 -2.2848 -1.7894
 8492SOL     OW30322   0.888   7.289   5.090 -0.1472 -0.6014 -0.3198
 8492SOL    HW130323   0.882   7.384   5.081  1.5749 -0.2405  1.7788
 8492SOL    HW230324   0.831   7.268   5.164  2.7944 -0.5511  2.0986
 8493SOL     OW30325   3.493   2.403   5.447 -0.6203  0.1420 -0.1742
 8493SOL    HW130326   3.518   2.475   5.506 -0.5207  0.6347 -0.8172
 8493SOL    HW230327   3.574   2.357   5.429 -0.7741 -0.4871  0.7002
 8494SOL     OW30328   1.983   3.604   6.871 -0.5706  0.2313  0.1111
 8494SOL    HW130329   2.019   3.645   6.950 -1.4320  0.2242  0.5150
 8494SOL    HW230330   1.891   3.588   6.892 -0.8616  0.4272 -0.9843
 8495SOL     OW30331   0.935   3.238   5.709 -0.1816  0.1225 -0.0194
 8495SOL    HW130332   0.878   3.225   5.784  0.1461  2.3086  0.6489
 8495SOL    HW230333   0.995   3.308   5.736  1.3796 -0.5994 -1.5113
 8496SOL     OW30334   1.734   2.494   7.808 -0.1104 -0.3782  0.3449
 8496SOL    HW130335   1.749   2.435   7.882  0.8258  0.8032  1.1028
 8496SOL    HW230336   1.655   2.460   7.767 -0.4562 -1.2513  1.6922
 8497SOL     OW30337   2.759   2.887   6.219 -0.3561  0.1880 -0.7235
 8497SOL    HW130338   2.727   2.903   6.307  3.0633 -0.3601  0.6728
 8497SOL    HW230339   2.741   2.968   6.171 -0.2132  1.3006  1.0912
 8498SOL     OW30340   3.435   3.532   5.235 -0.0098  0.2881 -0.1447
 8498SOL    HW130341   3.499   3.508   5.168 -0.6950  1.7963 -1.3751
 8498SOL    HW230342   3.485   3.539   5.316  0.8059 -1.7178 -0.4465
 8499SOL     OW30343   0.725   5.358   7.883  0.6172 -0.8118  0.3122
 8499SOL    HW130344   0.664   5.285   7.869  1.4314 -1.6748  1.1735
 8499SOL    HW230345   0.796   5.341   7.821  0.6832 -0.6095  0.3329
 8500SOL     OW30346   2.183   2.964   5.182 -0.1959  0.1576 -0.2052
 8500SOL    HW130347   2.165   3.034   5.245  0.6228  1.5255 -1.4431
 8500SOL    HW230348   2.171   3.005   5.097 -1.3613 -1.6892 -0.9612
 8501SOL     OW30349   1.347   5.975   5.534 -0.3745 -0.2771  0.0642
 8501SOL    HW130350   1.342   5.895   5.482 -1.0458 -1.0143  1.2469
 8501SOL    HW230351   1.262   6.017   5.521  0.3163  0.7387 -1.3105
 8502SOL     OW30352   2.571   3.024   6.828  0.3493 -0.0605  0.2053
 8502SOL    HW130353   2.564   3.084   6.902  0.8013 -0.6729  0.7509
 8502SOL    HW230354   2.488   2.975   6.829 -0.1154  0.7082 -0.3796
 8503SOL     OW30355   1.291   4.695   6.821  0.0696 -0.8388  0.0226
 8503SOL    HW130356   1.222   4.634   6.846  0.0157 -0.1009  1.6918
 8503SOL    HW230357   1.372   4.647   6.838  0.0007 -1.0797 -0.3199
 8504SOL     OW30358   2.091   4.032   6.489 -0.2607  0.1626  0.7249
 8504SOL    HW130359   2.060   3.962   6.546  1.4451 -1.3599 -0.1745
 8504SOL    HW230360   2.022   4.042   6.424 -1.4692  0.7836  2.0882
 8505SOL     OW30361   2.790   5.896   7.330  0.0328 -0.2238  0.0889
 8505SOL    HW130362   2.719   5.860   7.277 -1.6124  2.3830  0.3894
 8505SOL    HW230363   2.869   5.851   7.300 -1.4308 -1.5953 -1.8033
 8506SOL     OW30364   2.022   3.826   9.297  0.0524 -0.2629 -0.0130
 8506SOL    HW130365   2.082   3.898   9.277 -0.6014  0.7476  1.5092
 8506SOL    HW230366   2.068   3.774   9.363 -0.8108  0.6963  1.4017
 8507SOL     OW30367   1.304   2.985   4.453  0.9719  0.1132  0.6451
 8507SOL    HW130368   1.306   3.008   4.546  0.1113  0.3895  0.5931
 8507SOL    HW230369   1.371   2.916   4.445  1.9278  0.9590  1.2237
 8508SOL     OW30370   2.341   3.726   7.546  0.4952 -0.3031  0.2565
 8508SOL    HW130371   2.389   3.748   7.467 -0.8979 -0.4956 -0.6490
 8508SOL    HW230372   2.249   3.741   7.524 -0.0969 -2.5369  1.1003
 8509SOL     OW30373   2.972   3.845   7.285 -0.0955  0.1297  0.7779
 8509SOL    HW130374   2.927   3.889   7.214  1.2104  1.1597  0.5618
 8509SOL    HW230375   2.974   3.909   7.356  0.5874 -0.0844  0.9562
 8510SOL     OW30376   2.108   4.059   6.883  0.3427 -0.5336  0.1844
 8510SOL    HW130377   2.095   4.036   6.975 -0.8452 -0.1474  0.1183
 8510SOL    HW230378   2.130   4.152   6.884  0.3022 -0.5232  0.0635
 8511SOL     OW30379   3.494   2.952   6.491  0.3718 -0.6579 -0.3184
 8511SOL    HW130380   3.423   2.922   6.547 -1.0640  1.7570 -0.7609
 8511SOL    HW230381   3.459   2.944   6.402  0.6195  0.6164 -0.5334
 8512SOL     OW30382   2.327   3.705   5.373  0.0116  0.3786 -0.6842
 8512SOL    HW130383   2.249   3.761   5.367  0.8657  1.6644  0.1030
 8512SOL    HW230384   2.401   3.766   5.370  0.9445 -0.6414  1.0291
 8513SOL     OW30385   1.979   3.314   5.512 -0.0357  0.5613 -0.4891
 8513SOL    HW130386   1.999   3.236   5.564  0.4399 -0.6801 -2.4849
 8513SOL    HW230387   1.900   3.350   5.552 -1.8016 -2.4341 -1.1327
 8514SOL     OW30388   1.416   3.953   5.678  0.0500 -0.8146 -0.0350
 8514SOL    HW130389   1.496   3.904   5.657  0.0679 -0.0368 -1.8917
 8514SOL    HW230390   1.345   3.897   5.647 -0.0187 -0.6145 -0.2441
 8515SOL     OW30391   1.859   4.193   6.026  0.4421  0.4083 -0.0862
 8515SOL    HW130392   1.848   4.099   6.039  0.2149  0.3585 -0.6299
 8515SOL    HW230393   1.779   4.232   6.060  0.0310  0.3106 -0.9290
 8516SOL     OW30394   4.350   2.624   6.671 -0.0125  0.7448  0.1959
 8516SOL    HW130395   4.270   2.573   6.655  0.9843 -0.1872 -1.9923
 8516SOL    HW230396   4.416   2.582   6.616  1.5534  2.5974  0.6317
 8517SOL     OW30397   2.536   5.752   4.528 -0.1967 -0.4881  0.2459
 8517SOL    HW130398   2.585   5.731   4.607 -1.2105  0.8722  1.2679
 8517SOL    HW230399   2.570   5.838   4.501  0.1431 -0.9426 -0.7978
 8518SOL     OW30400   3.002   6.376   7.726  0.2177 -0.5936 -0.0002
 8518SOL    HW130401   2.920   6.420   7.745  1.7242  2.0846  0.5352
 8518SOL    HW230402   3.044   6.364   7.811  0.7084 -1.2444 -0.3293
 8519SOL     OW30403   2.686   3.529   3.670 -0.1128  0.3246  0.2390
 8519SOL    HW130404   2.694   3.502   3.761 -0.7804 -0.8945 -0.0445
 8519SOL    HW230405   2.598   3.566   3.663 -0.2794 -0.1154 -0.0337
 8520SOL     OW30406   2.019   3.495   6.001 -0.2118 -0.3830  0.3155
 8520SOL    HW130407   2.036   3.418   6.055  0.2692  0.1345  0.9050
 8520SOL    HW230408   1.973   3.556   6.059  1.3148  0.6256  0.4919
 8521SOL     OW30409   2.453   3.420   5.368  0.2735 -0.2429  0.8232
 8521SOL    HW130410   2.389   3.425   5.298 -1.0787 -0.5725  1.9956
 8521SOL    HW230411   2.435   3.496   5.423  0.7411 -0.4521  1.2754
 8522SOL     OW30412   2.755   3.961   4.646 -0.1556  0.6920 -0.0188
 8522SOL    HW130413   2.819   3.943   4.577  1.7503  2.1606  1.2842
 8522SOL    HW230414   2.799   3.933   4.727 -1.3136  1.3671  0.8563
 8523SOL     OW30415   2.198   3.466   5.526  0.6856  0.0287  0.2999
 8523SOL    HW130416   2.188   3.514   5.445  0.1453  0.4200  0.5924
 8523SOL    HW230417   2.125   3.404   5.526  1.9263 -1.4828 -0.5382
 8524SOL     OW30418   2.102   4.665   7.350  0.2574  0.2650  0.1621
 8524SOL    HW130419   2.048   4.586   7.339  0.5275  0.0828  0.1445
 8524SOL    HW230420   2.067   4.727   7.285  1.0308 -0.3743 -0.8741
 8525SOL     OW30421   1.586   1.548   8.771 -0.0576  0.4959 -0.3188
 8525SOL    HW130422   1.652   1.617   8.780  0.9728 -0.3327 -1.4480
 8525SOL    HW230423   1.521   1.584   8.711 -0.4570  1.1589  0.4892
 8526SOL     OW30424   3.923   3.279   6.757  0.0613  0.1359 -0.0917
 8526SOL    HW130425   3.874   3.198   6.771  0.2713 -0.0999 -0.6746
 8526SOL    HW230426   3.989   3.256   6.691  0.3258  0.6985 -0.0311
 8527SOL     OW30427   2.785   3.644   5.685 -0.2958 -0.8276 -0.5545
 8527SOL    HW130428   2.880   3.657   5.692 -0.5035  0.1887  0.5025
 8527SOL    HW230429   2.770   3.626   5.592  0.7440  0.5820 -1.0052
 8528SOL     OW30430   2.036   3.894   3.779 -0.3978  0.4863 -0.5098
 8528SOL    HW130431   2.104   3.828   3.790 -1.8953 -0.9775  0.1250
 8528SOL    HW230432   2.005   3.883   3.689 -0.1228  0.8456 -0.6510
 8529SOL     OW30433   1.911   3.958   5.078 -0.5871 -0.0938  0.1739
 8529SOL    HW130434   1.866   3.908   5.146  0.7974  1.4797  2.3211
 8529SOL    HW230435   1.845   4.021   5.048 -0.6303  0.5662  1.5650
 8530SOL     OW30436   3.229   2.936   6.634 -0.2895 -0.0288  0.0469
 8530SOL    HW130437   3.141   2.964   6.659 -0.4704 -1.0401  0.5836
 8530SOL    HW230438   3.215   2.849   6.595  0.3646  0.1982 -0.6929
 8531SOL     OW30439   3.276   5.248   8.087 -0.2474  0.4531  0.2742
 8531SOL    HW130440   3.312   5.167   8.124 -0.0072  0.7944  0.7952
 8531SOL    HW230441   3.340   5.316   8.112 -1.4213  1.1341  1.5332
 8532SOL     OW30442   3.053   3.246   6.626 -0.0692 -0.8382  0.4746
 8532SOL    HW130443   3.141   3.234   6.662  0.4052  2.0018  0.4267
 8532SOL    HW230444   3.002   3.282   6.699  0.2538  2.5526 -0.8447
 8533SOL     OW30445   2.418   4.943   8.605  0.3358  0.5220 -0.0394
 8533SOL    HW130446   2.341   4.950   8.661  1.6749  1.2277  1.7545
 8533SOL    HW230447   2.383   4.946   8.516 -1.5815  2.5281  0.7308
 8534SOL     OW30448   3.985   2.933   7.547  0.8329 -0.4531 -0.0264
 8534SOL    HW130449   4.074   2.949   7.514  1.3396 -0.3510  1.3598
 8534SOL    HW230450   3.976   2.838   7.549  0.2253 -0.4638 -1.9233
 8535SOL     OW30451   1.862   4.072   7.320  0.0754 -0.0301 -0.3275
 8535SOL    HW130452   1.887   4.162   7.339 -1.3762  0.3800 -0.2636
 8535SOL    HW230453   1.824   4.040   7.402  0.1533 -0.5410 -0.4919
 8536SOL     OW30454   2.248   4.617   6.977 -0.6747 -0.2170 -0.1566
 8536SOL    HW130455   2.156   4.596   6.995 -0.2807 -0.7927  1.2098
 8536SOL    HW230456   2.298   4.561   7.036  0.5226  0.9762  0.0026
 8537SOL     OW30457   1.248   4.107   6.122  0.1766 -0.7326  0.5059
 8537SOL    HW130458   1.275   4.146   6.039 -1.1034 -2.1327 -0.6025
 8537SOL    HW230459   1.159   4.076   6.107 -0.8795  0.8845  3.0827
 8538SOL     OW30460   1.844   3.861   5.593 -0.4327 -0.1586  0.4083
 8538SOL    HW130461   1.750   3.850   5.604 -0.5759  0.1266 -0.4701
 8538SOL    HW230462   1.882   3.779   5.625 -0.9831 -0.2941  0.7062
 8539SOL     OW30463   2.685   4.815   8.954  0.6757 -0.3693  0.8449
 8539SOL    HW130464   2.780   4.822   8.953  0.6533 -0.1415 -0.3494
 8539SOL    HW230465   2.656   4.870   8.881 -0.3566 -0.6657  1.0206
 8540SOL     OW30466   0.629   5.897   7.047  0.3982  0.3531  0.0281
 8540SOL    HW130467   0.557   5.844   7.083  0.8819 -0.5587 -0.3430
 8540SOL    HW230468   0.587   5.978   7.020 -0.5954 -0.3850 -0.6702
 8541SOL     OW30469   2.333   5.558   5.352 -0.1093 -0.3543 -1.1855
 8541SOL    HW130470   2.304   5.606   5.430  0.0149 -0.5232 -1.0374
 8541SOL    HW230471   2.428   5.567   5.352 -0.0065 -1.4098 -0.6412
 8542SOL     OW30472   2.328   6.011   5.926 -0.0502  0.2028 -0.0105
 8542SOL    HW130473   2.286   6.032   5.843  0.6926 -1.0123 -0.7146
 8542SOL    HW230474   2.314   6.088   5.981 -0.9904  0.8103 -1.0861
 8543SOL     OW30475   3.844   5.869   9.102 -0.0734  0.0326 -0.0073
 8543SOL    HW130476   3.787   5.802   9.141 -1.0612  1.7441  1.5814
 8543SOL    HW230477   3.832   5.859   9.008 -3.9402  1.0688  0.2779
 8544SOL     OW30478   1.469   4.081   5.256  0.9911 -0.0969  0.1198
 8544SOL    HW130479   1.427   4.137   5.322 -0.2921  0.1476 -0.8965
 8544SOL    HW230480   1.421   3.999   5.260  0.0493  0.3759 -1.4443
 8545SOL     OW30481   1.866   5.739   6.348  0.0810  0.1431 -0.0974
 8545SOL    HW130482   1.892   5.762   6.437 -1.1963 -0.6805  0.4929
 8545SOL    HW230483   1.897   5.649   6.336 -2.3191 -0.8045  0.5701
 8546SOL     OW30484   2.600   4.206   9.323 -0.9194 -0.0688  0.4559
 8546SOL    HW130485   2.676   4.220   9.379 -0.2514  0.8606 -0.6426
 8546SOL    HW230486   2.631   4.149   9.253 -0.9131  1.1667 -0.5841
 8547SOL     OW30487   1.991   4.571   6.432 -0.5633  0.2797 -0.1898
 8547SOL    HW130488   1.987   4.554   6.338 -1.3322  0.2683 -0.1628
 8547SOL    HW230489   1.945   4.655   6.443 -1.2102 -0.1279  0.2661
 8548SOL     OW30490   2.314   2.721   6.228 -0.1576  0.8674 -0.4822
 8548SOL    HW130491   2.385   2.658   6.224 -0.6885  0.2301  0.0262
 8548SOL    HW230492   2.353   2.803   6.198  0.8054  0.5343 -0.1621
 8549SOL     OW30493   1.054   2.045   8.289 -0.2913  0.1413 -0.0402
 8549SOL    HW130494   0.998   2.095   8.349 -1.8192 -0.8287 -0.6325
 8549SOL    HW230495   1.102   2.112   8.240 -0.9970  0.9945  0.4238
 8550SOL     OW30496   2.116   3.589   6.468 -0.3902 -0.2688 -0.0067
 8550SOL    HW130497   2.170   3.655   6.424  1.7506 -1.9527 -0.0208
 8550SOL    HW230498   2.034   3.633   6.486  1.0061  2.4221  0.0389
 8551SOL     OW30499   2.949   2.857   4.735  0.4675  0.1312 -0.6342
 8551SOL    HW130500   2.907   2.936   4.698 -4.1423 -1.8778 -0.0017
 8551SOL    HW230501   2.924   2.787   4.675 -1.1873 -1.9809  2.4425
 8552SOL     OW30502   2.584   3.742   2.300 -0.2979  0.0945  0.6699
 8552SOL    HW130503   2.617   3.653   2.285  1.9432  0.9915  0.0251
 8552SOL    HW230504   2.591   3.754   2.394 -0.0003 -0.1821  0.6852
 8553SOL     OW30505   1.706   4.971   6.490  0.2801 -0.1138  0.5203
 8553SOL    HW130506   1.650   4.944   6.417 -1.5704  1.1868  1.4207
 8553SOL    HW230507   1.732   5.060   6.469  0.9957 -0.2766  0.7119
 8554SOL     OW30508   3.561   5.335   9.147 -0.3411 -0.7685 -0.0477
 8554SOL    HW130509   3.546   5.367   9.236 -2.1653 -0.3549 -0.4765
 8554SOL    HW230510   3.474   5.329   9.109  0.5366  0.5685 -2.3387
 8555SOL     OW30511   1.854   3.429   6.392  0.0102 -0.0043 -0.1182
 8555SOL    HW130512   1.850   3.366   6.320 -0.2571  0.6780 -0.7010
 8555SOL    HW230513   1.764   3.459   6.402  0.2845  0.9517 -0.4412
 8556SOL     OW30514   2.842   2.048   4.717  0.4818 -0.6084 -0.2232
 8556SOL    HW130515   2.782   2.031   4.790  0.0148 -0.6960 -0.6298
 8556SOL    HW230516   2.894   1.969   4.709  1.7030  0.0352  1.1288
 8557SOL     OW30517   2.291   3.998   7.632 -0.0933  0.0202 -0.2184
 8557SOL    HW130518   2.368   4.002   7.575  0.1545  1.3804  0.1981
 8557SOL    HW230519   2.319   3.943   7.705  0.6349  0.8847  0.1572
 8558SOL     OW30520   2.975   4.280   7.729  0.1467  0.4019 -0.4428
 8558SOL    HW130521   2.919   4.219   7.776  1.6930  0.2958  1.3034
 8558SOL    HW230522   3.052   4.230   7.705  0.5656  1.1736 -0.7463
 8559SOL     OW30523   2.568   5.216   8.472 -0.1459 -0.3919  0.0805
 8559SOL    HW130524   2.550   5.128   8.440 -1.3338 -0.1482  0.0820
 8559SOL    HW230525   2.611   5.260   8.398 -1.8687 -0.1781 -0.8157
 8560SOL     OW30526   0.659   3.955   7.582  0.0298 -0.0893  0.1051
 8560SOL    HW130527   0.732   3.959   7.643  0.0210  1.4749  0.0487
 8560SOL    HW230528   0.581   3.950   7.638  0.0220  1.3398  0.2429
 8561SOL     OW30529   3.807   2.826   4.270 -0.3333 -0.0919 -0.5900
 8561SOL    HW130530   3.892   2.854   4.303 -1.3000  0.7059  1.3025
 8561SOL    HW230531   3.766   2.907   4.239 -0.3429 -0.5027 -1.6635
 8562SOL     OW30532   2.367   4.431   5.988  0.9803 -0.3083 -0.1020
 8562SOL    HW130533   2.454   4.429   5.948 -0.0719 -0.7338 -2.4539
 8562SOL    HW230534   2.322   4.355   5.950 -1.2062  1.2887 -0.8101
 8563SOL     OW30535   2.937   4.036   5.852 -0.5002 -0.4382  0.3603
 8563SOL    HW130536   2.994   4.018   5.776 -0.5408 -3.4630  0.9596
 8563SOL    HW230537   2.998   4.046   5.925 -0.5602  0.4978  0.2884
 8564SOL     OW30538   2.240   4.293   6.927  0.3525  0.1221  0.3512
 8564SOL    HW130539   2.283   4.240   6.994  1.8295  0.4637 -0.3042
 8564SOL    HW230540   2.312   4.329   6.875 -0.7844 -0.7532 -1.8885
 8565SOL     OW30541   1.396   3.629   6.379 -0.1077  0.6198  0.2723
 8565SOL    HW130542   1.338   3.595   6.447  0.3723 -0.5402  0.1319
 8565SOL    HW230543   1.360   3.594   6.297  0.2502  0.6629  0.0953
 8566SOL     OW30544   1.246   3.056   8.360  0.8703 -0.1599  0.3391
 8566SOL    HW130545   1.208   2.988   8.416  0.2635 -0.3872 -0.3375
 8566SOL    HW230546   1.208   3.138   8.393  0.7104 -0.2675  0.4256
 8567SOL     OW30547   2.507   4.667   5.708  0.3068 -0.1178 -0.7171
 8567SOL    HW130548   2.476   4.580   5.734  0.9332 -0.1480 -0.0500
 8567SOL    HW230549   2.437   4.702   5.653 -0.6959 -0.3616  0.3792
 8568SOL     OW30550   2.949   5.641   4.571  0.1905  0.3310  0.1353
 8568SOL    HW130551   2.965   5.610   4.661 -2.0716 -0.2359  0.3742
 8568SOL    HW230552   2.991   5.727   4.568  0.0285  0.5012  1.8494
 8569SOL     OW30553   1.845   5.408   6.206  0.0110 -0.6161 -0.5863
 8569SOL    HW130554   1.809   5.321   6.223  0.9946 -0.9642 -0.2474
 8569SOL    HW230555   1.819   5.460   6.283  0.8428 -1.0560 -0.0066
 8570SOL     OW30556   1.589   3.375   7.820  0.0073 -0.2600 -0.2588
 8570SOL    HW130557   1.521   3.371   7.753 -0.6954 -2.3223  0.5151
 8570SOL    HW230558   1.555   3.438   7.884 -0.2154  0.2592 -0.8804
 8571SOL     OW30559   1.551   3.526   6.760 -0.9439 -0.5953 -0.7907
 8571SOL    HW130560   1.583   3.508   6.672 -0.7006 -1.8229 -0.4679
 8571SOL    HW230561   1.520   3.616   6.757 -0.6644 -0.5361 -2.0519
 8572SOL     OW30562   1.237   3.907   7.479 -0.4441  0.1617  0.3744
 8572SOL    HW130563   1.310   3.846   7.465 -0.8582 -0.1783 -0.3810
 8572SOL    HW230564   1.167   3.873   7.422 -0.1365  2.2964 -1.3555
 8573SOL     OW30565   1.748   2.410   7.183 -0.0079 -0.4819  0.6591
 8573SOL    HW130566   1.843   2.403   7.171  0.0853  0.1782  1.0501
 8573SOL    HW230567   1.714   2.328   7.146  0.5608  0.0482 -1.0969
 8574SOL     OW30568   2.805   3.747   6.565 -0.3426  0.2781  0.3499
 8574SOL    HW130569   2.732   3.788   6.612  0.0313  0.9446  0.3465
 8574SOL    HW230570   2.783   3.758   6.473  0.0246  0.9510  0.3425
 8575SOL     OW30571   2.559   4.422   7.028  0.6625  0.0674 -0.0181
 8575SOL    HW130572   2.586   4.514   7.024 -0.9937  0.5814  0.4009
 8575SOL    HW230573   2.537   4.400   6.937  1.1092  0.0620 -0.1277
 8576SOL     OW30574   3.498   3.377   7.859 -0.4066 -0.0172  0.0328
 8576SOL    HW130575   3.485   3.323   7.937 -2.4992  1.4948  0.8042
 8576SOL    HW230576   3.576   3.342   7.818 -0.5338 -2.2798  1.6165
 8577SOL     OW30577   1.112   4.996   7.537 -0.2946  0.3768 -0.6062
 8577SOL    HW130578   1.113   4.903   7.513 -0.1078  0.4426 -0.8657
 8577SOL    HW230579   1.155   4.999   7.622  1.4415  0.4481 -1.4636
 8578SOL     OW30580   3.390   4.024   4.142  0.3427 -0.1845  0.5398
 8578SOL    HW130581   3.297   4.000   4.139  0.8853 -2.3889  0.9403
 8578SOL    HW230582   3.406   4.047   4.234  0.2597 -0.0417  0.5188
 8579SOL     OW30583   1.106   2.780   8.056 -0.0585  0.5739  0.2295
 8579SOL    HW130584   1.109   2.875   8.056 -0.3482  0.5856  0.3555
 8579SOL    HW230585   1.076   2.757   8.144  4.0278  0.2122  1.6338
 8580SOL     OW30586   2.623   4.666   6.830  0.0216 -0.3525  0.1424
 8580SOL    HW130587   2.611   4.756   6.859  0.0659  0.0889 -1.1917
 8580SOL    HW230588   2.649   4.673   6.738 -1.2542 -1.7751 -0.3543
 8581SOL     OW30589   1.486   4.116   5.902  0.9194  0.0798  0.1436
 8581SOL    HW130590   1.535   4.150   5.976 -0.6156  0.7503  0.8855
 8581SOL    HW230591   1.486   4.186   5.837  1.1927 -0.0321  0.0233
 8582SOL     OW30592   3.343   4.321   8.808  0.2986  0.2548 -0.5072
 8582SOL    HW130593   3.429   4.309   8.766  1.7835 -3.3166  3.2470
 8582SOL    HW230594   3.360   4.380   8.881  0.0240 -2.0281  1.4424
 8583SOL     OW30595   2.986   5.695   7.166  0.1562 -1.2963 -0.0578
 8583SOL    HW130596   2.993   5.740   7.082  1.3522 -1.5682 -0.1182
 8583SOL    HW230597   3.044   5.619   7.157 -0.6396 -1.9832  0.5887
 8584SOL     OW30598   0.139   6.206   7.453  0.2263  0.2642  0.2107
 8584SOL    HW130599   0.148   6.127   7.400 -1.2114 -0.1198  0.5166
 8584SOL    HW230600   0.194   6.191   7.530  2.3169  0.8159 -1.1167
 8585SOL     OW30601   2.089   6.111   8.696  0.3054 -0.2950 -0.7221
 8585SOL    HW130602   2.021   6.089   8.632 -0.9406 -0.5032  0.6677
 8585SOL    HW230603   2.167   6.064   8.664 -0.5831 -1.2521 -1.5170
 8586SOL     OW30604   2.399   3.395   6.399 -0.0935 -0.1281  0.6976
 8586SOL    HW130605   2.355   3.351   6.326  0.5528  0.3943 -0.0208
 8586SOL    HW230606   2.407   3.486   6.370  2.1314 -0.3534  0.4740
 8587SOL     OW30607   2.744   4.258   5.579 -0.2024 -0.0548  0.0285
 8587SOL    HW130608   2.712   4.181   5.626 -0.7186  0.9641  1.3744
 8587SOL    HW230609   2.795   4.306   5.645 -2.3022  2.2413  0.0439
 8588SOL     OW30610   1.620   5.940   5.488  0.1381 -0.7961  0.4888
 8588SOL    HW130611   1.673   5.861   5.494  1.1518 -0.0102  2.3982
 8588SOL    HW230612   1.545   5.922   5.545  0.4213 -0.3465  1.0041
 8589SOL     OW30613   1.864   4.540   6.872 -0.3114  0.4608  0.5359
 8589SOL    HW130614   1.834   4.631   6.865  1.6979  1.0288 -1.6294
 8589SOL    HW230615   1.847   4.503   6.785  1.8317 -0.2650  0.4040
 8590SOL     OW30616   2.750   3.782   8.992  0.1381 -0.8815 -1.0999
 8590SOL    HW130617   2.681   3.800   8.929 -0.1387 -0.9639 -0.8196
 8590SOL    HW230618   2.719   3.706   9.041 -0.2771  0.0006  0.0459
 8591SOL     OW30619   1.685   4.885   4.764  0.1753 -0.4140  0.0673
 8591SOL    HW130620   1.701   4.861   4.855  1.5566 -0.7593 -0.2542
 8591SOL    HW230621   1.598   4.925   4.764 -0.1165 -1.0344  1.4168
 8592SOL     OW30622   3.837   4.292   8.618 -0.2705 -0.3324  0.5096
 8592SOL    HW130623   3.861   4.311   8.527 -1.8354  0.2821  0.2129
 8592SOL    HW230624   3.873   4.205   8.634 -0.2179 -0.5569 -0.7857
 8593SOL     OW30625   2.517   2.520   6.812  0.4058  0.0273  0.1950
 8593SOL    HW130626   2.536   2.453   6.747  0.3080  0.0759  0.1140
 8593SOL    HW230627   2.466   2.475   6.879  0.9591 -0.1431  0.5013
 8594SOL     OW30628   1.536   3.386   5.183 -0.0417 -0.0371 -0.7015
 8594SOL    HW130629   1.574   3.306   5.221 -1.1526  0.0491  0.6306
 8594SOL    HW230630   1.449   3.359   5.154 -0.7135  0.8745  0.4514
 8595SOL     OW30631   2.926   4.096   3.971  0.4587 -0.3547 -0.0056
 8595SOL    HW130632   2.973   4.163   4.019 -0.7298 -0.4692  1.3493
 8595SOL    HW230633   2.895   4.140   3.892 -0.5791  0.8029  1.0260
 8596SOL     OW30634   1.767   2.754   7.472  0.0448  0.0162 -0.2563
 8596SOL    HW130635   1.856   2.772   7.502  0.3915 -1.1204 -0.5490
 8596SOL    HW230636   1.749   2.821   7.407  0.0174  1.3245  1.0858
 8597SOL     OW30637   3.085   4.340   7.418  0.2186  0.1397  0.2569
 8597SOL    HW130638   3.058   4.431   7.427 -0.6024 -0.0004 -0.7319
 8597SOL    HW230639   3.005   4.289   7.428  0.5900 -0.4495  0.2966
 8598SOL     OW30640   2.880   4.829   8.131 -1.2007  0.3843 -0.5705
 8598SOL    HW130641   2.960   4.787   8.164 -0.7792  0.5446 -1.3866
 8598SOL    HW230642   2.814   4.809   8.198 -0.5805 -0.0879 -0.0870
 8599SOL     OW30643   2.691   4.406   6.735 -0.2139 -0.4700  0.0907
 8599SOL    HW130644   2.601   4.431   6.752  0.2993  2.1562 -0.9012
 8599SOL    HW230645   2.695   4.393   6.641  0.3775 -0.9864  0.1794
 8600SOL     OW30646   3.896   2.630   6.876  0.6201  0.1021 -0.6043
 8600SOL    HW130647   3.899   2.584   6.960 -0.9171  0.1155 -0.5268
 8600SOL    HW230648   3.894   2.561   6.810 -2.0431 -0.0136 -0.4771
 8601SOL     OW30649   2.416   3.096   5.421  0.4145 -0.1015  0.5705
 8601SOL    HW130650   2.325   3.112   5.444  0.6214  0.8465  0.7656
 8601SOL    HW230651   2.415   3.081   5.326  0.3713  2.6432  0.0817
 8602SOL     OW30652   2.312   4.125   7.930  0.0963  0.7520  0.6401
 8602SOL    HW130653   2.370   4.093   7.999  0.7333 -4.1106 -1.9204
 8602SOL    HW230654   2.229   4.081   7.946  0.4156 -0.8901 -1.9376
 8603SOL     OW30655   1.563   2.811   6.808  0.2294  0.3155  0.3672
 8603SOL    HW130656   1.563   2.884   6.747 -0.9230 -0.7711 -0.9730
 8603SOL    HW230657   1.476   2.773   6.801  1.1112 -1.7896  0.2812
 8604SOL     OW30658   1.522   5.943   6.891  0.0709 -0.1598 -0.6208
 8604SOL    HW130659   1.516   6.025   6.843  2.4211  1.0632  1.0497
 8604SOL    HW230660   1.467   5.956   6.968  0.3073 -0.2202 -0.4416
 8605SOL     OW30661   2.662   5.192   5.424  0.1227 -0.1446 -0.1875
 8605SOL    HW130662   2.645   5.098   5.429  0.7654 -0.2585 -0.0315
 8605SOL    HW230663   2.639   5.216   5.335  2.4390 -0.9730 -1.0397
 8606SOL     OW30664   1.416   3.896   6.439  0.1049 -0.2489 -0.1373
 8606SOL    HW130665   1.421   3.971   6.380 -1.2033 -0.1468 -0.1176
 8606SOL    HW230666   1.487   3.839   6.409 -0.2462  0.0128 -1.5223
 8607SOL     OW30667   2.040   3.835   6.678 -0.1653  0.0893 -0.2262
 8607SOL    HW130668   2.071   3.912   6.725 -0.8865  0.9344 -1.1280
 8607SOL    HW230669   2.012   3.774   6.746  2.2345 -0.1786  0.5657
 8608SOL     OW30670   2.139   3.328   8.383  0.6413  0.3718  0.4923
 8608SOL    HW130671   2.126   3.233   8.383 -0.1540  0.4675 -0.3482
 8608SOL    HW230672   2.057   3.363   8.348  1.6488  1.2481 -1.0726
 8609SOL     OW30673   9.534   3.778   5.196 -0.0337  0.8606  0.2524
 8609SOL    HW130674   9.469   3.716   5.229  0.0221 -0.0974 -1.3594
 8609SOL    HW230675   9.487   3.860   5.184 -1.0842  0.0420 -1.3653
 8610SOL     OW30676   2.128   4.608   6.114  0.1174  0.1676  0.0487
 8610SOL    HW130677   2.068   4.656   6.171 -0.8767 -0.4725 -0.4343
 8610SOL    HW230678   2.072   4.545   6.069  0.9568  0.3773 -1.3106
 8611SOL     OW30679   0.483   4.070   8.168  0.5127 -0.2972 -0.0466
 8611SOL    HW130680   0.470   4.076   8.263 -1.3013  2.5853 -0.4265
 8611SOL    HW230681   0.405   4.027   8.135 -0.2198  1.3438 -0.5085
 8612SOL     OW30682   3.245   3.681   8.782  0.5005 -0.3612 -0.2669
 8612SOL    HW130683   3.241   3.776   8.773  1.3098 -0.3805 -0.9195
 8612SOL    HW230684   3.333   3.664   8.816  0.8482 -0.9645 -1.4499
 8613SOL     OW30685   2.355   3.899   6.505  0.2319 -0.0204 -0.0605
 8613SOL    HW130686   2.269   3.911   6.543  0.1654  0.2827 -0.3048
 8613SOL    HW230687   2.378   3.808   6.525  0.2026  0.1408  0.6951
 8614SOL     OW30688   4.745   4.903   9.941 -0.0768  0.2077 -0.2997
 8614SOL    HW130689   4.839   4.921   9.943  0.2258 -1.4070  1.3155
 8614SOL    HW230690   4.728   4.854  10.022 -2.5211  1.5043  0.0117
 8615SOL     OW30691   2.320   2.842   8.400 -0.2457 -0.2810  0.1977
 8615SOL    HW130692   2.273   2.873   8.323 -0.9238 -3.0704 -0.5872
 8615SOL    HW230693   2.280   2.888   8.473 -3.2166 -1.4719 -0.6119
 8616SOL     OW30694   1.036   4.274   8.025 -0.2086 -0.3675  0.0706
 8616SOL    HW130695   1.033   4.179   8.038 -1.5995 -0.3597 -0.1126
 8616SOL    HW230696   1.113   4.303   8.075 -0.8582 -1.3630  1.6769
 8617SOL     OW30697   3.240   3.740   5.300  0.0489 -0.6130  0.0362
 8617SOL    HW130698   3.305   3.671   5.287  0.1921 -0.8358  1.8248
 8617SOL    HW230699   3.275   3.794   5.370 -1.1769 -0.0859  0.2687
 8618SOL     OW30700   2.915   4.701   7.079  0.6855  0.3781  0.3517
 8618SOL    HW130701   2.931   4.632   7.015  1.9676 -0.6889  1.7715
 8618SOL    HW230702   2.849   4.664   7.137  0.0463  1.0594  0.0536
 8619SOL     OW30703   2.369   3.217   6.618 -0.0151 -0.4511 -1.0298
 8619SOL    HW130704   2.378   3.286   6.553  2.8446  1.0930  0.8747
 8619SOL    HW230705   2.436   3.153   6.595  0.6078 -0.1876  0.0060
 8620SOL     OW30706   2.181   3.889   5.077  0.5622 -0.3675  0.2926
 8620SOL    HW130707   2.181   3.793   5.071 -0.3629 -0.2558 -2.0995
 8620SOL    HW230708   2.097   3.911   5.117  0.5438 -0.5351  0.3461
 8621SOL     OW30709   2.425   4.128   6.098  0.3274 -0.0776 -0.0952
 8621SOL    HW130710   2.375   4.060   6.052 -0.5259  1.1865 -1.0716
 8621SOL    HW230711   2.514   4.119   6.063  0.7992 -2.2608  1.5684
 8622SOL     OW30712   1.694   4.997   7.172  0.4885 -0.0370 -0.1593
 8622SOL    HW130713   1.778   5.002   7.219  0.2343  0.4919  0.2509
 8622SOL    HW230714   1.658   4.911   7.196  0.9307 -0.2773 -0.3624
 8623SOL     OW30715   3.328   3.708   4.962  0.0065 -0.6477 -0.4796
 8623SOL    HW130716   3.307   3.617   4.939  2.3178 -1.5371  0.8377
 8623SOL    HW230717   3.374   3.702   5.046 -0.1362  1.7811 -0.1974
 8624SOL     OW30718   3.720   2.588   6.002 -0.0504 -0.1174  0.2295
 8624SOL    HW130719   3.708   2.612   6.094 -0.6390 -1.2344  0.4575
 8624SOL    HW230720   3.631   2.582   5.967  0.1689  0.2037 -0.3917
 8625SOL     OW30721   3.044   5.304   7.668 -0.2985  0.0361 -0.2429
 8625SOL    HW130722   3.088   5.364   7.729  1.4635 -1.5356  0.0959
 8625SOL    HW230723   2.995   5.362   7.609  0.8433  1.7799  0.4585
 8626SOL     OW30724   2.819   4.760   6.065 -0.6159 -0.4129 -0.1712
 8626SOL    HW130725   2.762   4.739   5.991 -2.6693  0.6173  1.0730
 8626SOL    HW230726   2.863   4.841   6.039  0.7818 -1.5305 -1.3863
 8627SOL     OW30727   1.995   4.422   7.318 -0.4205  0.4880 -0.2263
 8627SOL    HW130728   2.002   4.445   7.225 -1.9262  1.1785 -0.2025
 8627SOL    HW230729   1.913   4.464   7.345 -1.3378 -1.9084  0.7587
 8628SOL     OW30730   1.188   3.530   6.523  0.2133  0.5492  0.3371
 8628SOL    HW130731   1.125   3.489   6.464  0.3516 -0.4749  0.8849
 8628SOL    HW230732   1.181   3.480   6.605  0.2492  1.7439  1.0819
 8629SOL     OW30733   1.406   4.892   5.744  0.0624 -0.4850 -0.0965
 8629SOL    HW130734   1.333   4.905   5.805 -0.7797 -2.5547 -0.6143
 8629SOL    HW230735   1.369   4.915   5.658  0.2634 -0.7017 -0.2419
 8630SOL     OW30736   2.899   6.610   7.847  0.6943  0.4993 -0.8342
 8630SOL    HW130737   2.836   6.664   7.894 -0.5761 -1.0919 -0.6641
 8630SOL    HW230738   2.967   6.590   7.911 -0.5473 -0.8832  0.0523
 8631SOL     OW30739   1.575   3.156   6.920 -0.2267 -0.1252 -0.2067
 8631SOL    HW130740   1.658   3.198   6.896  0.0129  0.3725  1.3830
 8631SOL    HW230741   1.600   3.089   6.985 -0.9848 -0.4592 -0.2542
 8632SOL     OW30742   3.561   6.894   8.140 -0.2236  0.0348  0.2263
 8632SOL    HW130743   3.508   6.819   8.113  0.3310 -0.1836 -0.2512
 8632SOL    HW230744   3.610   6.918   8.062  1.0448 -0.3164  0.9086
 8633SOL     OW30745   1.654   3.378   5.626  0.3710 -0.0938  0.4423
 8633SOL    HW130746   1.574   3.426   5.605  0.6730  0.3881  0.3939
 8633SOL    HW230747   1.648   3.359   5.719  0.5409  0.5831  0.5959
 8634SOL     OW30748   1.779   2.797   5.299 -0.5731 -0.2632 -0.2976
 8634SOL    HW130749   1.759   2.835   5.214 -1.2303  1.0503  0.4240
 8634SOL    HW230750   1.712   2.834   5.358 -0.7337 -1.9106  0.5813
 8635SOL     OW30751   2.191   4.999   5.147  0.0604  0.0693  0.5974
 8635SOL    HW130752   2.113   5.044   5.115  0.3112 -1.8349 -2.9848
 8635SOL    HW230753   2.164   4.909   5.161  0.5328  0.3754  3.8679
 8636SOL     OW30754   1.125   2.810   7.584 -0.4104 -0.1995  0.0167
 8636SOL    HW130755   1.113   2.835   7.492 -0.0420 -0.2931 -0.0555
 8636SOL    HW230756   1.134   2.894   7.630  2.4704 -0.2249 -0.4495
 8637SOL     OW30757   1.311   3.546   5.312 -0.7094 -0.4241  0.0302
 8637SOL    HW130758   1.225   3.555   5.271 -0.3185  0.7991 -0.5206
 8637SOL    HW230759   1.351   3.471   5.267 -1.6512 -1.2863  0.5985
 8638SOL     OW30760   4.183   2.917   7.797  0.1923  0.3612 -0.6113
 8638SOL    HW130761   4.133   2.998   7.806  0.1869  0.3609 -0.6397
 8638SOL    HW230762   4.120   2.847   7.811 -0.3160  0.3137 -2.9109
 8639SOL     OW30763   2.640   5.166   8.784 -0.1095  0.1560 -0.0498
 8639SOL    HW130764   2.545   5.172   8.790 -0.1671 -0.5018 -0.3758
 8639SOL    HW230765   2.658   5.164   8.690  0.2072 -0.0857  0.0177
 8640SOL     OW30766   1.788   5.137   6.202 -0.2651 -0.7935  0.3755
 8640SOL    HW130767   1.814   5.135   6.110  0.3942 -1.6891  0.5694
 8640SOL    HW230768   1.726   5.065   6.212 -0.8359 -0.2936  0.4978
 8641SOL     OW30769   3.097   3.466   4.890 -0.1624 -1.2201 -0.0883
 8641SOL    HW130770   3.134   3.395   4.942 -0.2174  0.1603  1.8705
 8641SOL    HW230771   3.002   3.455   4.899 -0.1656 -0.5300  0.7283
 8642SOL     OW30772   1.521   4.532   6.896  0.4645 -0.1160  0.2384
 8642SOL    HW130773   1.550   4.571   6.979 -0.5294 -0.2517  0.6626
 8642SOL    HW230774   1.555   4.443   6.898 -0.1119 -0.3301  0.8098
 8643SOL     OW30775   1.514   3.150   8.432  0.3464 -0.1425 -0.1775
 8643SOL    HW130776   1.522   3.245   8.434  0.4327 -0.1555  0.3768
 8643SOL    HW230777   1.420   3.134   8.427  0.3744 -0.0213 -1.0520
 8644SOL     OW30778   2.847   3.152   8.735  0.1620  0.0583  0.5978
 8644SOL    HW130779   2.776   3.199   8.778 -0.0157 -0.0241  0.3931
 8644SOL    HW230780   2.859   3.197   8.652  0.7436  0.4381  0.8855
 8645SOL     OW30781   1.577   4.770   8.507  0.5134  0.3082 -0.0393
 8645SOL    HW130782   1.532   4.837   8.558 -0.8508 -1.1411  0.6622
 8645SOL    HW230783   1.515   4.698   8.500  2.2193 -1.1736 -0.2260
 8646SOL     OW30784   1.992   4.668   8.875  0.0726 -0.0638 -0.1458
 8646SOL    HW130785   1.911   4.651   8.826 -0.0446 -1.7152  0.5918
 8646SOL    HW230786   1.962   4.702   8.959  0.1764  0.0668 -0.1622
 8647SOL     OW30787   3.060   3.148   7.217  0.2773  0.2737  0.5170
 8647SOL    HW130788   3.098   3.121   7.134  1.5596 -0.2717  1.2743
 8647SOL    HW230789   3.063   3.244   7.215 -0.5094  0.2865 -0.4290
 8648SOL     OW30790   2.296   4.669   7.771  0.0735 -0.4315  0.0799
 8648SOL    HW130791   2.312   4.586   7.817 -0.9944 -1.2346 -0.9842
 8648SOL    HW230792   2.232   4.714   7.826 -0.6053 -1.0477 -0.1966
 8649SOL     OW30793   3.082   5.086   0.138 -0.1064 -0.4790  0.2892
 8649SOL    HW130794   3.156   5.084   0.199 -0.7509 -0.2346  1.0803
 8649SOL    HW230795   3.005   5.095   0.194 -0.7941 -1.4270 -0.4970
 8650SOL     OW30796   1.696   3.484   9.680  0.0983  1.0805 -0.7509
 8650SOL    HW130797   1.677   3.431   9.603  1.6072  0.4135 -0.6882
 8650SOL    HW230798   1.626   3.463   9.743  0.2678 -0.2762 -0.9999
 8651SOL     OW30799   0.180   2.906   7.918  0.3181  0.2994 -0.5094
 8651SOL    HW130800   0.180   2.972   7.987 -1.9834  0.1675 -0.3648
 8651SOL    HW230801   0.194   2.955   7.837 -1.4621  0.9866 -0.4086
 8652SOL     OW30802   2.265   5.180   9.462 -0.4030 -0.1613 -0.9313
 8652SOL    HW130803   2.296   5.131   9.538 -0.4460 -0.2307 -0.9569
 8652SOL    HW230804   2.331   5.247   9.447  0.6478 -1.4388 -2.0980
 8653SOL     OW30805   1.286   6.032   7.733 -0.1858 -0.3408  0.0490
 8653SOL    HW130806   1.356   6.009   7.671  0.9848  2.6107  0.2123
 8653SOL    HW230807   1.323   6.102   7.786 -1.6830 -1.8591  3.2313
 8654SOL     OW30808   1.320   6.454   8.360  0.0690  0.3985 -0.0705
 8654SOL    HW130809   1.230   6.449   8.327  0.3783 -0.9147 -0.7848
 8654SOL    HW230810   1.373   6.475   8.283  0.5477 -0.4366  0.0248
 8655SOL     OW30811   2.160   4.573   9.942  0.2150  0.1333 -0.0854
 8655SOL    HW130812   2.213   4.503   9.980 -0.6342  0.2642  1.3916
 8655SOL    HW230813   2.172   4.647  10.001 -1.8117  0.0753  0.4461
 8656SOL     OW30814   2.716   4.241   7.921  0.2139 -0.2066  0.2359
 8656SOL    HW130815   2.647   4.275   7.864 -0.3100 -1.0081  0.3750
 8656SOL    HW230816   2.722   4.148   7.897 -0.7319 -0.7944  2.1866
 8657SOL     OW30817   2.378   5.835   6.830 -0.1464 -0.0682 -0.1338
 8657SOL    HW130818   2.316   5.794   6.769  0.3738 -0.4492 -0.4146
 8657SOL    HW230819   2.401   5.918   6.788 -2.7080  1.4325  1.3733
 8658SOL     OW30820   2.841   3.607   8.191 -0.5727 -0.5033 -0.6433
 8658SOL    HW130821   2.922   3.576   8.151  0.7760 -0.4971  1.9953
 8658SOL    HW230822   2.783   3.623   8.117  1.3869 -1.7339 -2.5106
 8659SOL     OW30823   1.960   5.963   7.031  0.0998 -0.0778 -0.1636
 8659SOL    HW130824   2.037   6.013   7.004  0.7521 -0.5469  0.7827
 8659SOL    HW230825   1.910   5.951   6.950 -0.0006  1.9717 -0.4174
 8660SOL     OW30826   1.508   5.010   8.773 -0.9078  0.3094 -0.1500
 8660SOL    HW130827   1.465   5.064   8.840 -1.0557  1.1478 -0.9027
 8660SOL    HW230828   1.503   4.921   8.806 -2.0918  0.5646  0.3703
 8661SOL     OW30829   1.532   5.564   9.790  0.3928  0.5122 -0.8374
 8661SOL    HW130830   1.463   5.583   9.727 -0.3862  2.1324  0.4606
 8661SOL    HW230831   1.513   5.476   9.822 -1.1279  0.9970 -0.4048
 8662SOL     OW30832   0.908   2.628   8.230  0.1155 -0.0009 -0.3148
 8662SOL    HW130833   0.883   2.684   8.303 -2.4769  0.0526 -1.2005
 8662SOL    HW230834   0.825   2.599   8.192  1.4015  0.1123 -3.3430
 8663SOL     OW30835   4.135   3.046   9.030  0.1749 -0.0076  0.1876
 8663SOL    HW130836   4.194   3.054   8.955  0.3159  2.2938  0.4842
 8663SOL    HW230837   4.056   3.006   8.995  1.5306 -2.1802 -0.4278
 8664SOL     OW30838   1.294   5.292   6.856 -0.0302 -0.1285  0.2327
 8664SOL    HW130839   1.237   5.259   6.925 -1.3921 -1.5390 -1.5175
 8664SOL    HW230840   1.300   5.220   6.793  1.9817  0.7643 -0.6597
 8665SOL     OW30841   2.691   5.368   7.191 -0.2512 -0.4369  0.6595
 8665SOL    HW130842   2.768   5.402   7.238  0.3828 -1.0383  0.0707
 8665SOL    HW230843   2.629   5.441   7.192  0.2287 -0.0191  1.3498
 8666SOL     OW30844   2.048   4.490   7.647 -0.7836 -0.0901 -0.3103
 8666SOL    HW130845   2.055   4.417   7.586 -1.5287 -0.5234  0.1248
 8666SOL    HW230846   2.025   4.450   7.731  0.9958  0.4213  0.4559
 8667SOL     OW30847   2.895   2.839   9.419 -0.1355  0.3131 -0.0365
 8667SOL    HW130848   2.895   2.926   9.458  0.2008  0.1190  0.4049
 8667SOL    HW230849   2.985   2.808   9.431 -0.6917 -0.7797  1.3466
 8668SOL     OW30850   1.420   4.148   7.958  0.3161 -0.5399 -0.5358
 8668SOL    HW130851   1.389   4.228   7.916 -1.9187 -1.3997 -0.5641
 8668SOL    HW230852   1.382   4.077   7.907  1.0946 -1.6292  0.3638
 8669SOL     OW30853   1.619   7.617   6.915 -0.2987  0.1444 -0.7704
 8669SOL    HW130854   1.712   7.617   6.940 -0.3668  1.5781 -0.4821
 8669SOL    HW230855   1.576   7.668   6.984 -1.2771 -0.3275 -1.0235
 8670SOL     OW30856   2.413   4.052   6.951 -0.7022 -0.1095  0.2094
 8670SOL    HW130857   2.505   4.053   6.924 -0.6129 -1.4448  0.4111
 8670SOL    HW230858   2.365   4.023   6.874 -0.9504  0.4952  0.1331
 8671SOL     OW30859   0.592   3.215   7.094 -0.3791 -0.0435 -0.1160
 8671SOL    HW130860   0.667   3.225   7.153 -0.4262 -1.1463  0.1524
 8671SOL    HW230861   0.517   3.203   7.152 -0.2190 -2.5678 -0.3701
 8672SOL     OW30862   1.459   4.050   9.687  0.2665 -0.2967 -0.3399
 8672SOL    HW130863   1.424   4.133   9.719 -1.1353 -1.3600  0.9503
 8672SOL    HW230864   1.480   4.066   9.595  0.6148  1.6654  0.0633
 8673SOL     OW30865   3.044   5.512   7.873 -0.5874 -0.1701 -0.3374
 8673SOL    HW130866   3.019   5.576   7.806  0.2956  0.9411  0.3633
 8673SOL    HW230867   2.979   5.525   7.942 -1.1668 -0.9282 -0.7356
 8674SOL     OW30868   2.721   7.248   9.775  0.3469  0.8030 -0.1980
 8674SOL    HW130869   2.647   7.287   9.820  0.4019 -0.5427  1.0770
 8674SOL    HW230870   2.795   7.261   9.834  0.9463  1.3080 -1.0460
 8675SOL     OW30871   2.583   4.976   1.171 -0.0454 -0.5001  0.0696
 8675SOL    HW130872   2.632   4.981   1.089  1.0154  0.1471  0.7389
 8675SOL    HW230873   2.551   5.065   1.185  0.2430 -0.4870  0.6445
 8676SOL     OW30874   3.096   5.349   8.571  0.1863  0.2109  0.0456
 8676SOL    HW130875   3.131   5.337   8.483  0.1809  0.1262  0.0546
 8676SOL    HW230876   3.027   5.415   8.561 -0.5332 -0.5658 -0.2049
 8677SOL     OW30877   3.296   5.644   9.936 -0.0274 -0.0839 -0.3289
 8677SOL    HW130878   3.363   5.579   9.959  0.1249  0.2820  0.2590
 8677SOL    HW230879   3.273   5.622   9.846  0.2282 -0.7829 -0.2336
 8678SOL     OW30880   1.963   3.529   9.782 -0.1769 -0.2178 -0.3215
 8678SOL    HW130881   1.938   3.546   9.873 -0.9974 -0.7433 -0.4517
 8678SOL    HW230882   1.881   3.525   9.734  0.1966 -0.9925 -0.9144
 8679SOL     OW30883   3.509   4.998   9.317 -0.1883 -0.3902  0.1949
 8679SOL    HW130884   3.451   5.059   9.363  0.1084 -0.1584  0.2704
 8679SOL    HW230885   3.574   4.973   9.383 -0.4556 -0.9906  0.2377
 8680SOL     OW30886   1.981   3.799   0.311 -0.1607 -0.0418 -0.2333
 8680SOL    HW130887   1.908   3.770   0.257 -0.7895 -0.6055  0.9160
 8680SOL    HW230888   1.948   3.877   0.356 -0.4088 -0.8986  1.0767
 8681SOL     OW30889   6.398   2.069   8.815  0.2847  0.4912  0.3603
 8681SOL    HW130890   6.365   2.122   8.743  0.7742  0.4538  0.1045
 8681SOL    HW230891   6.451   2.131   8.867  0.5495  0.3395  0.2689
 8682SOL     OW30892   3.363   3.731   6.889 -0.1683  0.5306 -0.0858
 8682SOL    HW130893   3.354   3.636   6.895  0.1104  0.3299 -2.3854
 8682SOL    HW230894   3.387   3.758   6.977 -4.0963 -1.0488  1.5523
 8683SOL     OW30895   3.071   3.159   9.873 -0.6543  0.8859 -0.0009
 8683SOL    HW130896   3.028   3.073   9.864 -1.8751  1.6559 -1.9182
 8683SOL    HW230897   3.035   3.196   9.953 -1.7779  0.5057 -0.3184
 8684SOL     OW30898   1.700   3.378   5.894 -0.0517 -0.3443 -0.3930
 8684SOL    HW130899   1.652   3.461   5.897 -0.4435 -0.6202  1.3478
 8684SOL    HW230900   1.658   3.323   5.960  0.5754 -1.7348 -1.1333
 8685SOL     OW30901   0.995   4.499   8.971 -0.1624 -0.4474  0.2469
 8685SOL    HW130902   0.924   4.479   9.032  1.2315 -0.7848  1.7662
 8685SOL    HW230903   1.061   4.543   9.023  1.5831 -1.8099 -0.7277
 8686SOL     OW30904   2.504   6.246   6.959  0.8281  0.2963  0.1191
 8686SOL    HW130905   2.421   6.294   6.961 -0.0449 -1.1840  0.7970
 8686SOL    HW230906   2.478   6.154   6.968  2.3493 -0.4309 -2.3055
 8687SOL     OW30907   2.150   5.257   6.936  0.8504 -0.2561  0.3260
 8687SOL    HW130908   2.146   5.348   6.965  2.0106 -0.3778  0.8890
 8687SOL    HW230909   2.169   5.206   7.015 -0.4285 -1.0714  0.1370
 8688SOL     OW30910   3.843   3.323   8.708 -0.6156 -0.1149 -0.3444
 8688SOL    HW130911   3.862   3.230   8.694 -1.4275 -0.1961 -0.9042
 8688SOL    HW230912   3.754   3.325   8.743 -1.0848  0.5339 -1.5378
 8689SOL     OW30913   3.616   4.209   9.393  0.1700  0.0448  0.0342
 8689SOL    HW130914   3.692   4.241   9.345  0.1744  1.8673  1.2120
 8689SOL    HW230915   3.557   4.176   9.325  0.8870  1.0260 -1.0809
 8690SOL     OW30916   2.652   2.973   8.474  0.7991  0.2075 -0.1932
 8690SOL    HW130917   2.626   2.883   8.457  0.9343 -0.0629  0.9673
 8690SOL    HW230918   2.571   3.023   8.467  0.4485 -0.2287  0.6173
 8691SOL     OW30919   1.628   5.466   7.795  0.5800 -0.2613  0.2472
 8691SOL    HW130920   1.706   5.440   7.746 -0.2347  0.6874 -1.5974
 8691SOL    HW230921   1.577   5.518   7.733 -1.4954 -0.8140  1.4611
 8692SOL     OW30922   2.042   5.332   8.280  0.4827 -0.5357 -0.1455
 8692SOL    HW130923   1.984   5.258   8.261 -0.3239  0.2728 -0.8687
 8692SOL    HW230924   2.121   5.291   8.317 -0.0551 -1.7360 -0.2873
 8693SOL     OW30925   2.649   3.865   1.359  0.7449 -0.3514  0.5031
 8693SOL    HW130926   2.557   3.845   1.377  0.8917  0.9485  2.8376
 8693SOL    HW230927   2.649   3.957   1.332  1.3040 -0.4950 -0.0067
 8694SOL     OW30928   4.267   3.992   9.230  0.1370  0.6348  0.0104
 8694SOL    HW130929   4.206   4.022   9.297 -1.4291 -0.3224 -0.9373
 8694SOL    HW230930   4.269   4.062   9.165 -0.6539  0.2999 -0.3851
 8695SOL     OW30931   2.976   5.037   7.656  0.5618  0.6948 -0.4944
 8695SOL    HW130932   2.981   5.013   7.749 -1.4000  2.9556  0.2621
 8695SOL    HW230933   2.998   5.130   7.654 -0.4769  0.9219 -2.1541
 8696SOL     OW30934   4.506   3.769   0.206 -0.3026 -0.4544  0.3667
 8696SOL    HW130935   4.488   3.683   0.244 -3.2220 -0.6762 -1.3051
 8696SOL    HW230936   4.568   3.810   0.266 -0.6747 -2.8148  2.4350
 8697SOL     OW30937   1.806   3.271   8.831 -0.5699  0.2019 -0.1684
 8697SOL    HW130938   1.841   3.247   8.745 -1.2646 -0.1444 -0.3574
 8697SOL    HW230939   1.883   3.282   8.886 -0.0164  1.9429 -1.2229
 8698SOL     OW30940   2.947   4.945   8.611 -0.0340 -0.0501 -0.1752
 8698SOL    HW130941   2.865   4.916   8.651 -0.8089  1.4484 -0.6628
 8698SOL    HW230942   2.926   4.954   8.518  0.9542 -0.5789 -0.4620
 8699SOL     OW30943   1.756   4.823   6.820  0.0879 -0.2502 -0.0037
 8699SOL    HW130944   1.716   4.771   6.890  0.2378  0.3422  0.5285
 8699SOL    HW230945   1.787   4.902   6.864 -0.9204  0.6887 -0.9653
 8700SOL     OW30946   2.467   5.256   6.557 -0.0843  0.1824  0.4202
 8700SOL    HW130947   2.555   5.220   6.550 -0.4095 -0.5630  0.1526
 8700SOL    HW230948   2.427   5.208   6.630  0.1385  1.3811  1.3598
 8701SOL     OW30949   3.141   4.519   8.682 -0.2819  0.2812 -0.0819
 8701SOL    HW130950   3.226   4.558   8.659  0.2252 -2.0111 -2.2983
 8701SOL    HW230951   3.163   4.438   8.728 -1.2107 -1.5018 -2.7014
 8702SOL     OW30952   2.662   3.096   7.721  0.4921 -0.5148 -0.0669
 8702SOL    HW130953   2.626   3.064   7.638 -0.2704 -4.1636  1.5511
 8702SOL    HW230954   2.590   3.084   7.784  1.6210  0.5520  1.4714
 8703SOL     OW30955   2.119   3.362   6.234  0.9209  0.6649 -0.4298
 8703SOL    HW130956   2.078   3.293   6.285  0.3597 -0.4523 -2.3347
 8703SOL    HW230957   2.108   3.441   6.287 -2.3296  0.1056 -0.1973
 8704SOL     OW30958   2.332   4.895   7.462  0.1023  0.1970  0.4620
 8704SOL    HW130959   2.292   4.978   7.439  0.7331  0.0620 -1.1517
 8704SOL    HW230960   2.401   4.918   7.524  1.4707  1.1026 -1.3439
 8705SOL     OW30961   1.794   5.213   7.947 -0.3428 -0.4909 -0.1614
 8705SOL    HW130962   1.706   5.241   7.972 -0.1696 -1.8166  2.0539
 8705SOL    HW230963   1.843   5.295   7.936 -1.1962  0.2008  1.1034
 8706SOL     OW30964   1.363   3.914   6.959  0.0931 -0.3737  0.4120
 8706SOL    HW130965   1.456   3.893   6.965  0.1399 -0.0975  0.6227
 8706SOL    HW230966   1.319   3.837   6.997  0.2179 -0.6826 -0.0617
 8707SOL     OW30967   1.837   3.249   7.851 -0.6382  0.3646  0.5262
 8707SOL    HW130968   1.852   3.155   7.860 -0.5111  0.1267 -2.0044
 8707SOL    HW230969   1.744   3.257   7.832 -0.9173  0.8650  2.0124
 8708SOL     OW30970   2.900   5.769   7.790 -0.4862 -0.0534  0.2395
 8708SOL    HW130971   2.810   5.798   7.801 -1.2501 -1.4676 -1.9518
 8708SOL    HW230972   2.933   5.821   7.716  0.2372 -0.1522  0.4853
 8709SOL     OW30973   4.109   4.260   8.979  0.4832  0.0844  0.0115
 8709SOL    HW130974   4.051   4.329   8.946  0.1903 -0.2584 -0.1938
 8709SOL    HW230975   4.196   4.298   8.974  0.2222  0.8304  0.8861
 8710SOL     OW30976   2.465   5.108   7.243 -0.0097 -0.4353  0.2787
 8710SOL    HW130977   2.384   5.158   7.244  0.9611  1.1767  0.0912
 8710SOL    HW230978   2.438   5.017   7.229 -1.7856  0.0478  0.5448
 8711SOL     OW30979   2.103   3.026   8.503  0.1122 -0.5722 -0.0365
 8711SOL    HW130980   2.144   3.004   8.586  2.8360 -0.9344 -1.4081
 8711SOL    HW230981   2.050   2.949   8.481  2.8437 -2.3363 -0.6940
 8712SOL     OW30982   1.299   4.291   6.730  0.1084 -0.0647 -0.0907
 8712SOL    HW130983   1.360   4.299   6.804  1.0975 -2.6268 -0.5897
 8712SOL    HW230984   1.281   4.197   6.723 -2.6640  0.4838 -0.9784
 8713SOL     OW30985   1.732   4.575   8.004 -0.4291  0.1799 -0.8436
 8713SOL    HW130986   1.768   4.501   8.053  1.3213  1.9054  0.6024
 8713SOL    HW230987   1.783   4.578   7.923 -0.4095 -0.1181 -0.8408
 8714SOL     OW30988   0.695   2.917   8.000 -0.2374  0.0022  0.0153
 8714SOL    HW130989   0.763   2.922   7.933 -0.8368  0.6901 -0.5416
 8714SOL    HW230990   0.643   2.841   7.976 -0.2066  0.0047 -0.0580
 8715SOL     OW30991   3.328   3.418   8.953 -0.1913 -0.1032  0.1651
 8715SOL    HW130992   3.260   3.483   8.934  0.1161  0.7782  1.9608
 8715SOL    HW230993   3.399   3.469   8.993 -0.3332 -1.6445  2.5114
 8716SOL     OW30994   3.113   4.620   0.144 -0.4091 -0.3450  0.3533
 8716SOL    HW130995   3.050   4.610   0.073 -0.7795  0.1861  0.6040
 8716SOL    HW230996   3.139   4.531   0.165 -1.2269 -0.5863  0.3743
 8717SOL     OW30997   2.307   5.323   8.152 -0.2825 -0.6281 -0.0319
 8717SOL    HW130998   2.277   5.274   8.228  2.7450  0.4724  1.9476
 8717SOL    HW230999   2.277   5.413   8.168 -0.0757 -0.4944 -0.3744
 8718SOL     OW31000   0.967   4.274   9.588  0.2986  0.9344 -0.5386
 8718SOL    HW131001   1.012   4.355   9.563  1.6059  0.4470  0.2182
 8718SOL    HW231002   1.017   4.205   9.545  0.1651  0.3984  0.1689
 8719SOL     OW31003   2.212   6.278   7.761 -0.4133  0.2132  0.0436
 8719SOL    HW131004   2.166   6.233   7.832 -0.8021 -0.0878 -0.3914
 8719SOL    HW231005   2.254   6.209   7.711 -0.8581  0.3395 -0.5184
 8720SOL     OW31006   2.982   4.007   7.975 -0.3463 -0.1978 -0.5428
 8720SOL    HW131007   3.008   3.915   7.979 -1.0252 -0.3450  0.8354
 8720SOL    HW231008   3.021   4.039   7.893  1.1088 -1.3233 -0.3149
 8721SOL     OW31009   1.052   4.552   9.538  0.3755 -0.1767  0.1692
 8721SOL    HW131010   0.987   4.607   9.494  1.2403  0.5524 -0.2062
 8721SOL    HW231011   1.127   4.552   9.479  0.8142 -0.8196  0.7186
 8722SOL     OW31012   3.001   3.953   9.978  0.5805  0.0474 -0.6412
 8722SOL    HW131013   3.077   3.906   9.944  1.0670  1.3677 -1.4525
 8722SOL    HW231014   2.935   3.946   9.909 -0.0196 -1.0335  0.0312
 8723SOL     OW31015   0.934   4.185   7.780 -0.4323  0.2876  0.7064
 8723SOL    HW131016   0.994   4.111   7.770 -0.9543 -0.0164 -0.2181
 8723SOL    HW231017   0.975   4.240   7.848  2.1823  1.3535 -1.6144
 8724SOL     OW31018   0.515   2.678   7.865 -0.2804 -0.2856 -0.0091
 8724SOL    HW131019   0.426   2.656   7.890  0.1952 -3.8790 -1.2427
 8724SOL    HW231020   0.510   2.702   7.773  0.0328 -0.7057 -0.1406
 8725SOL     OW31021   3.979   5.083   9.498  0.2676 -0.5903  0.7846
 8725SOL    HW131022   3.959   5.160   9.445  3.0573 -1.1799 -1.2422
 8725SOL    HW231023   3.894   5.042   9.514 -0.9624  1.4076 -0.4517
 8726SOL     OW31024   2.475   5.010   7.979  0.3019 -0.0040  1.0692
 8726SOL    HW131025   2.414   4.976   8.044 -0.3728 -0.7497  0.0707
 8726SOL    HW231026   2.444   5.098   7.959  0.8635  0.4544  2.1809
 8727SOL     OW31027   4.078   5.629   8.674  0.5160  0.5952 -0.0833
 8727SOL    HW131028   4.075   5.655   8.766  0.6224 -1.6384  0.5775
 8727SOL    HW231029   4.158   5.668   8.640  1.7434 -0.6009  1.4096
 8728SOL     OW31030   2.262   6.711   6.912 -0.0567  0.0235 -0.4467
 8728SOL    HW131031   2.181   6.761   6.905 -0.0166 -0.0409 -1.3762
 8728SOL    HW231032   2.235   6.623   6.937 -0.2786 -0.0326 -0.8924
 8729SOL     OW31033   2.523   4.578   8.794  0.2042 -0.0390  0.7455
 8729SOL    HW131034   2.429   4.570   8.810 -0.4394 -0.6884 -2.9120
 8729SOL    HW231035   2.550   4.653   8.846 -2.7553  1.3619  0.3615
 8730SOL     OW31036   3.363   4.227   9.218 -0.3154 -0.0775  0.7722
 8730SOL    HW131037   3.367   4.158   9.152 -1.6199 -0.5085  1.1370
 8730SOL    HW231038   3.421   4.296   9.184 -0.9662 -0.2935 -0.8149
 8731SOL     OW31039   2.264   2.775   9.643 -0.3482  0.0953  0.5251
 8731SOL    HW131040   2.261   2.735   9.730  0.7711 -1.4642 -0.1128
 8731SOL    HW231041   2.287   2.866   9.658 -0.0495 -0.1965  1.8602
 8732SOL     OW31042   0.525   4.150   8.677 -0.5737 -0.2367  0.6016
 8732SOL    HW131043   0.452   4.182   8.731 -0.9822  0.5506 -0.4034
 8732SOL    HW231044   0.600   4.203   8.706 -0.5924 -0.4359  1.0209
 8733SOL     OW31045   2.384   6.579   9.209  0.0326  0.1169  0.2382
 8733SOL    HW131046   2.369   6.521   9.135 -0.6510 -0.9539  1.2037
 8733SOL    HW231047   2.478   6.596   9.208  0.0158  0.1793 -0.9116
 8734SOL     OW31048   3.676   6.370   9.757  0.0435  0.2531 -0.5464
 8734SOL    HW131049   3.605   6.433   9.743 -0.6684 -0.5226 -0.4847
 8734SOL    HW231050   3.687   6.327   9.672 -1.8458 -1.9506  0.2445
 8735SOL     OW31051   2.202   3.369   7.242 -0.0925 -0.2385 -0.7252
 8735SOL    HW131052   2.209   3.461   7.218  1.8845  0.4839  2.3990
 8735SOL    HW231053   2.224   3.322   7.162  1.1508  2.0281 -1.7679
 8736SOL     OW31054   2.611   3.711   9.483  0.2213  0.1642 -0.3433
 8736SOL    HW131055   2.582   3.664   9.561 -0.5388  0.8997 -0.1785
 8736SOL    HW231056   2.576   3.659   9.410 -0.0914  0.1295 -0.1727
 8737SOL     OW31057   2.413   3.805   9.223 -0.4042 -0.1826 -0.4157
 8737SOL    HW131058   2.420   3.766   9.136  0.4698 -0.2839 -0.3021
 8737SOL    HW231059   2.406   3.731   9.283 -1.0219 -0.1130 -0.3922
 8738SOL     OW31060   4.352   4.829   0.804 -0.2313  0.0613  0.4615
 8738SOL    HW131061   4.359   4.823   0.899 -0.5814 -2.2773  0.3497
 8738SOL    HW231062   4.441   4.847   0.774 -0.2418  1.5619  1.2539
 8739SOL     OW31063   3.195   6.906   9.373  0.4892  0.5693  0.1329
 8739SOL    HW131064   3.196   6.891   9.468 -0.2435  1.9320  0.3611
 8739SOL    HW231065   3.185   6.818   9.335  2.8788 -0.2245  1.2366
 8740SOL     OW31066   2.193   4.423   8.675 -0.0080 -0.4675  0.2623
 8740SOL    HW131067   2.109   4.423   8.629  0.0739 -0.1024  0.1097
 8740SOL    HW231068   2.195   4.506   8.721 -1.1317 -1.8378  2.8573
 8741SOL     OW31069   3.189   4.078   8.408 -0.1184 -0.0349  0.3399
 8741SOL    HW131070   3.134   4.154   8.386 -0.3429 -0.8983 -2.2280
 8741SOL    HW231071   3.273   4.116   8.434 -1.0226  1.1809  1.5796
 8742SOL     OW31072   2.625   6.090   7.992 -0.4313 -0.2262  0.2015
 8742SOL    HW131073   2.638   6.183   7.973 -1.9313 -0.2814 -1.1650
 8742SOL    HW231074   2.695   6.068   8.054  0.4316  1.6032 -0.1033
 8743SOL     OW31075   0.744   6.173   8.403  0.5472  0.3182 -0.2002
 8743SOL    HW131076   0.689   6.145   8.330  1.4888 -0.0687 -0.7700
 8743SOL    HW231077   0.732   6.105   8.469 -1.1005  1.1904  0.4273
 8744SOL     OW31078   2.871   3.424   7.493 -0.4947 -0.3817 -0.0937
 8744SOL    HW131079   2.792   3.377   7.518 -0.6512 -0.1645 -0.1809
 8744SOL    HW231080   2.882   3.492   7.560  0.0681 -0.9254  0.3712
 8745SOL     OW31081   2.644   5.851   7.786 -0.0486 -0.3572  0.3352
 8745SOL    HW131082   2.588   5.928   7.789  0.1765 -0.1755 -0.0968
 8745SOL    HW231083   2.583   5.778   7.775 -0.2471 -0.2234  0.5385
 8746SOL     OW31084   1.921   5.705   8.608 -0.1786 -0.2872 -0.1470
 8746SOL    HW131085   1.882   5.653   8.537 -0.4905 -0.5064  0.1786
 8746SOL    HW231086   1.847   5.722   8.667  0.4832 -1.8677  1.1739
 8747SOL     OW31087   4.331   3.071   6.766  0.0363 -0.3626  1.1083
 8747SOL    HW131088   4.281   2.989   6.758 -1.7056  0.7450  0.3191
 8747SOL    HW231089   4.267   3.136   6.795  0.6641  1.4310 -1.3639
 8748SOL     OW31090   1.624   6.330   0.164 -0.9571  0.2597  0.2362
 8748SOL    HW131091   1.639   6.253   0.108 -2.9351 -0.0813  0.1233
 8748SOL    HW231092   1.689   6.394   0.135 -0.5873 -0.6689 -1.0307
 8749SOL     OW31093   0.745   5.536   9.986 -0.1051 -0.2831 -0.0153
 8749SOL    HW131094   0.780   5.520   9.898 -1.4495  0.1364 -0.6244
 8749SOL    HW231095   0.722   5.448  10.018  0.2086 -0.4164 -0.1501
 8750SOL     OW31096   3.084   5.071   8.292  0.0487  0.3672 -0.2183
 8750SOL    HW131097   3.051   4.986   8.265 -1.3622 -0.0580  2.6264
 8750SOL    HW231098   3.040   5.134   8.235 -2.2612 -0.5377  0.5153
 8751SOL     OW31099   1.691   3.426   0.033  0.1784  0.1258 -0.0998
 8751SOL    HW131100   1.626   3.421  -0.038 -0.3403  0.2541  0.3658
 8751SOL    HW231101   1.668   3.355   0.092 -1.3018  1.9110  1.5457
 8752SOL     OW31102   3.573   4.160   0.257 -0.1796 -0.1920 -0.2376
 8752SOL    HW131103   3.536   4.202   0.335 -1.1707 -0.4992 -0.5345
 8752SOL    HW231104   3.502   4.105   0.224  0.0580  0.3667 -1.6814
 8753SOL     OW31105   2.393   4.083   9.423 -0.0631  0.0713 -0.0453
 8753SOL    HW131106   2.481   4.109   9.393 -0.2060 -0.7052 -1.1564
 8753SOL    HW231107   2.336   4.154   9.394 -0.0173 -0.1129 -0.5942
 8754SOL     OW31108   0.965   4.863   6.950  0.0381  0.0120  0.5826
 8754SOL    HW131109   0.960   4.925   7.023  0.4651 -0.0981  0.7052
 8754SOL    HW231110   0.874   4.852   6.922 -0.1644 -0.2097  1.3167
 8755SOL     OW31111   2.329   3.765   6.795  0.2870  0.6393  0.0129
 8755SOL    HW131112   2.399   3.744   6.733 -0.5799  2.7897 -1.7586
 8755SOL    HW231113   2.285   3.682   6.812  1.0936 -0.1217 -1.5758
 8756SOL     OW31114   1.151   5.813   8.108 -1.1436  0.0795 -0.4472
 8756SOL    HW131115   1.118   5.750   8.044 -2.7707 -1.5975  1.9457
 8756SOL    HW231116   1.072   5.855   8.142 -0.4896 -0.6760  2.0678
 8757SOL     OW31117   2.622   5.097   9.855 -0.1765  0.9098  0.4673
 8757SOL    HW131118   2.682   5.108   9.782 -0.3443  0.8776  0.3243
 8757SOL    HW231119   2.661   5.147   9.927 -0.3328  1.4529  0.1729
 8758SOL     OW31120   3.892   4.337   9.233 -0.1814 -0.0307 -0.3792
 8758SOL    HW131121   3.881   4.422   9.275  0.1894  0.0393 -0.4159
 8758SOL    HW231122   3.856   4.349   9.145  0.4097  0.2672 -0.5879
 8759SOL     OW31123   0.146   1.207   8.230  0.1749 -0.0142  0.0704
 8759SOL    HW131124   0.158   1.118   8.197 -1.0613 -0.0065 -0.4189
 8759SOL    HW231125   0.105   1.254   8.157 -1.1159  0.4152  1.0653
 8760SOL     OW31126   3.400   3.831   9.695  0.1990  0.1383  0.0530
 8760SOL    HW131127   3.386   3.737   9.705  1.4989  0.2092  3.2738
 8760SOL    HW231128   3.406   3.864   9.785  0.8927  3.1153 -1.0180
 8761SOL     OW31129   2.039   4.850   7.618  0.3788  0.3979  0.0866
 8761SOL    HW131130   2.025   4.918   7.684 -1.7491  0.2178 -0.1336
 8761SOL    HW231131   1.980   4.874   7.546  0.2123 -1.2195 -0.3358
 8762SOL     OW31132   1.662   4.549   8.920  0.2848  0.2760  0.0244
 8762SOL    HW131133   1.708   4.506   8.847 -0.1190  0.6833 -0.4731
 8762SOL    HW231134   1.626   4.477   8.972  0.3484 -0.0090 -0.3255
 8763SOL     OW31135   2.658   4.881   8.685  0.2874  0.1751  0.0865
 8763SOL    HW131136   2.568   4.914   8.683  0.3559  0.3238 -0.7105
 8763SOL    HW231137   2.671   4.841   8.599  0.5294 -1.0644  0.6978
 8764SOL     OW31138   3.059   4.793   9.506  0.4989  0.3648 -0.5475
 8764SOL    HW131139   2.973   4.790   9.464 -0.5639 -1.6873  1.6232
 8764SOL    HW231140   3.120   4.811   9.435 -1.6570  1.2544 -2.2314
 8765SOL     OW31141   2.707   2.606   8.116  0.6285 -0.3747  0.0110
 8765SOL    HW131142   2.782   2.638   8.167 -0.1924 -0.0793  1.0595
 8765SOL    HW231143   2.661   2.685   8.089  0.6696 -0.5580 -0.5981
 8766SOL     OW31144   2.900   2.596   7.531  0.0086  0.3033  0.0537
 8766SOL    HW131145   2.970   2.649   7.492 -0.7814  0.4421 -1.1822
 8766SOL    HW231146   2.856   2.556   7.456 -0.5198 -0.6908  0.8932
 8767SOL     OW31147   2.726   6.153   9.768  0.0086 -0.5002 -0.1967
 8767SOL    HW131148   2.740   6.231   9.822  0.3958 -2.1194  2.1221
 8767SOL    HW231149   2.631   6.138   9.772  0.0215 -0.5486 -0.0803
 8768SOL     OW31150   1.425   4.954   9.092  0.1245  0.6832  0.0932
 8768SOL    HW131151   1.447   4.885   9.029 -0.8773  1.2582 -0.8873
 8768SOL    HW231152   1.333   4.975   9.075  0.4542  2.3598  0.3035
 8769SOL     OW31153   3.190   2.482   7.924  0.2984  0.0861  0.0801
 8769SOL    HW131154   3.125   2.508   7.859 -2.4363 -0.0763  2.6325
 8769SOL    HW231155   3.193   2.387   7.919  0.1176  0.0771  0.1373
 8770SOL     OW31156   1.457   4.520   1.093 -0.0717 -0.1609 -0.2553
 8770SOL    HW131157   1.471   4.512   1.187 -1.5163 -1.9054 -0.1675
 8770SOL    HW231158   1.526   4.467   1.054 -0.2867 -0.5185 -0.1464
 8771SOL     OW31159   1.825   3.230   9.644 -0.1210  0.7267 -0.2472
 8771SOL    HW131160   1.827   3.311   9.592 -2.8599  0.2250 -1.2575
 8771SOL    HW231161   1.735   3.226   9.677  0.6345 -0.7393  1.7292
 8772SOL     OW31162   1.827   3.746   8.150  0.0710 -0.8842  0.1777
 8772SOL    HW131163   1.806   3.725   8.241  0.1537  0.8537  0.6218
 8772SOL    HW231164   1.845   3.840   8.151  1.7455 -1.1594 -1.3309
 8773SOL     OW31165   0.958   4.624   7.641  0.0779  0.3796  0.3580
 8773SOL    HW131166   1.023   4.555   7.655  0.6156  1.0085  0.9921
 8773SOL    HW231167   1.009   4.701   7.615 -0.4948  0.6110 -0.0919
 8774SOL     OW31168   1.791   4.032   9.712  0.0950  0.6648  0.2278
 8774SOL    HW131169   1.878   3.992   9.720 -0.5738 -0.9736 -0.4353
 8774SOL    HW231170   1.776   4.035   9.617 -0.7155  0.6362  0.3567
 8775SOL     OW31171   2.371   4.463   9.710  0.7767  0.0878  0.1928
 8775SOL    HW131172   2.414   4.378   9.718 -0.9682 -0.6965  1.6762
 8775SOL    HW231173   2.417   4.520   9.771  1.5802  0.0622 -0.3836
 8776SOL     OW31174   3.283   3.185   7.733 -0.1583 -0.2543 -0.1374
 8776SOL    HW131175   3.357   3.203   7.791  1.2928  0.6095 -2.1797
 8776SOL    HW231176   3.288   3.253   7.665 -3.0290  0.0125 -0.1677
 8777SOL     OW31177   1.369   4.340   7.771  0.4974 -0.6851 -0.0932
 8777SOL    HW131178   1.443   4.367   7.717  1.0238 -0.9660  0.4731
 8777SOL    HW231179   1.292   4.358   7.718  0.8802  1.1261 -0.0511
 8778SOL     OW31180   3.494   5.688   9.553  0.3403 -0.2212  0.4951
 8778SOL    HW131181   3.407   5.718   9.575  0.0933  0.2865 -1.0660
 8778SOL    HW231182   3.508   5.610   9.607 -0.4624  0.5705  1.8623
 8779SOL     OW31183   0.811   8.217   9.206 -0.0135 -0.8410  0.1307
 8779SOL    HW131184   0.718   8.228   9.223 -0.2870  0.4781 -1.9248
 8779SOL    HW231185   0.853   8.283   9.261 -0.2839 -1.4534  1.0781
 8780SOL     OW31186   2.875   5.325   0.995  0.2975  0.1974 -0.7981
 8780SOL    HW131187   2.945   5.379   0.959  1.3043 -1.3301 -1.1829
 8780SOL    HW231188   2.903   5.235   0.978 -0.1339 -0.5239  2.1264
 8781SOL     OW31189   2.165   5.304   8.623  0.5387 -0.3488  0.1235
 8781SOL    HW131190   2.141   5.390   8.658  0.8783  0.1874 -0.9301
 8781SOL    HW231191   2.086   5.251   8.632  0.1590  0.2418  0.2847
 8782SOL     OW31192   2.564   2.468   7.693 -0.0005  0.6724  0.5489
 8782SOL    HW131193   2.616   2.405   7.742 -1.4931  0.0557  1.3549
 8782SOL    HW231194   2.573   2.440   7.602  1.2224  0.6915  0.6555
 8783SOL     OW31195   2.642   2.734   6.840  0.1081 -0.1153  0.0454
 8783SOL    HW131196   2.597   2.649   6.844  0.2831 -0.1936  0.4190
 8783SOL    HW231197   2.596   2.789   6.903 -1.8281  0.9726 -2.2272
 8784SOL     OW31198   4.559   3.833   8.830 -0.1112  0.3238  0.1743
 8784SOL    HW131199   4.583   3.740   8.835 -0.2344  0.2639 -0.3895
 8784SOL    HW231200   4.548   3.860   8.922  0.9080  0.0361  0.3859
 8785SOL     OW31201   3.350   5.177   9.435 -0.4073  0.2396  0.7040
 8785SOL    HW131202   3.356   5.272   9.446 -0.1703  0.3019  0.0593
 8785SOL    HW231203   3.276   5.164   9.376  1.0336  0.1706 -1.1322
 8786SOL     OW31204   5.004   4.765   9.304  0.1351  0.0995  0.2151
 8786SOL    HW131205   5.068   4.733   9.368 -0.0723 -1.5647 -0.3900
 8786SOL    HW231206   5.050   4.834   9.256 -0.3726  2.9124  3.5393
 8787SOL     OW31207   1.821   5.641   8.933  0.2262  0.3016 -0.6237
 8787SOL    HW131208   1.829   5.618   9.026  0.9167 -2.9845 -1.4304
 8787SOL    HW231209   1.834   5.736   8.930  4.2579 -0.0506  2.1985
 8788SOL     OW31210   1.346   4.796   9.552  0.2048  0.1698  0.5507
 8788SOL    HW131211   1.323   4.723   9.495  0.4358  0.1804  0.4386
 8788SOL    HW231212   1.265   4.846   9.561  0.4674  0.8739 -0.8281
 8789SOL     OW31213   2.943   7.652   8.977  0.6120 -0.4034  0.1680
 8789SOL    HW131214   2.864   7.667   9.029 -0.2186 -0.4229 -1.0736
 8789SOL    HW231215   2.998   7.728   8.996 -0.9233  1.1040 -1.1792
 8790SOL     OW31216   1.751   2.831   8.860 -0.0567 -0.6713  0.1695
 8790SOL    HW131217   1.761   2.738   8.842  0.0475 -0.1078 -3.1882
 8790SOL    HW231218   1.693   2.863   8.790  0.3314  1.8499  0.9328
 8791SOL     OW31219   4.545   6.034   8.367 -0.1006 -0.1419 -0.1054
 8791SOL    HW131220   4.453   6.039   8.393 -0.9656 -2.9753 -2.3317
 8791SOL    HW231221   4.578   5.954   8.409  0.8447 -0.1370 -0.8056
 8792SOL     OW31222   1.130   5.564   8.619 -0.2724  0.4789  0.5257
 8792SOL    HW131223   1.188   5.641   8.617 -0.2447  0.4253 -1.9599
 8792SOL    HW231224   1.188   5.491   8.641 -0.0060  0.9014  1.2721
 8793SOL     OW31225   3.227   2.997   9.191  0.6332 -0.1316  0.1623
 8793SOL    HW131226   3.154   2.942   9.161  0.9725 -2.2477  3.0543
 8793SOL    HW231227   3.292   2.935   9.224  2.1142  1.9077  1.1614
 8794SOL     OW31228   3.155   4.845   1.428 -0.2303 -0.1520  0.2085
 8794SOL    HW131229   3.192   4.792   1.356 -0.4139 -0.0633  0.0494
 8794SOL    HW231230   3.199   4.929   1.421  0.6979 -0.5604  0.9945
 8795SOL     OW31231   2.184   5.035   7.107 -0.0953  0.3891 -0.3397
 8795SOL    HW131232   2.158   5.064   7.195  0.3528 -1.3010  0.3638
 8795SOL    HW231233   2.244   4.962   7.122 -0.5161 -0.3434 -2.0548
 8796SOL     OW31234   2.238   3.774   8.598  0.2239 -0.9503  0.2586
 8796SOL    HW131235   2.291   3.710   8.550  0.3670 -0.4033 -0.3290
 8796SOL    HW231236   2.179   3.810   8.532 -0.1710 -0.8153  0.6862
 8797SOL     OW31237   2.390   3.539   9.253  0.4668  1.0092 -1.1835
 8797SOL    HW131238   2.343   3.504   9.178  0.1043 -0.0113 -0.4950
 8797SOL    HW231239   2.396   3.465   9.314  2.5613  1.2553 -1.0639
 8798SOL     OW31240   0.692   3.943   8.445 -0.7643 -0.2916 -0.5156
 8798SOL    HW131241   0.644   3.885   8.503 -0.7908  1.3430  1.1319
 8798SOL    HW231242   0.773   3.962   8.492 -0.4954  0.5325 -1.2994
 8799SOL     OW31243   6.636   5.476   7.975 -0.1359  0.2509  0.1260
 8799SOL    HW131244   6.709   5.526   7.938 -0.2287  0.0900 -0.2690
 8799SOL    HW231245   6.676   5.393   8.000  0.4912  1.2791  2.7341
 8800SOL     OW31246   4.169   3.442   9.802  0.0332  0.3051 -0.1381
 8800SOL    HW131247   4.195   3.506   9.735  1.5058 -0.3609 -0.2263
 8800SOL    HW231248   4.077   3.424   9.783  0.3348  0.3853 -1.7743
 8801SOL     OW31249   2.195   3.740   8.203  0.7958  0.3301  0.4672
 8801SOL    HW131250   2.286   3.766   8.219  1.0226 -1.4984  2.3139
 8801SOL    HW231251   2.149   3.765   8.284 -0.0479 -0.1023  0.1207
 8802SOL     OW31252   5.218   6.877   8.608 -0.9401  0.3630 -0.3008
 8802SOL    HW131253   5.232   6.934   8.684 -0.3182 -1.4982  1.0393
 8802SOL    HW231254   5.136   6.907   8.570 -0.0947  2.8350 -0.2880
 8803SOL     OW31255   2.927   5.553   8.531  0.5929  0.2612 -0.2898
 8803SOL    HW131256   2.974   5.603   8.465  0.7448  1.5051  0.7341
 8803SOL    HW231257   2.838   5.587   8.529  0.6252  0.3847  0.2078
 8804SOL     OW31258   1.877   4.063   0.299  0.0920  0.0031  0.2897
 8804SOL    HW131259   1.901   4.068   0.207  0.0536  1.2731  0.3371
 8804SOL    HW231260   1.816   4.136   0.312  0.5373  0.1863  1.4444
 8805SOL     OW31261   1.638   3.440   7.489  0.0047 -0.7484  0.2726
 8805SOL    HW131262   1.550   3.453   7.524 -0.1144 -2.3736  0.6015
 8805SOL    HW231263   1.665   3.527   7.458 -1.3407 -0.0614  1.0186
 8806SOL     OW31264   2.445   5.020   2.372 -0.3001  0.0000 -0.2283
 8806SOL    HW131265   2.510   5.059   2.430  0.3903 -1.4460 -0.0120
 8806SOL    HW231266   2.454   4.926   2.385 -1.6883 -0.2591 -1.0153
 8807SOL     OW31267   2.380   6.208   6.442 -0.1757 -0.8181 -0.2946
 8807SOL    HW131268   2.301   6.247   6.404  0.5866  0.4376 -0.6005
 8807SOL    HW231269   2.373   6.115   6.420 -1.1149 -0.5656 -1.1078
 8808SOL     OW31270   2.556   2.846   9.267  0.0956  0.0854 -0.3011
 8808SOL    HW131271   2.573   2.764   9.313 -1.7172 -1.7000 -2.7238
 8808SOL    HW231272   2.507   2.899   9.330  3.1774  0.2670  2.0812
 8809SOL     OW31273   1.522   4.045   6.750 -0.1981  0.5044  0.5412
 8809SOL    HW131274   1.470   3.965   6.744 -0.1754  0.4762  0.7210
 8809SOL    HW231275   1.510   4.087   6.664 -0.0766  0.2304  0.3876
 8810SOL     OW31276   2.823   2.908   9.152  0.6438  0.0926  0.3938
 8810SOL    HW131277   2.855   2.880   9.238  1.9341 -0.1661 -0.1670
 8810SOL    HW231278   2.728   2.902   9.159  0.7126  0.5645  1.9770
 8811SOL     OW31279   1.331   3.455   0.116 -0.3623 -0.5616 -0.3665
 8811SOL    HW131280   1.394   3.409   0.061 -0.8614 -0.8909 -0.6607
 8811SOL    HW231281   1.369   3.451   0.204  0.7157  0.4604 -0.7657
 8812SOL     OW31282   3.089   3.518   9.129  0.0385 -0.9303  0.1380
 8812SOL    HW131283   3.018   3.483   9.182 -1.0001 -1.0139 -1.2754
 8812SOL    HW231284   3.053   3.521   9.040  1.6646 -0.5898 -0.5245
 8813SOL     OW31285   1.332   3.687   9.054  0.1857 -0.3094 -0.0665
 8813SOL    HW131286   1.249   3.735   9.041  0.8538  1.1203  0.8712
 8813SOL    HW231287   1.351   3.651   8.967 -0.8025  0.3781 -0.5931
 8814SOL     OW31288   1.722   4.155   8.551  0.6379  0.7784 -1.0346
 8814SOL    HW131289   1.670   4.076   8.535  0.7045  0.6094 -0.4163
 8814SOL    HW231290   1.659   4.226   8.553  0.4405  0.5897 -0.4197
 8815SOL     OW31291   1.459   4.796   7.748  0.0189 -0.2433 -0.3887
 8815SOL    HW131292   1.526   4.770   7.685 -0.8893  0.0925 -1.5085
 8815SOL    HW231293   1.508   4.827   7.824  1.1156 -1.8073 -0.4489
 8816SOL     OW31294   2.695   6.405   8.510 -0.3909 -0.0651 -0.2163
 8816SOL    HW131295   2.698   6.390   8.415  0.8057 -0.2868 -0.1555
 8816SOL    HW231296   2.678   6.318   8.547 -0.1647 -0.1020 -0.1980
 8817SOL     OW31297   2.346   5.624   8.463 -0.0518 -0.0097 -0.0622
 8817SOL    HW131298   2.315   5.615   8.373  0.1152 -0.4844 -0.0762
 8817SOL    HW231299   2.300   5.700   8.497  2.1345  1.9990 -1.4719
 8818SOL     OW31300   1.789   4.362   8.144  0.3653 -0.4583  0.5112
 8818SOL    HW131301   1.864   4.306   8.167 -0.8528 -0.7898  3.9704
 8818SOL    HW231302   1.712   4.312   8.171 -0.9141  1.3979  0.3931
 8819SOL     OW31303   2.771   3.416   9.990 -0.1279 -0.1072  0.3817
 8819SOL    HW131304   2.711   3.346  10.014  0.1171 -0.2804  0.4928
 8819SOL    HW231305   2.857   3.385  10.019  0.0296  0.0966  0.1354
 8820SOL     OW31306   1.872   5.952   9.810  0.5966  0.1274 -0.1560
 8820SOL    HW131307   1.835   5.939   9.722  1.9856  0.7042 -0.8371
 8820SOL    HW231308   1.831   5.884   9.863 -1.4850  0.7542 -0.8732
 8821SOL     OW31309   3.331   3.909   7.879  0.0787  0.7193  0.0300
 8821SOL    HW131310   3.316   3.872   7.966 -0.4552  1.5171  0.2748
 8821SOL    HW231311   3.333   3.833   7.821  0.4604  0.1823  0.7373
 8822SOL     OW31312   2.464   3.736   8.284  0.0440  0.4739  0.1803
 8822SOL    HW131313   2.554   3.751   8.314  0.2593  0.2327 -0.3397
 8822SOL    HW231314   2.461   3.642   8.263  0.2762  0.8944 -1.8052
 8823SOL     OW31315   1.508   5.104   7.862  0.4061  0.2529 -0.1576
 8823SOL    HW131316   1.437   5.168   7.869 -0.8696 -1.1807  0.4816
 8823SOL    HW231317   1.516   5.067   7.950  1.7753  0.2291 -0.2907
 8824SOL     OW31318   3.875   3.241   7.345 -0.6046  0.0321 -0.0413
 8824SOL    HW131319   3.831   3.192   7.415 -1.3950  0.7773  0.0083
 8824SOL    HW231320   3.964   3.206   7.342 -0.4824  0.1794  1.5249
 8825SOL     OW31321   3.035   4.887   7.382  0.2175  0.1920  0.4708
 8825SOL    HW131322   3.046   4.901   7.476  0.3912 -0.2140  0.5101
 8825SOL    HW231323   3.003   4.798   7.374  1.9542 -0.4139  0.0389
 8826SOL     OW31324   5.022   5.541   8.783  0.0764 -0.1935  0.3585
 8826SOL    HW131325   5.006   5.621   8.734 -0.3251 -1.3928 -1.5215
 8826SOL    HW231326   5.117   5.540   8.797  0.5570 -1.0871 -2.6653
 8827SOL     OW31327   3.379   5.235   8.660  0.4318  0.0059  0.0799
 8827SOL    HW131328   3.309   5.299   8.671  0.4569  0.0888 -0.2490
 8827SOL    HW231329   3.335   5.158   8.624  0.7970  0.6505 -1.7695
 8828SOL     OW31330   3.491   4.451   9.067  0.0282 -0.0392 -0.5561
 8828SOL    HW131331   3.519   4.542   9.059 -1.6423  0.6606  1.2538
 8828SOL    HW231332   3.569   4.400   9.045  1.3169  1.8204 -0.4188
 8829SOL     OW31333   3.081   3.447   7.271  0.2281  0.0368  0.2781
 8829SOL    HW131334   3.011   3.411   7.325  2.7425 -2.1996  2.1513
 8829SOL    HW231335   3.110   3.524   7.319  1.4183 -1.0638  1.3445
 8830SOL     OW31336   3.107   4.045   7.728 -0.0798  0.0953 -0.9811
 8830SOL    HW131337   3.186   4.036   7.781 -0.6128 -1.2417 -0.4006
 8830SOL    HW231338   3.098   3.961   7.683 -1.6603 -0.1006 -0.3447
 8831SOL     OW31339   2.421   4.749   2.407 -0.2926 -0.1107 -0.4316
 8831SOL    HW131340   2.358   4.720   2.474 -1.2159 -0.6177 -1.5076
 8831SOL    HW231341   2.399   4.697   2.330  0.5029  0.7718 -1.2566
 8832SOL     OW31342   1.151   6.203   8.652 -0.2977 -0.2441 -0.1242
 8832SOL    HW131343   1.215   6.269   8.681 -0.0210  0.0647 -1.4169
 8832SOL    HW231344   1.128   6.156   8.732  0.9502  0.1651  0.4953
 8833SOL     OW31345   3.567   6.701   9.270  0.5203  0.1950  0.1942
 8833SOL    HW131346   3.551   6.657   9.353 -1.4388  2.0316  0.8357
 8833SOL    HW231347   3.647   6.752   9.285  0.2393  0.4233  0.9328
 8834SOL     OW31348   1.895   3.749   7.263  0.0984 -0.0343  0.5742
 8834SOL    HW131349   1.836   3.808   7.215 -0.4715 -0.9957  0.0780
 8834SOL    HW231350   1.972   3.741   7.206  0.2994  0.4562  0.7746
 8835SOL     OW31351   1.105   2.848   8.491  0.3792 -0.0239 -0.2117
 8835SOL    HW131352   1.076   2.757   8.487  0.2306  0.0438 -0.6237
 8835SOL    HW231353   1.038   2.892   8.544  0.5220 -0.1786  0.1020
 8836SOL     OW31354   2.537   5.804   8.787 -0.0459  0.2439  0.2332
 8836SOL    HW131355   2.514   5.714   8.808  1.3168 -0.5712 -1.6879
 8836SOL    HW231356   2.455   5.853   8.800 -0.8443 -1.2675  1.0850
 8837SOL     OW31357   2.838   4.579   9.297 -0.0701 -0.3529  1.0146
 8837SOL    HW131358   2.747   4.560   9.318 -0.8676 -0.2957 -2.1872
 8837SOL    HW231359   2.855   4.663   9.339 -2.1445  0.6434 -0.0892
 8838SOL     OW31360   2.027   6.201   7.314  0.8606 -0.4187 -0.3971
 8838SOL    HW131361   2.014   6.241   7.400  1.3861  1.1759 -1.0242
 8838SOL    HW231362   1.939   6.201   7.274  0.9979  0.9860 -0.7351
 8839SOL     OW31363   4.109   3.328   7.596  0.3216  0.5740 -0.2018
 8839SOL    HW131364   4.127   3.282   7.678  0.9061  1.8253  0.3844
 8839SOL    HW231365   4.172   3.293   7.534  1.1809  1.0222  0.4103
 8840SOL     OW31366   3.531   4.007   9.173 -0.3973 -0.3163  0.3632
 8840SOL    HW131367   3.468   3.964   9.116 -1.2410  0.3705  0.7663
 8840SOL    HW231368   3.557   3.940   9.237 -0.8405 -0.5495  0.2933
 8841SOL     OW31369   2.336   4.846   7.182 -0.1849  0.5658 -0.2185
 8841SOL    HW131370   2.314   4.811   7.268 -1.0094 -0.6692 -0.9056
 8841SOL    HW231371   2.367   4.769   7.133 -1.6440  0.8458 -1.6335
 8842SOL     OW31372   2.037   5.341   9.573 -0.3321 -0.6276  0.5038
 8842SOL    HW131373   2.028   5.307   9.662 -2.2959 -3.5892 -0.7448
 8842SOL    HW231374   2.103   5.284   9.533 -0.4582 -0.1900 -0.3260
 8843SOL     OW31375   2.445   2.496   5.296 -0.0522 -0.1557 -0.6238
 8843SOL    HW131376   2.528   2.543   5.309 -0.3488  0.3114 -0.4330
 8843SOL    HW231377   2.381   2.545   5.346 -0.2545 -1.1065  0.0689
 8844SOL     OW31378   0.988   5.108   0.154 -0.4776  0.1751  0.8247
 8844SOL    HW131379   1.001   5.065   0.239  1.6371 -1.5897 -0.3195
 8844SOL    HW231380   0.998   5.037   0.090 -1.2677  1.6202 -0.9391
 8845SOL     OW31381   2.775   4.091   8.866  0.3729 -0.8550  0.2083
 8845SOL    HW131382   2.858   4.061   8.902 -1.0586 -3.0735  1.8244
 8845SOL    HW231383   2.741   4.152   8.932  0.4213 -0.4171 -0.1685
 8846SOL     OW31384   2.620   4.837   7.776  0.1178  0.0477  0.0814
 8846SOL    HW131385   2.604   4.859   7.868  0.4383 -0.5438  0.2828
 8846SOL    HW231386   2.566   4.898   7.727 -1.7980 -1.0934  0.7285
 8847SOL     OW31387   0.945   3.851   9.714 -0.1875  0.2813  0.6203
 8847SOL    HW131388   0.889   3.926   9.736  0.7466  0.4453  2.5057
 8847SOL    HW231389   0.921   3.830   9.624 -2.3633  1.1706  0.9500
 8848SOL     OW31390   3.900   4.074   9.663  0.0882  0.4616 -0.1796
 8848SOL    HW131391   3.869   4.008   9.601 -1.1860  1.3080 -0.4792
 8848SOL    HW231392   3.871   4.043   9.749  0.0160  0.3286 -0.2517
 8849SOL     OW31393   2.680   5.722   9.426 -0.4956  0.3058  0.0199
 8849SOL    HW131394   2.624   5.666   9.372 -1.7951 -0.1758  1.8256
 8849SOL    HW231395   2.623   5.795   9.452  0.1170  0.5414  0.7239
 8850SOL     OW31396   3.120   5.522   1.012  0.3049  0.1732  0.2891
 8850SOL    HW131397   3.178   5.456   0.974 -0.6404 -1.2831  1.3314
 8850SOL    HW231398   3.167   5.552   1.090  0.2106 -0.1037  0.4521
 8851SOL     OW31399   1.987   4.098   8.459 -0.0956 -0.2063  0.3512
 8851SOL    HW131400   1.906   4.129   8.499 -0.2274 -1.3736  1.0115
 8851SOL    HW231401   2.057   4.137   8.512 -0.2425 -0.3343  0.6377
 8852SOL     OW31402   0.911   4.350   1.207 -0.0132  0.6911 -0.3863
 8852SOL    HW131403   0.828   4.336   1.161 -0.5756 -0.9633  1.0485
 8852SOL    HW231404   0.933   4.441   1.189 -2.4985  1.3657 -0.2750
 8853SOL     OW31405   4.218   7.211   2.234  0.4490  0.3206  0.1037
 8853SOL    HW131406   4.187   7.296   2.202  0.0884  0.5875  1.1357
 8853SOL    HW231407   4.248   7.229   2.323 -0.2632 -0.7775  0.5669
 8854SOL     OW31408   2.069   4.007   9.757  0.2375 -0.2806  0.3441
 8854SOL    HW131409   2.057   4.058   9.837 -1.5234 -1.7797  1.0636
 8854SOL    HW231410   2.152   3.961   9.769 -0.0987 -0.6163  1.3763
 8855SOL     OW31411   3.312   4.410   9.911 -0.6909 -0.0527  0.6062
 8855SOL    HW131412   3.261   4.386   9.989  0.6299 -0.9788  1.1969
 8855SOL    HW231413   3.271   4.361   9.840  1.0149 -2.9696  1.5416
 8856SOL     OW31414   2.966   4.806   9.126  0.5911  0.0312  0.9355
 8856SOL    HW131415   3.027   4.846   9.064 -0.5709  1.1728  0.4969
 8856SOL    HW231416   2.965   4.713   9.103 -0.0436  0.4967 -0.9438
 8857SOL     OW31417   1.682   3.917   9.101 -0.2386 -0.1238 -0.1556
 8857SOL    HW131418   1.689   3.907   9.196 -0.3373 -2.5497 -0.3718
 8857SOL    HW231419   1.652   3.832   9.070 -0.6416  0.7760 -2.3334
 8858SOL     OW31420   4.221   3.547   0.758 -0.7166 -0.2938 -0.1461
 8858SOL    HW131421   4.230   3.502   0.842 -2.1254  1.7956  1.1956
 8858SOL    HW231422   4.163   3.491   0.707 -1.0111 -0.8957  0.8217
 8859SOL     OW31423   2.131   3.720   9.540  0.1005 -0.1095  0.3104
 8859SOL    HW131424   2.206   3.779   9.539 -0.4216  0.6281  2.3659
 8859SOL    HW231425   2.158   3.646   9.594 -0.8391  0.4256  1.5282
 8860SOL     OW31426   4.101   5.633   9.866  0.2295  0.5615 -0.1337
 8860SOL    HW131427   4.102   5.590   9.951  0.7829  1.0300  0.0976
 8860SOL    HW231428   4.058   5.717   9.882 -0.2524  0.3852 -0.4523
 8861SOL     OW31429   2.968   5.493   9.995 -0.3532  0.3361 -0.9508
 8861SOL    HW131430   2.978   5.570   9.939 -0.0113  0.3868 -0.8196
 8861SOL    HW231431   3.036   5.502  10.062 -0.2342 -0.1361 -1.0000
 8862SOL     OW31432   1.542   5.961   0.296  0.6161 -0.2746  0.3641
 8862SOL    HW131433   1.528   6.022   0.368  0.4309 -0.1380  0.2122
 8862SOL    HW231434   1.584   5.885   0.336  1.1946  0.1103  0.4899
 8863SOL     OW31435   2.926   2.110   0.240  0.1838 -0.4306  0.0510
 8863SOL    HW131436   2.930   2.138   0.331  1.4266 -0.5776  0.0572
 8863SOL    HW231437   2.850   2.053   0.236 -1.9880  2.3551  0.1794
 8864SOL     OW31438   4.505   6.620   9.462  0.8235 -0.2712 -0.0706
 8864SOL    HW131439   4.480   6.712   9.455  1.4189  0.0793  2.1422
 8864SOL    HW231440   4.489   6.597   9.554 -0.7667 -2.8063 -0.9389
 8865SOL     OW31441   2.267   5.636   1.230 -0.4288 -0.5409 -0.7045
 8865SOL    HW131442   2.200   5.571   1.251 -0.6817  0.2721  1.1489
 8865SOL    HW231443   2.340   5.613   1.287  0.5479 -0.8909 -2.0897
 8866SOL     OW31444   2.483   4.912   9.175 -0.3400 -0.3983 -0.3041
 8866SOL    HW131445   2.447   4.823   9.166 -0.6429 -0.3232  0.1622
 8866SOL    HW231446   2.564   4.910   9.124 -0.5307 -0.8401 -0.5929
 8867SOL     OW31447   2.458   6.189   8.205  0.3392  0.4626  0.1158
 8867SOL    HW131448   2.364   6.176   8.217  0.0336  1.3888 -1.1476
 8867SOL    HW231449   2.471   6.180   8.110  1.1910  2.3906  0.0209
 8868SOL     OW31450   3.097   4.940   8.884  0.0451 -0.0717  0.1293
 8868SOL    HW131451   3.129   5.030   8.893 -0.6961  0.3684 -1.5448
 8868SOL    HW231452   3.022   4.946   8.825  0.0366 -1.7997 -0.0691
 8869SOL     OW31453   2.562   6.762   9.496  0.5391  0.1128  0.7288
 8869SOL    HW131454   2.590   6.827   9.560  0.0468 -0.1607  1.2305
 8869SOL    HW231455   2.642   6.738   9.450  0.6343  1.4872  0.1468
 8870SOL     OW31456   2.417   4.166   9.027 -0.9310  0.4397  0.9395
 8870SOL    HW131457   2.356   4.095   9.050 -0.3249 -0.6121 -0.6593
 8870SOL    HW231458   2.501   4.137   9.063 -0.3372 -0.4245 -1.1030
 8871SOL     OW31459   2.841   5.099   9.616 -0.0516 -0.4027 -0.3709
 8871SOL    HW131460   2.857   5.092   9.710  0.3602 -0.0519 -0.4101
 8871SOL    HW231461   2.859   5.191   9.595  1.3830 -0.8064 -1.0547
 8872SOL     OW31462   2.222   3.216   8.008  0.1875  0.0380 -0.0138
 8872SOL    HW131463   2.156   3.229   7.941  0.6446 -1.2245 -0.7345
 8872SOL    HW231464   2.248   3.305   8.035 -0.9877  0.5350 -0.5038
 8873SOL     OW31465   1.349   3.896   8.756  0.5089  0.1406  0.0675
 8873SOL    HW131466   1.276   3.866   8.809 -0.5136 -0.9246 -1.9071
 8873SOL    HW231467   1.425   3.848   8.790 -0.1148 -0.4491  0.6228
 8874SOL     OW31468   2.375   3.856   9.565  0.0576 -0.7631  1.0518
 8874SOL    HW131469   2.367   3.939   9.518 -1.7779 -0.2658  2.1737
 8874SOL    HW231470   2.467   3.833   9.558  0.2301  0.4112 -0.8903
 8875SOL     OW31471   2.295   3.398   9.034 -0.5650  0.0156  0.5768
 8875SOL    HW131472   2.289   3.477   8.980 -0.0893  1.4967  2.5970
 8875SOL    HW231473   2.218   3.346   9.011  0.3550 -0.0642 -2.4844
 8876SOL     OW31474   3.441   2.420   1.188  0.9524  0.3154 -0.0860
 8876SOL    HW131475   3.514   2.367   1.155  2.7199  1.4800  1.8265
 8876SOL    HW231476   3.414   2.474   1.113  0.9129 -1.3153 -1.2787
 8877SOL     OW31477   2.560   3.529   8.614  0.4828  0.0983 -0.0322
 8877SOL    HW131478   2.472   3.514   8.579  0.3749 -0.3291  0.4231
 8877SOL    HW231479   2.617   3.530   8.537  0.4764 -2.5111 -0.1129
 8878SOL     OW31480   3.012   5.869   8.978 -0.3256 -0.4405 -0.1786
 8878SOL    HW131481   3.047   5.906   8.896 -0.7853  0.3156 -0.0446
 8878SOL    HW231482   3.068   5.905   9.046 -1.0503  0.3916 -0.0073
 8879SOL     OW31483   2.441   3.166   8.464 -0.2173 -0.5673  0.0456
 8879SOL    HW131484   2.382   3.170   8.539 -1.2082 -2.4688 -0.6041
 8879SOL    HW231485   2.414   3.239   8.408  1.4526  1.7621  2.1432
 8880SOL     OW31486   2.218   6.106   1.630  0.0262  0.4661  0.4636
 8880SOL    HW131487   2.280   6.092   1.701  1.3204  0.8381 -0.5678
 8880SOL    HW231488   2.138   6.063   1.659  0.9375 -0.5208  1.5669
 8881SOL     OW31489   3.256   1.772   0.765 -0.3839 -0.0553 -0.2106
 8881SOL    HW131490   3.188   1.737   0.706 -0.5546  0.2888 -0.2170
 8881SOL    HW231491   3.334   1.721   0.744 -0.0862  0.9736 -1.6871
 8882SOL     OW31492   1.631   3.053   1.082  0.1101  0.1310  0.5088
 8882SOL    HW131493   1.685   3.068   1.005  0.1749  0.0256  0.5334
 8882SOL    HW231494   1.569   3.126   1.083 -0.6322 -0.4899 -0.2838
 8883SOL     OW31495   4.666   5.638   1.577 -0.2204 -0.5445 -0.2139
 8883SOL    HW131496   4.654   5.733   1.573  1.9513 -0.2708 -1.1029
 8883SOL    HW231497   4.724   5.624   1.652 -1.0683 -1.2455  0.3215
 8884SOL     OW31498   2.073   3.816   9.019 -0.1220  0.2294  0.1955
 8884SOL    HW131499   2.134   3.887   9.037  0.2744 -0.3070  1.0208
 8884SOL    HW231500   2.026   3.803   9.102  0.2343 -0.8639  0.2381
 8885SOL     OW31501   2.687   5.001   1.547  0.1436  0.7609 -0.8945
 8885SOL    HW131502   2.617   4.959   1.497 -0.0379  0.5564 -0.4712
 8885SOL    HW231503   2.689   4.954   1.630 -0.0841  1.6110 -0.4022
 8886SOL     OW31504   4.354   4.911   1.065 -0.0527 -0.5881  0.1643
 8886SOL    HW131505   4.362   5.000   1.029 -1.5473 -0.6417 -0.3367
 8886SOL    HW231506   4.290   4.919   1.135 -2.5726 -1.8166 -1.9043
 8887SOL     OW31507   1.521   3.419   0.311  0.3895 -0.1541 -0.2960
 8887SOL    HW131508   1.553   3.330   0.293  1.3301 -0.0410  0.8107
 8887SOL    HW231509   1.596   3.465   0.349 -0.3578  0.8525 -0.0122
 8888SOL     OW31510   2.375   4.937   1.349 -0.1766 -0.5116  0.4634
 8888SOL    HW131511   2.445   4.930   1.285  0.5374 -1.8475  1.3520
 8888SOL    HW231512   2.405   4.883   1.423 -1.6412 -0.2119  1.2969
 8889SOL     OW31513   2.628   3.987   9.157 -0.1062  0.0521 -0.3950
 8889SOL    HW131514   2.563   3.919   9.175 -0.5976  0.8766  0.9890
 8889SOL    HW231515   2.705   3.939   9.126 -1.3619 -0.9321 -2.0337
 8890SOL     OW31516   2.428   4.152   0.160  0.0816 -0.2236 -0.0926
 8890SOL    HW131517   2.371   4.172   0.086 -2.5503 -1.6625  1.4790
 8890SOL    HW231518   2.515   4.140   0.121 -1.4364 -2.0441 -3.1032
 8891SOL     OW31519   2.391   4.253   9.882 -0.3540 -0.1912  0.2885
 8891SOL    HW131520   2.301   4.269   9.912 -0.5470 -2.3996  0.9944
 8891SOL    HW231521   2.444   4.318   9.927 -1.4132  0.2040  0.9897
 8892SOL     OW31522   9.537   5.387   8.495 -0.2202 -0.2961 -0.4061
 8892SOL    HW131523   9.538   5.334   8.416 -0.5661  1.5074 -1.6425
 8892SOL    HW231524   9.505   5.472   8.467  0.3550  0.5965  1.5322
 8893SOL     OW31525   1.979   2.775   9.290 -0.3548 -0.2172 -0.1797
 8893SOL    HW131526   1.975   2.693   9.339  0.6330  1.1081  2.1723
 8893SOL    HW231527   2.068   2.777   9.254 -0.9790 -1.0408 -1.8336
 8894SOL     OW31528   2.580   3.790   8.688 -0.0685  0.2212  0.2774
 8894SOL    HW131529   2.519   3.798   8.761  0.7783 -2.2978  1.3146
 8894SOL    HW231530   2.590   3.696   8.675  3.6413  0.5428  0.1988
 8895SOL     OW31531   2.870   1.763   0.668 -0.0247  0.1364 -0.3216
 8895SOL    HW131532   2.799   1.727   0.721 -1.3637  1.6658 -1.0337
 8895SOL    HW231533   2.835   1.763   0.579  0.5188  1.7033 -0.5527
 8896SOL     OW31534   1.899   4.341   0.033  0.3814 -0.4017 -0.1724
 8896SOL    HW131535   1.845   4.347  -0.045 -0.4674 -1.9086  0.2823
 8896SOL    HW231536   1.851   4.391   0.100 -0.7255 -2.1188  0.3580
 8897SOL     OW31537   0.676   4.186   8.336  0.0995 -0.6704  0.2745
 8897SOL    HW131538   0.655   4.099   8.369  0.4437 -0.9552 -0.2359
 8897SOL    HW231539   0.591   4.227   8.318 -0.0721 -0.6746  1.0892
 8898SOL     OW31540   0.703   5.661   0.533  0.4303  0.3227  0.3338
 8898SOL    HW131541   0.712   5.638   0.440  2.2742  1.2173  0.2625
 8898SOL    HW231542   0.615   5.633   0.556  0.1544 -0.4503 -1.5410
 8899SOL     OW31543   2.623   6.227   0.537  0.3061  0.0565  0.5238
 8899SOL    HW131544   2.607   6.208   0.444  1.3220  0.6507  0.2270
 8899SOL    HW231545   2.590   6.150   0.583 -2.1898  0.6733 -0.1704
 8900SOL     OW31546   4.115   4.867   9.672 -0.0502 -0.1421 -0.1562
 8900SOL    HW131547   4.103   4.936   9.606 -3.7784 -0.5367  0.0138
 8900SOL    HW231548   4.202   4.883   9.708 -0.0487  3.2761 -1.5126
 8901SOL     OW31549   2.114   5.096   9.733  0.6808  0.4206 -0.7029
 8901SOL    HW131550   2.207   5.074   9.731  0.5666 -0.1561  0.0259
 8901SOL    HW231551   2.070   5.016   9.702  0.3175 -0.0499  0.9976
 8902SOL     OW31552   1.959   4.848   0.104 -0.4208  0.1593  0.1251
 8902SOL    HW131553   1.914   4.777   0.058 -1.0388  0.9562 -0.5231
 8902SOL    HW231554   2.053   4.829   0.093 -0.5881 -0.4870 -0.1588
 8903SOL     OW31555   0.418   5.263   9.873 -0.2409  0.2560  0.4355
 8903SOL    HW131556   0.332   5.261   9.916 -0.2547 -1.6143  0.3410
 8903SOL    HW231557   0.415   5.343   9.819 -1.8063  0.3669  0.6555
 8904SOL     OW31558   0.956   3.138   0.067 -0.1359 -0.1180 -0.5879
 8904SOL    HW131559   1.001   3.080   0.005 -1.7484 -1.1051 -0.8646
 8904SOL    HW231560   0.900   3.080   0.119 -0.4636  0.9783  0.3137
 8905SOL     OW31561   1.907   2.591   9.036 -0.0493  0.2400 -0.7020
 8905SOL    HW131562   2.000   2.609   9.048  0.4424 -1.3668 -1.9070
 8905SOL    HW231563   1.877   2.565   9.124  0.8038  0.0786 -0.4490
 8906SOL     OW31564   5.496   5.442   0.173  0.4981  0.5598 -0.1066
 8906SOL    HW131565   5.529   5.409   0.090 -1.1145  0.2523 -0.6406
 8906SOL    HW231566   5.460   5.528   0.153  1.1537  0.9736  0.5010
 8907SOL     OW31567   2.312   4.968   1.935  0.0221  0.1509  0.0963
 8907SOL    HW131568   2.306   5.020   2.015  0.7173 -0.0350  0.2767
 8907SOL    HW231569   2.329   5.032   1.866  1.9948  0.0688  0.4816
 8908SOL     OW31570   2.542   5.530   8.879 -0.3215 -0.2110 -0.4819
 8908SOL    HW131571   2.513   5.467   8.944 -0.7448  1.2430  0.7594
 8908SOL    HW231572   2.533   5.485   8.795  1.0499 -2.4055  0.5151
 8909SOL     OW31573   3.013   5.259   9.114  0.1418 -0.4510 -0.0796
 8909SOL    HW131574   2.945   5.223   9.057 -1.5546 -2.0761  2.8459
 8909SOL    HW231575   2.988   5.350   9.126 -0.2048 -0.4334 -0.9036
 8910SOL     OW31576   2.050   5.694   1.510 -0.5476 -0.5202  0.2878
 8910SOL    HW131577   1.986   5.694   1.440  0.2197 -0.8430 -0.4191
 8910SOL    HW231578   2.107   5.620   1.491 -0.7413 -1.0364  1.6333
 8911SOL     OW31579   1.702   4.474   0.211 -0.2313  0.4090  0.1172
 8911SOL    HW131580   1.769   4.532   0.245  0.3635 -1.3658  2.1158
 8911SOL    HW231581   1.629   4.532   0.189  0.8039  2.0288  0.8408
 8912SOL     OW31582   2.982   5.222   8.076 -0.1102 -0.2127  0.0474
 8912SOL    HW131583   2.940   5.307   8.081 -0.0280 -0.1260 -0.6908
 8912SOL    HW231584   3.076   5.240   8.079 -0.0862 -0.2536 -0.4444
 8913SOL     OW31585   5.284   3.009   9.581 -0.1251 -0.0937 -0.6797
 8913SOL    HW131586   5.272   3.033   9.673  1.5085 -1.0923 -0.1883
 8913SOL    HW231587   5.343   3.076   9.547 -0.3593  0.0053 -0.8964
 8914SOL     OW31588   1.422   6.240   9.883 -0.0060  0.4743  0.3699
 8914SOL    HW131589   1.484   6.225   9.955  0.1706  1.7904  0.5045
 8914SOL    HW231590   1.472   6.223   9.804 -0.3365 -1.4679  0.5632
 8915SOL     OW31591   2.187   4.711   1.637 -0.2719  0.3920  0.2528
 8915SOL    HW131592   2.193   4.615   1.641 -0.9276  0.3397  0.0812
 8915SOL    HW231593   2.094   4.729   1.648 -0.1139  1.0244  0.5249
 8916SOL     OW31594   2.072   7.248   9.020  0.0137 -0.0821 -0.3918
 8916SOL    HW131595   2.053   7.336   8.990 -0.4017 -0.7979 -2.2835
 8916SOL    HW231596   2.104   7.260   9.110  0.3146  2.0012 -0.7500
 8917SOL     OW31597   2.825   5.964   9.567 -0.3969  0.3948 -0.0009
 8917SOL    HW131598   2.772   6.036   9.601  0.0927  0.9135 -0.3327
 8917SOL    HW231599   2.810   5.892   9.628 -0.2963  1.0192  0.7617
 8918SOL     OW31600   3.142   6.521   0.428 -0.0073 -0.2558  0.7833
 8918SOL    HW131601   3.059   6.555   0.463 -1.0362  0.7297 -2.4302
 8918SOL    HW231602   3.118   6.480   0.345  2.3104 -2.7513  1.2968
 8919SOL     OW31603   3.234   5.664   3.136  0.1611 -0.1226 -0.7939
 8919SOL    HW131604   3.226   5.596   3.203 -0.7244 -0.4083 -1.1724
 8919SOL    HW231605   3.230   5.746   3.184 -1.4428 -0.3097 -0.5793
 8920SOL     OW31606   4.065   6.476   8.400  0.4791 -0.1027 -0.2009
 8920SOL    HW131607   4.061   6.540   8.329  0.7841 -0.1114 -0.2231
 8920SOL    HW231608   3.974   6.471   8.431  0.4430  0.2963 -0.2333
 8921SOL     OW31609   2.841   6.043   2.562  0.3360  0.8209 -0.7144
 8921SOL    HW131610   2.747   6.031   2.548  0.6717 -1.2787 -1.4057
 8921SOL    HW231611   2.855   6.018   2.653  0.6235 -1.6305 -1.4000
 8922SOL     OW31612   3.477   3.504   0.069 -0.3383  0.3034  0.0142
 8922SOL    HW131613   3.427   3.521   0.148  1.3779  0.6351  1.0676
 8922SOL    HW231614   3.440   3.423   0.034 -0.3429 -0.5057  1.8114
 8923SOL     OW31615   0.946   7.466   2.357  0.0564 -0.3359 -0.5664
 8923SOL    HW131616   0.891   7.392   2.382  0.6878 -1.3123 -2.0326
 8923SOL    HW231617   0.907   7.499   2.276 -0.3420  1.0799  0.1822
 8924SOL     OW31618   1.080   5.075   1.832  0.3434  0.5379 -0.2125
 8924SOL    HW131619   1.105   5.039   1.917  0.6991  0.4654 -0.3475
 8924SOL    HW231620   1.145   5.042   1.771  2.2750  3.5043  0.1165
 8925SOL     OW31621   1.738   6.527   9.983 -0.2772  0.0406  0.4738
 8925SOL    HW131622   1.651   6.547   9.949 -0.0690 -0.7336 -0.5454
 8925SOL    HW231623   1.766   6.607  10.025 -1.2906  0.4524  0.3897
 8926SOL     OW31624   2.091   7.083   3.396  0.6860 -0.1027 -0.3210
 8926SOL    HW131625   2.114   7.001   3.351  0.0953 -1.0133  1.0087
 8926SOL    HW231626   2.124   7.071   3.485  1.2875  1.4307 -0.3368
 8927SOL     OW31627   0.934   6.770   3.626  0.2205  0.3159  0.4540
 8927SOL    HW131628   0.871   6.728   3.568  0.2919  0.6467  0.1381
 8927SOL    HW231629   0.933   6.862   3.601 -0.1388  0.5569  1.3247
 8928SOL     OW31630   3.075   6.681   2.139 -0.2805  0.0423  0.6207
 8928SOL    HW131631   3.137   6.668   2.067 -1.5470  0.3329 -0.5332
 8928SOL    HW231632   3.043   6.593   2.160  0.7527 -0.1447  1.4309
 8929SOL     OW31633   1.276   6.675   9.000  0.2963 -0.0288  0.7319
 8929SOL    HW131634   1.305   6.655   8.911  0.6807  0.5844  0.7097
 8929SOL    HW231635   1.353   6.659   9.054  0.5240  1.0665  0.7483
 8930SOL     OW31636   3.512   6.196   2.325 -0.6276 -0.2894 -0.5932
 8930SOL    HW131637   3.429   6.172   2.285 -0.6964  0.3083 -0.8261
 8930SOL    HW231638   3.578   6.159   2.267 -0.7321 -0.0077 -0.8960
 8931SOL     OW31639   2.185   6.744   0.137  0.0393  0.6565  0.4755
 8931SOL    HW131640   2.201   6.796   0.058  0.2070  1.8662  1.2892
 8931SOL    HW231641   2.272   6.719   0.167 -0.1325 -2.4404 -1.4148
 8932SOL     OW31642   3.766   7.414   3.178  0.7392  0.0428 -0.1736
 8932SOL    HW131643   3.694   7.478   3.179  2.1086  1.6241  0.2424
 8932SOL    HW231644   3.762   7.375   3.091 -0.4231  0.3459 -0.2718
 8933SOL     OW31645   0.833   6.492   4.001 -0.3823  0.3871 -0.2135
 8933SOL    HW131646   0.867   6.470   4.088 -1.8715 -1.0325  0.0251
 8933SOL    HW231647   0.866   6.422   3.945 -0.9946  0.2662 -0.4210
 8934SOL     OW31648   1.411   6.912   1.629 -0.2243 -0.3983 -0.0440
 8934SOL    HW131649   1.318   6.887   1.624 -0.7449  1.1357  1.3084
 8934SOL    HW231650   1.413   7.002   1.597  1.1953 -1.2240 -2.3361
 8935SOL     OW31651   1.484   6.225   1.056 -0.2169  0.2080 -0.2388
 8935SOL    HW131652   1.388   6.217   1.056 -0.2486  0.5740 -1.0754
 8935SOL    HW231653   1.505   6.260   1.143 -0.9332  1.1776 -0.4449
 8936SOL     OW31654   2.495   7.963   0.999 -0.1472  0.2801 -0.4518
 8936SOL    HW131655   2.516   7.869   0.995  0.3605  0.4414 -1.6074
 8936SOL    HW231656   2.401   7.965   1.016 -0.1792 -0.4312 -0.4958
 8937SOL     OW31657   3.642   5.489   2.394 -0.0592 -0.2015 -0.3853
 8937SOL    HW131658   3.588   5.567   2.387  0.1936 -0.1101 -1.4600
 8937SOL    HW231659   3.708   5.499   2.325  1.3320 -0.3031  0.8892
 8938SOL     OW31660   1.773   4.752   9.903 -0.0759  0.2556 -0.7051
 8938SOL    HW131661   1.689   4.795   9.892 -0.8967 -1.9790 -3.5419
 8938SOL    HW231662   1.752   4.659   9.907  2.2150 -0.2882 -0.8019
 8939SOL     OW31663   3.768   7.501   9.741 -0.0587 -0.4926 -0.2237
 8939SOL    HW131664   3.768   7.406   9.753  0.2004 -0.6882 -1.6346
 8939SOL    HW231665   3.860   7.526   9.743 -0.1967 -0.0694  1.5169
 8940SOL     OW31666   0.591   7.457   9.684  0.4653 -0.1522 -0.1741
 8940SOL    HW131667   0.606   7.548   9.658  0.9276 -0.3712 -0.6887
 8940SOL    HW231668   0.658   7.407   9.637 -0.5789 -0.9044 -0.9167
 8941SOL     OW31669   2.111   7.728   0.354  0.7068 -0.0544  0.1353
 8941SOL    HW131670   2.094   7.816   0.388 -1.3409 -0.1735 -0.5448
 8941SOL    HW231671   2.032   7.678   0.374  1.0045 -1.1596 -1.3557
 8942SOL     OW31672   4.009   7.464   0.618  0.1268  0.1346  0.6058
 8942SOL    HW131673   3.994   7.433   0.529  1.9232 -0.0058  0.3295
 8942SOL    HW231674   3.980   7.393   0.675  0.8421 -0.5943  0.0657
 8943SOL     OW31675   3.045   5.729   2.857  0.2410  0.2879  0.1746
 8943SOL    HW131676   2.999   5.722   2.774  0.9180 -0.5743 -0.1307
 8943SOL    HW231677   3.129   5.686   2.842 -0.6882 -2.3325  2.0662
 8944SOL     OW31678   3.719   7.278   0.293 -0.1384  0.2061 -0.3843
 8944SOL    HW131679   3.755   7.192   0.314 -1.4106 -1.3588 -4.0789
 8944SOL    HW231680   3.624   7.268   0.305 -0.1026  1.8514  1.4675
 8945SOL     OW31681   3.364   7.273   3.396  0.0626 -0.0021  0.5119
 8945SOL    HW131682   3.437   7.319   3.437 -0.3834  0.5359  0.7075
 8945SOL    HW231683   3.292   7.284   3.457 -0.6557  0.9422 -0.4900
 8946SOL     OW31684   3.327   5.079   1.459 -0.1214  0.0099  0.4389
 8946SOL    HW131685   3.373   5.043   1.384  1.7396 -0.0818  1.5810
 8946SOL    HW231686   3.319   5.173   1.439 -1.2477 -0.3122 -0.6627
 8947SOL     OW31687   1.715   6.040   1.039  0.0012 -0.2359 -0.2487
 8947SOL    HW131688   1.645   6.103   1.022 -0.6524 -0.5967  1.0372
 8947SOL    HW231689   1.791   6.074   0.991 -0.6786  0.8706 -0.5519
 8948SOL     OW31690   1.288   7.158   9.079 -0.4716 -0.0190  0.2938
 8948SOL    HW131691   1.210   7.160   9.134 -1.6959 -0.1644 -1.3924
 8948SOL    HW231692   1.269   7.219   9.008  1.2544  0.4782  0.2385
 8949SOL     OW31693   3.333   7.502   1.785  0.8730  0.0501  0.1390
 8949SOL    HW131694   3.265   7.552   1.740  1.3707  0.7787  0.1826
 8949SOL    HW231695   3.316   7.516   1.878  1.0235  0.1641  0.1508
 8950SOL     OW31696   2.376   6.410   1.472 -0.3758 -0.6925  0.4906
 8950SOL    HW131697   2.423   6.366   1.542  0.2225  1.0156  1.1780
 8950SOL    HW231698   2.317   6.471   1.516 -0.9414 -0.5370 -0.4542
 8951SOL     OW31699   3.525   7.024   1.477 -0.4868  0.0739  0.1371
 8951SOL    HW131700   3.611   7.065   1.490  0.7530 -2.2783 -0.3019
 8951SOL    HW231701   3.484   7.076   1.408  0.3127  1.6328  0.8121
 8952SOL     OW31702   2.266   7.438   0.319  0.0659 -0.8834 -0.5148
 8952SOL    HW131703   2.203   7.366   0.327  0.6873 -1.2445  1.6637
 8952SOL    HW231704   2.275   7.452   0.225 -2.1674 -1.7831 -0.9093
 8953SOL     OW31705   1.998   8.710   8.575 -0.5807  0.5372 -0.1309
 8953SOL    HW131706   2.079   8.708   8.626  0.4579 -0.8321 -1.7841
 8953SOL    HW231707   2.001   8.794   8.528  0.8853 -0.4058 -1.7550
 8954SOL     OW31708   3.450   6.090   1.210  0.2521  0.2646  0.2809
 8954SOL    HW131709   3.509   6.083   1.135  0.1468 -0.0373  0.2223
 8954SOL    HW231710   3.502   6.061   1.285  1.1217  2.9013  0.7413
 8955SOL     OW31711   4.099   8.312   0.108  0.0956 -0.0618  0.6293
 8955SOL    HW131712   4.109   8.331   0.015 -0.5621  0.4127  0.6510
 8955SOL    HW231713   4.093   8.398   0.149 -1.2462 -0.2743  0.9196
 8956SOL     OW31714   4.034   4.871   1.383  0.0371 -0.1215 -0.8946
 8956SOL    HW131715   3.979   4.842   1.455  0.3970  0.7570 -0.2475
 8956SOL    HW231716   4.017   4.809   1.312  0.3259 -1.5207  0.2309
 8957SOL     OW31717   1.474   4.688   0.761 -0.0982  0.3091 -0.1148
 8957SOL    HW131718   1.507   4.706   0.673  0.4623 -2.3581 -0.4705
 8957SOL    HW231719   1.506   4.601   0.782 -1.1896  0.4486  2.2960
 8958SOL     OW31720   2.334   6.294   2.267 -0.2301  0.7323  0.8885
 8958SOL    HW131721   2.282   6.243   2.204 -0.9929  1.2866  1.0597
 8958SOL    HW231722   2.425   6.272   2.247 -0.5756 -2.9211  2.7790
 8959SOL     OW31723   1.188   5.117   1.165 -0.2604  0.7333 -0.1617
 8959SOL    HW131724   1.184   5.043   1.105  1.8562 -0.1014  0.7008
 8959SOL    HW231725   1.098   5.151   1.166 -0.5203  0.3669 -3.2497
 8960SOL     OW31726   2.871   5.170   0.297 -0.8091  0.6567  0.5733
 8960SOL    HW131727   2.843   5.079   0.287  0.5532  0.2722  0.1757
 8960SOL    HW231728   2.801   5.221   0.256  0.0984 -0.4130 -2.4815
 8961SOL     OW31729   2.621   7.686   9.702 -0.7075  0.2956  0.2053
 8961SOL    HW131730   2.643   7.778   9.719 -0.3698  0.3094 -0.3183
 8961SOL    HW231731   2.527   7.681   9.720 -1.0950  1.1697 -1.5389
 8962SOL     OW31732   1.555   7.944   3.287 -0.7333  0.5793 -0.2820
 8962SOL    HW131733   1.604   7.935   3.206 -1.1229  2.7792 -0.7860
 8962SOL    HW231734   1.488   8.010   3.268 -0.9998  0.9390  1.7393
 8963SOL     OW31735   2.042   6.669   0.764  0.2247 -0.1800  0.2186
 8963SOL    HW131736   2.000   6.583   0.770 -0.4395  0.0917 -0.4231
 8963SOL    HW231737   1.971   6.729   0.739  0.7060  0.5352  0.5479
 8964SOL     OW31738   5.502   3.039   2.988 -0.4248  0.2925  0.7489
 8964SOL    HW131739   5.448   3.116   2.972  1.4456  1.4373 -0.1363
 8964SOL    HW231740   5.566   3.039   2.916  0.6452 -1.1448  1.6792
 8965SOL     OW31741   3.571   6.875   0.403  0.2475 -0.1087 -0.3042
 8965SOL    HW131742   3.646   6.925   0.371 -1.2744  2.3011 -0.2801
 8965SOL    HW231743   3.502   6.940   0.413 -0.5907 -1.4851  3.8724
 8966SOL     OW31744   2.190   6.157   2.023 -0.1724  0.0636  0.5010
 8966SOL    HW131745   2.146   6.108   1.954  0.8083  2.9196 -2.2560
 8966SOL    HW231746   2.127   6.223   2.050 -0.3813 -0.7512  2.0553
 8967SOL     OW31747   2.534   6.274   1.007 -0.5491  0.0424 -0.3562
 8967SOL    HW131748   2.516   6.294   0.916  0.2921 -0.1864 -0.5800
 8967SOL    HW231749   2.520   6.357   1.053  2.5701  1.1393 -1.2214
 8968SOL     OW31750   2.259   8.365   3.234  0.3111  0.3673  0.2556
 8968SOL    HW131751   2.294   8.389   3.148 -1.6952  0.1180 -0.6469
 8968SOL    HW231752   2.271   8.444   3.287  2.5296  0.1894  0.0859
 8969SOL     OW31753   2.372   7.612   0.871  0.0710 -0.4243 -0.4784
 8969SOL    HW131754   2.371   7.586   0.963 -2.7791  0.3997 -0.2238
 8969SOL    HW231755   2.342   7.703   0.871  0.8381 -0.1502 -2.1501
 8970SOL     OW31756   3.095   7.361   1.243 -0.2900 -0.6649 -0.6857
 8970SOL    HW131757   3.144   7.415   1.305 -0.6539 -0.0958 -0.8918
 8970SOL    HW231758   3.003   7.379   1.262 -0.4087 -0.6980 -1.2013
 8971SOL     OW31759   3.115   6.351   1.865 -0.0926 -0.5999  0.4705
 8971SOL    HW131760   3.209   6.355   1.881  0.3158 -2.1649 -1.3630
 8971SOL    HW231761   3.103   6.398   1.782 -0.9667 -0.2220  0.8072
 8972SOL     OW31762   2.534   6.570   3.646 -0.4675  0.0777 -0.1656
 8972SOL    HW131763   2.527   6.666   3.653  0.6820  0.0221  2.1100
 8972SOL    HW231764   2.556   6.541   3.735  1.3532 -2.1207 -1.2999
 8973SOL     OW31765   0.835   6.215   2.584  0.8547  0.0873 -0.5152
 8973SOL    HW131766   0.873   6.128   2.595  0.9190  0.4123  2.1646
 8973SOL    HW231767   0.867   6.244   2.499  1.3555 -2.2450 -1.1613
 8974SOL     OW31768   2.076   6.426   0.289  0.0541 -0.3663 -0.7704
 8974SOL    HW131769   2.044   6.336   0.287 -3.2325  0.7148  0.1413
 8974SOL    HW231770   2.085   6.451   0.197 -0.3061 -1.1774 -1.0271
 8975SOL     OW31771   2.489   6.368   0.733  0.2011 -0.1014  0.0399
 8975SOL    HW131772   2.419   6.393   0.672 -0.4315 -0.1693  0.7188
 8975SOL    HW231773   2.554   6.325   0.679 -0.6792 -0.8001 -0.4780
 8976SOL     OW31774   2.399   8.179   9.122  0.0011 -0.7026  0.2494
 8976SOL    HW131775   2.364   8.142   9.203 -1.2262 -3.2446 -1.3859
 8976SOL    HW231776   2.338   8.151   9.054 -0.7294  3.9635 -1.2474
 8977SOL     OW31777   2.585   5.711   1.378 -0.0083  0.0831 -0.0049
 8977SOL    HW131778   2.672   5.680   1.405 -0.6857 -0.5155  1.5864
 8977SOL    HW231779   2.538   5.631   1.355 -0.6145  0.2652  0.5969
 8978SOL     OW31780   2.834   8.502   1.709 -0.2227  0.0833 -0.6252
 8978SOL    HW131781   2.870   8.565   1.646  0.0418  0.0314 -0.5316
 8978SOL    HW231782   2.753   8.543   1.740 -0.0190  0.4104 -0.5166
 8979SOL     OW31783   3.389   6.988   2.557 -0.0336 -0.4386 -0.0795
 8979SOL    HW131784   3.340   6.990   2.475  1.2939 -1.1959 -0.8984
 8979SOL    HW231785   3.351   7.059   2.609  0.4202  1.3248 -2.0975
 8980SOL     OW31786   2.583   6.743   0.637  0.6924 -0.0099 -0.4635
 8980SOL    HW131787   2.585   6.827   0.592 -0.2204  0.4160  0.2781
 8980SOL    HW231788   2.490   6.721   0.645  0.8010  0.2017  1.6896
 8981SOL     OW31789   3.633   6.944   2.272  0.6037 -0.3269 -0.5095
 8981SOL    HW131790   3.670   6.932   2.360 -0.8743  0.1105  0.1951
 8981SOL    HW231791   3.625   6.855   2.238  1.2648 -0.4953 -0.2338
 8982SOL     OW31792   2.382   5.053   9.698  0.0286 -0.3284  0.3450
 8982SOL    HW131793   2.406   4.961   9.686  0.5209 -0.0717 -0.6783
 8982SOL    HW231794   2.433   5.082   9.773 -0.2128 -0.9182  0.7428
 8983SOL     OW31795   4.382   4.263   9.839 -0.2539  0.2860 -0.0389
 8983SOL    HW131796   4.402   4.269   9.745 -1.0829  1.0832 -0.1821
 8983SOL    HW231797   4.300   4.214   9.842  1.4117 -2.5491  0.4943
 8984SOL     OW31798   2.419   8.737   2.087  0.1466 -0.3654 -0.0452
 8984SOL    HW131799   2.400   8.829   2.071  0.7595 -0.0968  0.7584
 8984SOL    HW231800   2.461   8.735   2.173 -2.6419 -1.7366  1.3351
 8985SOL     OW31801   4.042   7.157   0.901 -0.0867 -0.4909  0.0595
 8985SOL    HW131802   4.028   7.242   0.943 -0.4760 -1.0484  1.0716
 8985SOL    HW231803   3.976   7.154   0.831  1.7663  1.2178 -1.8330
 8986SOL     OW31804   2.452   7.571   9.961  0.1133 -0.6395  0.5064
 8986SOL    HW131805   2.415   7.608  10.041  0.9270 -0.5507  0.8381
 8986SOL    HW231806   2.394   7.603   9.892  1.1108  1.6908  0.7262
 8987SOL     OW31807   2.328   6.789   0.587  0.7788 -0.5725 -0.2110
 8987SOL    HW131808   2.259   6.748   0.536 -2.1882  3.2226  0.5094
 8987SOL    HW231809   2.370   6.850   0.526 -0.0191  0.9081  0.6692
 8988SOL     OW31810   0.544   5.098   1.224  0.3659 -0.1876 -0.0335
 8988SOL    HW131811   0.629   5.104   1.268 -0.1134  1.2681  0.7165
 8988SOL    HW231812   0.502   5.182   1.241 -0.3169 -0.0312 -2.2937
 8989SOL     OW31813   3.573   7.793   0.473 -0.0935 -0.7552 -0.2742
 8989SOL    HW131814   3.634   7.721   0.490 -0.0245 -0.5428  0.3718
 8989SOL    HW231815   3.516   7.795   0.550  1.0696  1.0761  0.5556
 8990SOL     OW31816   3.840   6.642   0.055 -0.0795  0.6193  0.1312
 8990SOL    HW131817   3.747   6.624   0.061 -0.3797  1.8596 -0.6213
 8990SOL    HW231818   3.846   6.723   0.004  1.3954  0.6146  0.2651
 8991SOL     OW31819   4.795   7.369   2.177 -0.1905  0.7428  0.5875
 8991SOL    HW131820   4.772   7.276   2.175 -0.1789  0.7559 -1.6852
 8991SOL    HW231821   4.735   7.407   2.241 -1.3370 -0.5344  0.3097
 8992SOL     OW31822   3.956   6.439   9.806 -0.8623  0.2164  0.1203
 8992SOL    HW131823   3.894   6.464   9.875 -1.3657  0.2298 -0.3374
 8992SOL    HW231824   4.035   6.490   9.825 -1.4051  1.1048 -0.0067
 8993SOL     OW31825   2.098   4.713   9.393  0.5102 -0.4920  0.5434
 8993SOL    HW131826   2.132   4.802   9.381 -1.8578  0.3225 -0.2789
 8993SOL    HW231827   2.088   4.704   9.488 -2.3906  1.3702  0.4765
 8994SOL     OW31828   3.921   8.108   0.369  0.4769 -0.7619 -0.6338
 8994SOL    HW131829   3.882   8.176   0.314 -0.5141 -0.5336  0.3363
 8994SOL    HW231830   3.968   8.157   0.437  0.3470 -1.0483 -0.3387
 8995SOL     OW31831   2.837   7.441   1.346 -0.1809 -1.0114  0.2890
 8995SOL    HW131832   2.750   7.410   1.374 -0.5004 -1.6226 -1.3127
 8995SOL    HW231833   2.822   7.531   1.317 -0.3974 -1.2889 -0.4807
 8996SOL     OW31834   0.577   6.101   2.515 -0.6764  0.2048  0.1111
 8996SOL    HW131835   0.639   6.129   2.582  2.0425  0.0544 -2.3037
 8996SOL    HW231836   0.562   6.008   2.535 -1.6762  0.7158  1.8545
 8997SOL     OW31837   1.952   6.168   0.269  0.1614  0.2500 -0.3822
 8997SOL    HW131838   1.965   6.079   0.234  0.0537  0.6560 -1.4652
 8997SOL    HW231839   1.859   6.170   0.293  0.5302 -0.4666  1.1971
 8998SOL     OW31840   1.797   4.973   1.639  0.5088  0.0457  0.6152
 8998SOL    HW131841   1.759   5.060   1.630  1.6289  0.5397  0.5376
 8998SOL    HW231842   1.728   4.920   1.678 -0.1350  1.0018  0.7844
 8999SOL     OW31843   1.681   5.734   0.427 -0.0285  0.5634  0.5015
 8999SOL    HW131844   1.610   5.736   0.491  0.2510 -0.2760  0.8478
 8999SOL    HW231845   1.748   5.679   0.468 -0.2450 -0.8032 -0.9348
 9000SOL     OW31846   3.614   5.839   0.196  0.7274 -0.1410  0.6434
 9000SOL    HW131847   3.639   5.818   0.286  3.9407  0.2351 -0.0819
 9000SOL    HW231848   3.649   5.927   0.181  2.8769 -1.3312 -1.8570
 9001SOL     OW31849   1.201   4.673   0.857  0.4518  0.0946  0.5160
 9001SOL    HW131850   1.147   4.752   0.849  0.2404  0.1040  1.8543
 9001SOL    HW231851   1.287   4.699   0.825  0.2878  0.7723  0.6136
 9002SOL     OW31852   2.899   6.390   2.626 -0.4059 -0.0604 -0.3148
 9002SOL    HW131853   2.811   6.355   2.643 -0.7700  0.0928 -1.7707
 9002SOL    HW231854   2.957   6.315   2.634 -0.9109 -0.5483 -1.2099
 9003SOL     OW31855   2.139   6.867   2.664  0.5738 -0.0435 -0.4171
 9003SOL    HW131856   2.044   6.851   2.662  0.5292 -0.6112  2.6382
 9003SOL    HW231857   2.169   6.849   2.575 -2.0337 -0.8836 -1.1738
 9004SOL     OW31858   4.048   6.963   9.400  0.2681  0.0971 -0.1429
 9004SOL    HW131859   4.031   7.014   9.321 -1.5250 -1.7095 -0.9456
 9004SOL    HW231860   4.075   6.877   9.369  1.0173 -0.1786  1.2132
 9005SOL     OW31861   5.125   5.613   9.822  0.1635 -0.1320 -0.2433
 9005SOL    HW131862   5.212   5.617   9.860  0.9104 -5.3577 -1.0562
 9005SOL    HW231863   5.140   5.622   9.727 -0.5304  1.6037 -0.2166
 9006SOL     OW31864   1.675   7.131   0.022  0.0669 -0.1958 -0.4128
 9006SOL    HW131865   1.650   7.185  -0.054  0.7981 -0.4807 -0.8557
 9006SOL    HW231866   1.732   7.188   0.074 -1.9098  0.6540  0.8880
 9007SOL     OW31867   2.582   5.259   2.079  0.0440 -0.7002  0.0036
 9007SOL    HW131868   2.580   5.164   2.069  0.8921 -0.7840  0.5641
 9007SOL    HW231869   2.667   5.277   2.120 -1.2231  0.0792  2.3061
 9008SOL     OW31870   2.870   7.795   2.580  0.3334 -0.2429  0.8489
 9008SOL    HW131871   2.887   7.885   2.608  0.8170 -0.7029  2.0219
 9008SOL    HW231872   2.932   7.780   2.509  0.7507  0.0922  1.1456
 9009SOL     OW31873   4.436   7.483   2.467 -0.3063 -0.0287 -0.4439
 9009SOL    HW131874   4.341   7.487   2.480 -0.0959  1.4914  0.8712
 9009SOL    HW231875   4.460   7.393   2.492 -1.2455 -0.0669  0.3437
 9010SOL     OW31876   2.310   5.581   0.032 -0.0636  0.4098 -0.3044
 9010SOL    HW131877   2.312   5.559   0.125  1.4173 -0.2236 -0.4760
 9010SOL    HW231878   2.367   5.657   0.023 -0.2950  0.5445 -0.6823
 9011SOL     OW31879   2.545   7.564   0.663  0.3815  0.0954 -0.7477
 9011SOL    HW131880   2.525   7.612   0.744 -1.5523 -0.0309 -1.1308
 9011SOL    HW231881   2.595   7.626   0.610  1.6338  0.1930  0.5104
 9012SOL     OW31882   3.565   7.148   3.676  0.6992  0.5371 -1.0993
 9012SOL    HW131883   3.555   7.069   3.730 -0.1706  2.1748  1.1993
 9012SOL    HW231884   3.659   7.169   3.681  0.7531  0.2462 -0.8935
 9013SOL     OW31885   4.269   8.070   1.660  0.1790  0.4867 -0.3353
 9013SOL    HW131886   4.284   8.001   1.724 -1.7248 -0.8849 -1.3139
 9013SOL    HW231887   4.198   8.037   1.605 -0.1590  2.8411 -1.3935
 9014SOL     OW31888   3.716   5.300   2.582  0.3481 -0.3376  0.5118
 9014SOL    HW131889   3.659   5.226   2.562 -3.5583  2.1321  1.9213
 9014SOL    HW231890   3.704   5.360   2.509  1.9686 -0.1864  0.3460
 9015SOL     OW31891   2.577   5.963   1.322  0.3507 -1.2274  0.3395
 9015SOL    HW131892   2.567   5.870   1.340 -1.4933 -1.8587 -3.3798
 9015SOL    HW231893   2.487   5.995   1.314  0.9942  0.3664 -0.7770
 9016SOL     OW31894   3.315   6.028   1.558 -0.0922 -0.0792  0.1386
 9016SOL    HW131895   3.404   6.035   1.524 -0.7294  1.0133 -1.3628
 9016SOL    HW231896   3.281   6.117   1.556 -1.1698 -0.4656  0.8283
 9017SOL     OW31897   1.748   5.040   1.089 -0.2164  0.2564  0.3201
 9017SOL    HW131898   1.747   4.963   1.146 -0.3550  0.8241  1.0993
 9017SOL    HW231899   1.833   5.036   1.045 -0.1665 -0.2646  0.4607
 9018SOL     OW31900   2.091   6.407   1.318  0.5713 -0.3796  0.6387
 9018SOL    HW131901   1.999   6.396   1.298  0.3960  0.8048  0.7361
 9018SOL    HW231902   2.096   6.398   1.414  0.5328 -0.3131  0.6472
 9019SOL     OW31903   1.241   6.729   1.340  0.3111  0.5773  0.0872
 9019SOL    HW131904   1.159   6.685   1.365  0.4858  0.8449  1.1897
 9019SOL    HW231905   1.300   6.658   1.315  0.2200  0.2684  0.7366
 9020SOL     OW31906   4.194   8.064   0.512 -0.2713 -0.0218  0.2041
 9020SOL    HW131907   4.182   8.158   0.527 -0.8602 -0.1071  0.2636
 9020SOL    HW231908   4.282   8.057   0.475 -0.7464  0.6993 -1.0975
 9021SOL     OW31909   3.105   7.038   0.028  0.2283  0.0201 -0.0001
 9021SOL    HW131910   3.105   6.950   0.068  0.0625 -0.3200 -0.7505
 9021SOL    HW231911   3.187   7.042  -0.021  0.3887  0.4074  0.3041
 9022SOL     OW31912   2.272   5.998   0.071  0.3539  0.5770 -0.0525
 9022SOL    HW131913   2.332   5.924   0.081  0.1610  0.6019  1.3140
 9022SOL    HW231914   2.319   6.073   0.107  0.3086  1.0143 -0.8787
 9023SOL     OW31915   0.995   7.018   1.381  0.4803  0.3300  0.0675
 9023SOL    HW131916   0.919   6.992   1.328 -1.1649  1.9465  1.5673
 9023SOL    HW231917   0.959   7.035   1.468  3.0676 -1.7800  1.6037
 9024SOL     OW31918   9.639   5.034   1.754  0.4349  0.2824 -0.3554
 9024SOL    HW131919   9.618   5.074   1.838 -1.7333  0.3779 -0.9184
 9024SOL    HW231920   9.599   4.947   1.758  1.0868 -0.0548 -0.9630
 9025SOL     OW31921   3.894   6.521   1.828  0.0850  0.1546 -0.1285
 9025SOL    HW131922   3.918   6.534   1.920  0.5221  1.2691 -0.3926
 9025SOL    HW231923   3.893   6.610   1.791 -1.9269 -0.1019 -0.7447
 9026SOL     OW31924   4.384   7.081   1.535  0.4438  1.2419  0.7254
 9026SOL    HW131925   4.305   7.117   1.576 -0.1049  0.0876  0.7232
 9026SOL    HW231926   4.440   7.055   1.608  0.9518  2.3174  0.7269
 9027SOL     OW31927   1.455   5.007   2.029 -0.1102  0.2659 -0.4253
 9027SOL    HW131928   1.470   5.030   2.120  1.3431  1.5330 -0.9537
 9027SOL    HW231929   1.376   4.953   2.030  0.1381 -0.0966  1.6172
 9028SOL     OW31930   2.056   6.395   0.010  0.3139  0.9985 -0.1762
 9028SOL    HW131931   2.024   6.444  -0.066  3.6329  1.6234 -1.2307
 9028SOL    HW231932   2.030   6.305  -0.007 -1.9882  1.6657 -0.3600
 9029SOL     OW31933   2.399   6.690   1.126  0.2142 -0.2258  0.7685
 9029SOL    HW131934   2.340   6.758   1.158 -0.1095 -1.1787  2.1795
 9029SOL    HW231935   2.361   6.662   1.042  0.7050  1.7726 -0.1576
 9030SOL     OW31936   4.419   7.026   0.629  0.7428  0.7330 -0.3497
 9030SOL    HW131937   4.350   6.969   0.596 -0.5180  1.9597  0.1434
 9030SOL    HW231938   4.432   7.090   0.560  2.1848 -0.1247 -0.9159
 9031SOL     OW31939   2.566   5.951   1.634 -0.6705 -0.4430  0.4346
 9031SOL    HW131940   2.529   6.029   1.592 -0.9924 -0.3650  0.8587
 9031SOL    HW231941   2.594   5.895   1.561  1.4706  0.9726  0.1410
 9032SOL     OW31942   2.914   6.002   0.557  0.0190 -0.3679  0.0881
 9032SOL    HW131943   2.852   5.974   0.489 -1.0182  1.7259  0.1370
 9032SOL    HW231944   2.869   5.986   0.639  0.0294 -0.0005  0.1669
 9033SOL     OW31945   3.813   7.461   2.192 -0.2356  0.4226 -0.6057
 9033SOL    HW131946   3.834   7.554   2.197 -0.8993  0.6574 -1.8317
 9033SOL    HW231947   3.736   7.457   2.135  0.1088 -0.9124 -0.9961
 9034SOL     OW31948   3.401   5.608   0.478  0.1492 -0.2949  0.1152
 9034SOL    HW131949   3.399   5.604   0.574 -1.5122 -0.4522  0.0953
 9034SOL    HW231950   3.383   5.519   0.450 -1.5521  0.1775 -0.3345
 9035SOL     OW31951   3.310   5.823   9.360  0.3486  0.1463 -0.4584
 9035SOL    HW131952   3.249   5.794   9.427  0.9896  0.8978  0.4739
 9035SOL    HW231953   3.391   5.775   9.379  0.6888  0.7456 -0.3523
 9036SOL     OW31954   1.251   6.476   0.921 -0.4859 -0.5856  0.2509
 9036SOL    HW131955   1.249   6.439   1.009 -0.1851 -2.4187 -0.4823
 9036SOL    HW231956   1.160   6.488   0.897 -0.5665 -0.0782  0.8198
 9037SOL     OW31957   2.882   7.008   3.640 -0.1423 -0.2536  0.0054
 9037SOL    HW131958   2.968   6.999   3.682  0.0146 -1.9116 -0.6218
 9037SOL    HW231959   2.892   7.082   3.581 -0.4037  2.2347  2.9491
 9038SOL     OW31960   3.772   8.325   0.781 -0.2282  0.5541 -0.1065
 9038SOL    HW131961   3.847   8.286   0.825  0.3939  0.6679 -1.0491
 9038SOL    HW231962   3.804   8.348   0.694 -1.3992  0.4684 -0.5763
 9039SOL     OW31963   1.554   5.777   2.696 -0.0357  0.3561 -0.4747
 9039SOL    HW131964   1.503   5.805   2.619 -1.4364  0.3883  0.4516
 9039SOL    HW231965   1.550   5.851   2.756 -0.1839 -0.2307  0.2379
 9040SOL     OW31966   3.366   6.292   0.759  0.0721  0.1051  0.6783
 9040SOL    HW131967   3.375   6.198   0.748  0.8698 -0.1356  3.1502
 9040SOL    HW231968   3.447   6.329   0.724  0.0504 -0.1787  0.3325
 9041SOL     OW31969   3.466   7.125   1.213 -0.2161 -0.1714 -0.5327
 9041SOL    HW131970   3.457   7.219   1.198 -1.1580 -0.2198 -0.3468
 9041SOL    HW231971   3.391   7.086   1.168  0.6405 -0.9163 -1.3439
 9042SOL     OW31972   1.630   8.646   1.610 -0.2331  0.5958 -0.0501
 9042SOL    HW131973   1.646   8.552   1.606 -0.1222  0.6644 -1.3240
 9042SOL    HW231974   1.682   8.676   1.685 -1.3708 -0.5585  1.2462
 9043SOL     OW31975   1.396   5.606   0.053 -0.1135 -0.3339  0.2131
 9043SOL    HW131976   1.421   5.565   0.135  1.3887 -1.2364 -0.6786
 9043SOL    HW231977   1.413   5.539  -0.013 -0.4862  0.6844 -0.9298
 9044SOL     OW31978   3.083   5.482   1.648  0.1667 -0.3291 -0.1740
 9044SOL    HW131979   2.988   5.494   1.653  0.0701 -0.5642 -1.2939
 9044SOL    HW231980   3.119   5.571   1.654 -0.1511 -0.1918 -0.3126
 9045SOL     OW31981   1.536   6.062   1.648  0.4690  0.2448  0.0658
 9045SOL    HW131982   1.500   6.146   1.619  0.6796  1.0094  1.9601
 9045SOL    HW231983   1.505   6.053   1.738  0.6099 -1.6349 -0.0598
 9046SOL     OW31984   1.768   6.771   1.877 -0.0626 -0.4936  0.0010
 9046SOL    HW131985   1.714   6.786   1.799  1.6259  2.1430 -0.7386
 9046SOL    HW231986   1.842   6.720   1.845 -0.3879 -1.1960  0.3412
 9047SOL     OW31987   2.728   7.517   1.782 -0.1972  0.2010 -0.3103
 9047SOL    HW131988   2.755   7.432   1.749  0.8675  1.0248 -1.6066
 9047SOL    HW231989   2.665   7.497   1.851 -0.8099 -1.6072 -1.3534
 9048SOL     OW31990   3.398   8.547   1.959  0.1874 -0.5646  0.3246
 9048SOL    HW131991   3.379   8.498   1.879 -0.9470 -1.8914  1.3818
 9048SOL    HW231992   3.448   8.623   1.929  1.0083 -1.7665 -1.4787
 9049SOL     OW31993   2.207   6.372   1.029 -1.0332  0.6822 -0.1866
 9049SOL    HW131994   2.273   6.412   1.086  0.1838 -1.5638  0.0217
 9049SOL    HW231995   2.124   6.390   1.073 -0.2337  0.1735  1.5809
 9050SOL     OW31996   3.747   6.581   2.672  0.0507  0.2954 -0.6220
 9050SOL    HW131997   3.791   6.559   2.590  0.5155  1.6973 -0.7691
 9050SOL    HW231998   3.657   6.554   2.659  0.3456 -0.4359 -1.2056
 9051SOL     OW31999   2.673   6.735   9.830  0.2611 -0.1525  0.2570
 9051SOL    HW132000   2.580   6.712   9.835  0.3422 -0.9564 -1.5298
 9051SOL    HW232001   2.703   6.731   9.920 -1.1923 -1.0127  0.7284
 9052SOL     OW32002   2.100   7.105   1.578  0.3380  0.4371  0.2024
 9052SOL    HW132003   2.047   7.033   1.541  1.6619  0.5581 -2.0434
 9052SOL    HW232004   2.038   7.157   1.628 -1.2234 -0.6728 -0.5259
 9053SOL     OW32005   3.685   7.678   1.821 -0.5283  0.6154  0.9987
 9053SOL    HW132006   3.754   7.717   1.875  3.3052 -1.4721 -2.1300
 9053SOL    HW232007   3.682   7.733   1.742 -1.0552 -0.4749  0.2443
 9054SOL     OW32008   0.983   5.647   0.278 -0.2018 -0.7667  0.1300
 9054SOL    HW132009   0.947   5.677   0.361  0.4442 -1.9147  0.8354
 9054SOL    HW232010   1.047   5.715   0.255 -1.0441  0.0223  0.0988
 9055SOL     OW32011   2.991   7.482   1.600  0.2548  0.2278  0.3617
 9055SOL    HW132012   3.002   7.450   1.511 -0.4588  0.4847  0.1846
 9055SOL    HW232013   2.963   7.405   1.649  1.2759 -0.0676  0.5035
 9056SOL     OW32014   2.074   5.395   0.865  0.3271 -0.8452  0.4971
 9056SOL    HW132015   2.003   5.366   0.923  1.0066 -0.5250  1.4807
 9056SOL    HW232016   2.145   5.420   0.923  0.6344  0.5098 -0.4291
 9057SOL     OW32017   1.394   7.497   2.731  0.3364  0.2129 -0.4234
 9057SOL    HW132018   1.351   7.453   2.657  2.0773 -0.7508 -0.8919
 9057SOL    HW232019   1.447   7.566   2.691  0.3734  0.4543  0.0357
 9058SOL     OW32020   3.969   6.812   2.867  0.2107 -0.5944 -0.2322
 9058SOL    HW132021   3.877   6.789   2.864  0.5246 -1.9560  0.0965
 9058SOL    HW232022   4.001   6.795   2.778  0.0017  0.5569 -0.5393
 9059SOL     OW32023   3.943   6.504   8.882  0.2255  0.2505  0.5311
 9059SOL    HW132024   3.899   6.570   8.829 -1.6106  0.7366  2.6239
 9059SOL    HW232025   3.953   6.429   8.823  0.2780  1.5555 -1.1681
 9060SOL     OW32026   3.809   7.281   0.044  0.4688 -0.0329  0.5433
 9060SOL    HW132027   3.878   7.218   0.025  1.1443  0.4675  1.3193
 9060SOL    HW232028   3.760   7.241   0.116 -0.0731 -0.3981 -0.0207
 9061SOL     OW32029   4.426   7.642   0.305 -0.1671 -0.1535 -0.3767
 9061SOL    HW132030   4.492   7.610   0.367 -0.3981  0.3675  0.1449
 9061SOL    HW232031   4.469   7.714   0.259 -0.0374 -0.4586 -0.7340
 9062SOL     OW32032   2.141   7.352   0.606 -0.2841  0.1073  0.0195
 9062SOL    HW132033   2.121   7.298   0.529 -0.2524  1.2492 -0.8033
 9062SOL    HW232034   2.071   7.417   0.609  0.5078  0.9677  0.1011
 9063SOL     OW32035   1.152   7.187   0.240  0.3134  0.9459 -0.2200
 9063SOL    HW132036   1.219   7.218   0.302  0.0884  0.6077  0.1957
 9063SOL    HW232037   1.102   7.265   0.218  0.5051  1.1001 -0.1107
 9064SOL     OW32038   3.583   6.332  10.000  0.2821 -0.0087 -0.4145
 9064SOL    HW132039   3.633   6.334   9.918 -1.2367  0.8673 -1.3375
 9064SOL    HW232040   3.550   6.421  10.011 -1.7298 -0.7358 -0.2622
 9065SOL     OW32041   4.083   6.219   9.270 -0.2496 -0.1110  0.5639
 9065SOL    HW132042   4.037   6.303   9.271 -1.1106 -0.5884  1.3130
 9065SOL    HW232043   4.139   6.221   9.348  0.7224  0.3084 -0.1350
 9066SOL     OW32044   3.999   6.894   0.845 -0.3307  0.0054  0.3783
 9066SOL    HW132045   4.038   6.973   0.883  0.0637  0.8569 -1.7406
 9066SOL    HW232046   4.058   6.871   0.773 -1.2585 -1.3593  0.0457
 9067SOL     OW32047   2.015   7.333   2.847 -0.9854 -0.1871 -0.0883
 9067SOL    HW132048   1.960   7.284   2.907 -0.4444  2.6037  2.8341
 9067SOL    HW232049   2.104   7.312   2.873 -0.7395  2.9521  1.8769
 9068SOL     OW32050   3.101   6.571   0.980 -0.5060 -0.1718 -0.4499
 9068SOL    HW132051   3.016   6.528   0.980  0.9727 -3.2127 -1.2113
 9068SOL    HW232052   3.116   6.595   1.071 -1.2251 -1.6076  0.0628
 9069SOL     OW32053   2.256   6.207   0.794  0.1853  0.3701 -0.8086
 9069SOL    HW132054   2.322   6.148   0.832 -0.2147 -1.0399 -2.2365
 9069SOL    HW232055   2.224   6.258   0.869 -1.4674 -3.1605  1.0411
 9070SOL     OW32056   0.450   7.175   0.729 -0.1621 -0.3759  0.2553
 9070SOL    HW132057   0.444   7.080   0.740 -0.3602 -0.5260 -1.1375
 9070SOL    HW232058   0.366   7.208   0.761 -1.0588 -0.8786 -1.5316
 9071SOL     OW32059   2.407   7.994   1.286  0.1245 -0.2895 -0.4377
 9071SOL    HW132060   2.373   7.988   1.197  0.1764 -1.9380 -0.3672
 9071SOL    HW232061   2.352   7.934   1.337  1.8409 -1.4925  0.0753
 9072SOL     OW32062   3.418   7.444   1.338 -0.2301  0.2946 -0.5106
 9072SOL    HW132063   3.475   7.442   1.414 -0.6269  1.0226 -0.1873
 9072SOL    HW232064   3.360   7.518   1.353  0.3119  1.0491 -1.9732
 9073SOL     OW32065   1.287   5.350   1.286  0.1232  0.6782  0.4712
 9073SOL    HW132066   1.263   5.291   1.215  0.4155  0.0519  0.8837
 9073SOL    HW232067   1.207   5.401   1.302 -0.0401  0.6017 -0.0887
 9074SOL     OW32068   2.538   7.995   8.416 -0.0641 -0.3377  0.1810
 9074SOL    HW132069   2.592   8.073   8.417 -1.6146  0.7521  0.0530
 9074SOL    HW232070   2.543   7.961   8.506 -1.1864  1.1811  0.8361
 9075SOL     OW32071   3.012   6.304   1.164 -0.0956 -0.0447 -0.2029
 9075SOL    HW132072   2.986   6.251   1.239  0.6381 -0.4225 -0.2051
 9075SOL    HW232073   2.932   6.314   1.112 -0.5589  0.0512  0.5232
 9076SOL     OW32074   3.818   6.620   3.065  0.2739  0.0677  0.5159
 9076SOL    HW132075   3.787   6.697   3.017  1.3717 -0.0500 -0.4001
 9076SOL    HW232076   3.893   6.651   3.116  1.5516 -0.6614 -0.8696
 9077SOL     OW32077   2.443   7.840   0.452 -0.2031  0.0861  0.2508
 9077SOL    HW132078   2.398   7.888   0.382  1.3791  0.4608 -0.5120
 9077SOL    HW232079   2.425   7.893   0.531 -1.3933  0.0365  0.0338
 9078SOL     OW32080   1.620   7.685   2.706  0.6209  0.0126 -0.2373
 9078SOL    HW132081   1.662   7.605   2.736  0.1719  0.1529  0.7811
 9078SOL    HW232082   1.687   7.753   2.715  0.0958  0.2945  1.6747
 9079SOL     OW32083   2.558   4.985   2.130 -0.6120  0.7205  0.4086
 9079SOL    HW132084   2.643   4.953   2.162  0.2388  1.6481 -0.8484
 9079SOL    HW232085   2.510   5.008   2.209 -0.6725 -2.1875  1.2539
 9080SOL     OW32086   1.854   7.791   9.913  0.6612  0.1468  0.9231
 9080SOL    HW132087   1.858   7.853   9.985  0.5625  2.6315 -1.1137
 9080SOL    HW232088   1.765   7.802   9.878  0.2981 -1.8990  1.1697
 9081SOL     OW32089   2.800   5.997   3.619  0.4350  0.5124 -0.6526
 9081SOL    HW132090   2.876   6.055   3.622  1.7586 -1.1831 -0.8265
 9081SOL    HW232091   2.756   6.011   3.703  0.8134  1.6557 -0.6405
 9082SOL     OW32092   1.909   5.624   1.254  0.2873  0.2983  0.5359
 9082SOL    HW132093   1.960   5.549   1.224 -2.0626 -1.6601  1.2956
 9082SOL    HW232094   1.872   5.661   1.173  0.4632 -0.0871  0.2761
 9083SOL     OW32095   2.131   6.842   1.004 -0.3957  0.2659 -0.6392
 9083SOL    HW132096   2.144   6.876   1.093  0.2310  0.0929 -0.6642
 9083SOL    HW232097   2.052   6.788   1.011 -0.7922  0.8799 -0.3614
 9084SOL     OW32098   2.372   8.049   9.608  0.0175 -0.0592 -0.0887
 9084SOL    HW132099   2.414   8.002   9.681 -0.7418 -0.2259  0.2397
 9084SOL    HW232100   2.338   8.130   9.648 -2.0505 -1.0179  0.1420
 9085SOL     OW32101   3.085   7.357   2.978  0.3688  0.1592 -0.9003
 9085SOL    HW132102   3.102   7.324   3.067  0.1249 -1.1070 -1.3224
 9085SOL    HW232103   3.037   7.439   2.992 -0.7245 -0.6369  0.1195
 9086SOL     OW32104   1.523   7.816   1.487 -0.4860 -0.0991  0.0654
 9086SOL    HW132105   1.549   7.726   1.504  0.0327  0.0878  0.2666
 9086SOL    HW232106   1.485   7.815   1.399 -0.1417 -0.4361 -0.0769
 9087SOL     OW32107   1.766   7.163   8.354 -0.1867  0.1521 -0.4428
 9087SOL    HW132108   1.851   7.190   8.387  0.0686 -1.7620  0.5779
 9087SOL    HW232109   1.704   7.192   8.420 -0.4081  1.9793 -1.4228
 9088SOL     OW32110   3.952   6.094   2.426  0.1031  0.2940  0.0086
 9088SOL    HW132111   3.922   6.005   2.445 -2.6118  1.1353 -0.1678
 9088SOL    HW232112   4.001   6.119   2.505  2.8533 -2.1145 -0.8301
 9089SOL     OW32113   1.157   6.500   0.189  0.3251  0.2083 -0.2690
 9089SOL    HW132114   1.075   6.547   0.204  0.8560  1.3234 -0.8195
 9089SOL    HW232115   1.152   6.471   0.098  1.1231  1.4534 -0.7177
 9090SOL     OW32116   3.556   7.347   0.605 -0.7934  0.0389 -0.2330
 9090SOL    HW132117   3.602   7.428   0.624  0.4830 -0.7998  0.3119
 9090SOL    HW232118   3.502   7.367   0.528  1.2576  0.7484 -1.5149
 9091SOL     OW32119   2.263   6.944   9.050  0.5064  0.1284  0.1172
 9091SOL    HW132120   2.207   6.885   9.100 -0.7337  1.3820  0.2190
 9091SOL    HW232121   2.340   6.957   9.105  0.1551 -0.2849  0.7035
 9092SOL     OW32122   3.704   7.230   1.465 -0.2795  0.5381 -0.6198
 9092SOL    HW132123   3.762   7.241   1.390 -0.1783  1.6134 -0.3841
 9092SOL    HW232124   3.619   7.261   1.435 -0.1717  1.2411 -0.2003
 9093SOL     OW32125   1.878   6.559   1.016 -0.1412 -0.1494 -0.3617
 9093SOL    HW132126   1.828   6.580   0.937  1.9221 -0.1048 -1.6754
 9093SOL    HW232127   1.862   6.466   1.030  0.3061 -0.3938 -1.4394
 9094SOL     OW32128   2.547   7.390   2.347 -0.3275  0.0786  0.1786
 9094SOL    HW132129   2.621   7.367   2.404 -1.5914 -1.8716  1.0966
 9094SOL    HW232130   2.541   7.485   2.353  0.5174  0.0385  2.1162
 9095SOL     OW32131   1.609   8.269   0.784 -0.6312 -0.4489  0.1645
 9095SOL    HW132132   1.684   8.328   0.795 -2.1893  1.3931  1.0856
 9095SOL    HW232133   1.591   8.272   0.690  0.3546 -0.8089 -0.0471
 9096SOL     OW32134   2.851   6.327   3.418  0.4928  0.1191  0.8158
 9096SOL    HW132135   2.849   6.316   3.323 -0.8753  0.5395  0.7925
 9096SOL    HW232136   2.940   6.301   3.443  0.6729 -0.5698 -0.5007
 9097SOL     OW32137   3.459   6.534   9.751 -0.0395 -0.1476  0.5843
 9097SOL    HW132138   3.384   6.487   9.788 -0.3023 -0.1448  0.0703
 9097SOL    HW232139   3.424   6.619   9.725 -0.3911 -0.9379 -1.6512
 9098SOL     OW32140   2.440   5.854   9.522  0.3301  0.0682 -0.2122
 9098SOL    HW132141   2.448   5.808   9.606 -1.3400  0.1104 -0.0083
 9098SOL    HW232142   2.379   5.800   9.472  0.5292  0.5955 -1.0151
 9099SOL     OW32143   3.083   5.535   2.326 -0.3759  0.0956  0.5978
 9099SOL    HW132144   3.086   5.441   2.344 -2.0890  0.1852  1.4421
 9099SOL    HW232145   3.106   5.576   2.410  0.0606  0.4358  0.3128
 9100SOL     OW32146   2.718   6.293   1.307 -0.8403 -0.6577  0.2644
 9100SOL    HW132147   2.769   6.212   1.302  1.0037  0.6173 -3.1899
 9100SOL    HW232148   2.630   6.268   1.279 -0.5151 -1.6692  0.1418
 9101SOL     OW32149   2.591   7.970   9.117 -0.4695 -0.1923  0.2334
 9101SOL    HW132150   2.530   8.043   9.129 -2.8474 -1.9403 -0.8787
 9101SOL    HW232151   2.667   7.995   9.169 -1.7984  2.4064  1.0639
 9102SOL     OW32152   3.179   8.947   1.328  0.5399 -0.2257 -0.2296
 9102SOL    HW132153   3.103   8.994   1.362  0.7915  0.2259 -0.2744
 9102SOL    HW232154   3.163   8.855   1.349  0.2567 -0.0601  0.2838
 9103SOL     OW32155   0.814   5.704   2.019  0.4352  0.0214 -0.3210
 9103SOL    HW132156   0.862   5.622   2.029 -0.4151 -0.5659 -0.9800
 9103SOL    HW232157   0.821   5.746   2.104  0.0421 -1.1979  0.3257
 9104SOL     OW32158   2.685   8.077   0.666  0.6123  0.2284  0.1624
 9104SOL    HW132159   2.700   8.104   0.756  0.0024 -1.7290  0.8748
 9104SOL    HW232160   2.590   8.073   0.657  0.6738 -1.6370  0.0963
 9105SOL     OW32161   4.601   8.965   1.911  0.1138  0.1011 -0.0328
 9105SOL    HW132162   4.536   8.916   1.962  0.8055 -0.4528  0.3358
 9105SOL    HW232163   4.592   8.932   1.822 -1.2362  1.2132 -0.3153
 9106SOL     OW32164   1.469   5.871   2.454 -0.6531 -0.8011 -0.0245
 9106SOL    HW132165   1.483   5.824   2.371  0.4298  0.4173 -0.5468
 9106SOL    HW232166   1.425   5.952   2.428 -0.4714 -0.4935  0.6181
 9107SOL     OW32167   0.911   6.899   2.645 -0.2721 -0.1146  0.2412
 9107SOL    HW132168   0.966   6.901   2.723 -0.3186  0.5403  0.2537
 9107SOL    HW232169   0.945   6.969   2.589 -1.2839  0.4956  0.3815
 9108SOL     OW32170   3.458   4.916   1.260  0.8457 -0.1793  0.1277
 9108SOL    HW132171   3.504   4.964   1.190  0.1481  2.8981  1.6893
 9108SOL    HW232172   3.405   4.851   1.214  0.3794  1.7992 -2.2205
 9109SOL     OW32173   3.659   5.282   0.615 -0.2286  0.1098  0.5618
 9109SOL    HW132174   3.649   5.330   0.533 -0.4167  0.1781  0.6240
 9109SOL    HW232175   3.750   5.296   0.640 -0.4083  0.8372  0.8288
 9110SOL     OW32176   3.167   6.507   1.277  0.2717  0.1675 -0.7576
 9110SOL    HW132177   3.222   6.472   1.347 -1.3568  0.6843  0.8024
 9110SOL    HW232178   3.118   6.431   1.245 -0.1514  0.2206 -0.2443
 9111SOL     OW32179   3.491   6.666   1.264  0.6816  0.4571 -1.1852
 9111SOL    HW132180   3.405   6.703   1.246  0.7787  0.1097 -2.4150
 9111SOL    HW232181   3.552   6.740   1.252  0.6192  0.5436 -0.9706
 9112SOL     OW32182   2.901   5.665   1.363  0.7920  0.5524  0.0196
 9112SOL    HW132183   2.863   5.591   1.316 -0.9130  1.6141 -0.3446
 9112SOL    HW232184   2.915   5.632   1.452 -0.4234 -0.0602 -0.0033
 9113SOL     OW32185   2.522   5.232   9.221 -0.5498  0.5831  0.1183
 9113SOL    HW132186   2.482   5.209   9.138  2.5341 -0.7453 -1.0716
 9113SOL    HW232187   2.532   5.149   9.267  0.2414  0.9590  0.6466
 9114SOL     OW32188   1.352   6.395   9.440 -0.1703 -0.2223 -0.0516
 9114SOL    HW132189   1.362   6.315   9.388  0.5190 -0.5574  0.5816
 9114SOL    HW232190   1.348   6.465   9.375 -1.4049 -0.8211 -0.6373
 9115SOL     OW32191   2.841   6.378   0.590  0.1125 -0.5610  0.0563
 9115SOL    HW132192   2.750   6.350   0.584 -0.3730  1.3368 -1.7518
 9115SOL    HW232193   2.888   6.321   0.529  0.0201 -0.9808  0.3717
 9116SOL     OW32194   1.851   5.077   0.001  0.4370  0.0995 -0.2144
 9116SOL    HW132195   1.871   4.995   0.047  0.0489  0.3947  0.4940
 9116SOL    HW232196   1.764   5.101   0.033 -0.0905  0.0022 -1.5711
 9117SOL     OW32197   2.679   5.011   0.920  0.0223  0.1755 -0.1112
 9117SOL    HW132198   2.621   5.063   0.866 -0.1609  1.5937  1.4095
 9117SOL    HW232199   2.688   4.928   0.873 -0.5348  1.1761 -2.0183
 9118SOL     OW32200   3.201   6.412   2.206  0.1006 -0.0362 -0.2108
 9118SOL    HW132201   3.109   6.431   2.186  0.3555  1.2367 -0.2354
 9118SOL    HW232202   3.248   6.433   2.125  0.7835  2.3224  0.7598
 9119SOL     OW32203   1.788   5.828   0.782 -0.2845 -0.1600 -0.0317
 9119SOL    HW132204   1.868   5.816   0.731 -0.7108 -0.4988 -0.6410
 9119SOL    HW232205   1.795   5.917   0.817  0.1087  0.0075 -0.5263
 9120SOL     OW32206   1.663   6.737   9.694 -0.3885 -0.2821  0.2974
 9120SOL    HW132207   1.590   6.725   9.755 -1.3521 -0.5905 -0.8993
 9120SOL    HW232208   1.665   6.656   9.643 -0.9693  0.8449 -1.5363
 9121SOL     OW32209   1.129   5.078   3.173  0.1760  0.1703 -0.1823
 9121SOL    HW132210   1.070   5.006   3.192  1.6405 -0.9070  0.3512
 9121SOL    HW232211   1.085   5.128   3.105 -1.3851 -0.5587  0.2672
 9122SOL     OW32212   0.679   7.125   2.601  0.0798  0.4826  0.0221
 9122SOL    HW132213   0.711   7.157   2.517 -1.3378 -0.4995 -0.9207
 9122SOL    HW232214   0.589   7.156   2.605 -1.4613 -3.5228 -1.0840
 9123SOL     OW32215   2.096   6.446   4.712 -0.6181 -0.0776 -0.0179
 9123SOL    HW132216   2.066   6.368   4.665 -0.7931  0.8193 -1.3950
 9123SOL    HW232217   2.163   6.412   4.773 -0.5591 -1.2774 -0.7296
 9124SOL     OW32218   3.256   6.842   0.398 -0.3671 -0.2362 -0.0384
 9124SOL    HW132219   3.183   6.900   0.375 -0.3330 -0.2686 -0.2325
 9124SOL    HW232220   3.308   6.837   0.318 -1.2490 -1.8269 -0.5149
 9125SOL     OW32221   2.959   4.455   1.847  0.2236  0.3159  0.1079
 9125SOL    HW132222   2.993   4.494   1.767 -0.5430 -0.5085 -0.6300
 9125SOL    HW232223   2.864   4.453   1.835  0.3009 -2.7646 -0.3684
 9126SOL     OW32224   3.266   4.477   2.386  0.6641 -0.6558  0.0247
 9126SOL    HW132225   3.247   4.482   2.480 -0.4131 -0.8642 -0.1691
 9126SOL    HW232226   3.361   4.480   2.380  0.7879 -1.6698  1.1988
 9127SOL     OW32227   2.967   6.627   4.636 -0.7400 -0.0024  0.3276
 9127SOL    HW132228   2.975   6.720   4.655 -0.3203 -0.1062  0.6766
 9127SOL    HW232229   3.049   6.604   4.592 -0.4646 -0.3941  1.0365
 9128SOL     OW32230   0.668   6.692   3.233  0.2979 -0.1021 -0.3740
 9128SOL    HW132231   0.718   6.714   3.154 -1.4449 -1.6652 -1.9545
 9128SOL    HW232232   0.577   6.699   3.206 -0.3273 -0.2793  1.6447
 9129SOL     OW32233   2.552   6.215   3.124  0.1770 -0.7208  0.1472
 9129SOL    HW132234   2.480   6.235   3.184  0.2428 -2.0341  0.6647
 9129SOL    HW232235   2.609   6.292   3.129  0.4061 -0.9856  2.1114
 9130SOL     OW32236   0.663   6.981   4.156 -1.0856 -0.1196  0.8093
 9130SOL    HW132237   0.692   6.910   4.099  0.5508  0.5114  0.8216
 9130SOL    HW232238   0.663   6.942   4.244  1.6378  0.3556  1.0807
 9131SOL     OW32239   0.463   7.403   3.056  0.0911 -0.3632  0.0306
 9131SOL    HW132240   0.379   7.357   3.067  0.8451 -1.0645  3.3412
 9131SOL    HW232241   0.529   7.335   3.074  1.3452  0.5388 -1.1286
 9132SOL     OW32242   5.215   7.731   2.752  0.1381 -0.0226 -0.5221
 9132SOL    HW132243   5.255   7.773   2.676  1.8057 -0.5833  0.0083
 9132SOL    HW232244   5.221   7.797   2.821 -2.6201  0.9852 -1.2083
 9133SOL     OW32245   2.189   5.611   3.698  0.3752  0.0099  0.5200
 9133SOL    HW132246   2.130   5.638   3.768 -0.6751  0.8904 -0.6766
 9133SOL    HW232247   2.162   5.522   3.676  0.9893 -0.4233  1.5274
 9134SOL     OW32248   2.500   4.620   1.438  0.3353 -0.7714 -0.2488
 9134SOL    HW132249   2.595   4.618   1.439  0.4272  1.1383 -2.5068
 9134SOL    HW232250   2.476   4.673   1.514  1.0318 -1.8672  0.7430
 9135SOL     OW32251   1.598   8.158   2.996  0.5683 -0.7239  0.5616
 9135SOL    HW132252   1.681   8.198   3.020  0.3746 -0.4954  0.8498
 9135SOL    HW232253   1.622   8.086   2.938  0.9455 -0.4738  0.4082
 9136SOL     OW32254   3.176   7.038   3.823 -0.7509 -0.1159 -0.0538
 9136SOL    HW132255   3.227   7.111   3.788 -0.2561 -0.4056  0.0601
 9136SOL    HW232256   3.116   7.078   3.885  0.1980  0.0773  0.7447
 9137SOL     OW32257   2.955   5.494   3.569 -0.2046  0.1503 -0.3293
 9137SOL    HW132258   2.934   5.560   3.635 -0.1111  1.6036 -1.7176
 9137SOL    HW232259   2.922   5.530   3.487 -2.5735 -2.7448 -0.7258
 9138SOL     OW32260   2.377   6.302   2.535 -0.0643 -0.3387  0.9275
 9138SOL    HW132261   2.311   6.248   2.579 -0.3168  0.8332  2.0223
 9138SOL    HW232262   2.353   6.299   2.443  0.6511 -3.0841  0.7996
 9139SOL     OW32263   2.327   6.576   2.607 -0.1810  0.4974 -0.0812
 9139SOL    HW132264   2.338   6.489   2.569 -0.9010  0.4807 -0.2591
 9139SOL    HW232265   2.367   6.570   2.694 -0.2420 -0.0208 -0.0885
 9140SOL     OW32266   2.615   8.572   1.867 -0.6646  0.6727  0.5790
 9140SOL    HW132267   2.586   8.632   1.936 -0.7187  0.5208  0.6906
 9140SOL    HW232268   2.534   8.533   1.833 -0.5999  0.2763  0.8645
 9141SOL     OW32269   2.520   5.507   2.524 -0.7671 -0.8969  0.4502
 9141SOL    HW132270   2.609   5.493   2.492  0.0515 -0.0048  2.2330
 9141SOL    HW232271   2.480   5.567   2.461  1.2631  1.9893  1.7829
 9142SOL     OW32272   1.865   6.802   1.125  0.4051 -0.0797 -0.1721
 9142SOL    HW132273   1.874   6.715   1.088 -1.8839  0.1827 -1.3486
 9142SOL    HW232274   1.800   6.846   1.071  2.3925  2.8110 -0.3727
 9143SOL     OW32275   2.717   6.640   2.750  0.0869  0.4733 -0.0073
 9143SOL    HW132276   2.792   6.660   2.693 -0.6331 -1.5625 -1.7305
 9143SOL    HW232277   2.661   6.718   2.744  0.8368  0.9595 -0.7488
 9144SOL     OW32278   2.494   6.492   2.814 -0.1169  0.0727 -0.1806
 9144SOL    HW132279   2.467   6.562   2.873  0.4004  0.3632 -0.2895
 9144SOL    HW232280   2.585   6.512   2.793 -0.2031 -0.2093 -0.8201
 9145SOL     OW32281   3.887   5.130   2.715  0.2043 -0.4325  0.0169
 9145SOL    HW132282   3.856   5.196   2.653 -0.7579 -1.3868 -0.5295
 9145SOL    HW232283   3.813   5.115   2.773  0.3440 -1.1707  0.0116
 9146SOL     OW32284   3.203   6.128   4.361 -0.0901 -0.0182  0.1940
 9146SOL    HW132285   3.255   6.062   4.406 -0.2572 -0.0680  0.3136
 9146SOL    HW232286   3.210   6.105   4.268  3.0140  2.0181 -0.1705
 9147SOL     OW32287   2.932   6.722   3.679 -0.0007 -0.0658  0.4321
 9147SOL    HW132288   2.950   6.669   3.601  1.9145  1.1392  0.0114
 9147SOL    HW232289   2.878   6.794   3.648 -1.6495 -1.1403  0.7843
 9148SOL     OW32290   2.134   7.981   3.736 -0.0450 -0.0156  0.4590
 9148SOL    HW132291   2.213   8.036   3.737 -0.2873  0.3277  1.6006
 9148SOL    HW232292   2.130   7.947   3.647  1.4048 -0.0469  0.3899
 9149SOL     OW32293   3.752   7.850   4.645 -0.2104  0.3827  0.4856
 9149SOL    HW132294   3.745   7.936   4.688 -2.7787 -0.1465  1.2291
 9149SOL    HW232295   3.755   7.788   4.717 -0.7131 -0.2876 -0.0701
 9150SOL     OW32296   4.470   7.203   3.091  0.0890 -0.0189  0.4087
 9150SOL    HW132297   4.380   7.171   3.099  0.4190 -0.7608  1.3208
 9150SOL    HW232298   4.514   7.138   3.035  0.0348  0.4008 -0.1268
 9151SOL     OW32299   2.616   6.337   4.715  0.0623 -0.1721 -0.2608
 9151SOL    HW132300   2.579   6.305   4.633  1.4427 -0.5308 -0.7404
 9151SOL    HW232301   2.570   6.287   4.783 -0.4731 -0.4804 -0.8460
 9152SOL     OW32302   4.297   5.170   2.899 -0.0080 -0.0757 -0.0457
 9152SOL    HW132303   4.216   5.206   2.935  0.3546  1.0205 -0.3038
 9152SOL    HW232304   4.367   5.220   2.942  0.5623 -1.6817  0.9058
 9153SOL     OW32305   1.949   5.977   3.691  0.1792  0.2852  0.1204
 9153SOL    HW132306   1.858   5.953   3.709 -0.4164  1.0284 -1.8127
 9153SOL    HW232307   1.975   5.921   3.618  1.2159  0.1907  0.5559
 9154SOL     OW32308   1.678   5.907   4.574  0.2673  0.1823  0.7180
 9154SOL    HW132309   1.699   5.959   4.651 -0.9519  2.1622 -0.2446
 9154SOL    HW232310   1.585   5.886   4.584  0.7576 -1.9173  1.1297
 9155SOL     OW32311   2.652   6.547   1.219  0.0697 -0.5214 -0.1676
 9155SOL    HW132312   2.672   6.453   1.218  0.7534 -0.3750 -0.3265
 9155SOL    HW232313   2.636   6.567   1.311 -0.9023 -0.9646 -0.2321
 9156SOL     OW32314   2.207   6.867   2.931  0.2161 -0.4667  0.8681
 9156SOL    HW132315   2.197   6.857   2.836 -0.5397 -1.5708  1.0584
 9156SOL    HW232316   2.123   6.901   2.960  0.4959  0.0081  1.1446
 9157SOL     OW32317   2.357   5.290   2.469 -0.8045  0.5643  0.1984
 9157SOL    HW132318   2.409   5.253   2.397 -1.2717  0.4756 -0.0934
 9157SOL    HW232319   2.412   5.360   2.504 -0.4987  0.4916 -0.1308
 9158SOL     OW32320   3.609   8.391   2.410  0.5522  0.0387 -0.1804
 9158SOL    HW132321   3.625   8.473   2.457 -4.1882 -0.0857  1.9364
 9158SOL    HW232322   3.549   8.414   2.340 -0.9377 -1.5545  0.5135
 9159SOL     OW32323   3.133   6.386   4.991 -0.2638  0.1803  0.6236
 9159SOL    HW132324   3.194   6.422   4.927 -0.2568 -1.2129 -0.1577
 9159SOL    HW232325   3.138   6.447   5.065  2.1790 -0.0044  0.6459
 9160SOL     OW32326   2.472   5.490   2.175 -0.0765  0.2262  0.8782
 9160SOL    HW132327   2.536   5.555   2.146 -2.1136  1.3189 -1.3995
 9160SOL    HW232328   2.502   5.408   2.137 -1.0965  1.1139 -2.0137
 9161SOL     OW32329   1.417   6.068   3.661  0.0256  0.1544 -0.7127
 9161SOL    HW132330   1.437   6.153   3.622 -0.3982  0.2623 -0.6983
 9161SOL    HW232331   1.378   6.089   3.746 -2.6800  0.0435 -1.8699
 9162SOL     OW32332   0.935   6.535   2.841 -0.2080  0.6101  0.3598
 9162SOL    HW132333   0.901   6.614   2.799  3.1226  0.3705 -3.0961
 9162SOL    HW232334   0.982   6.567   2.917  0.7892  1.9856 -0.8064
 9163SOL     OW32335   3.895   7.334   2.942  0.2938  0.2132  0.1871
 9163SOL    HW132336   3.985   7.366   2.946  0.2904  0.1364  0.8999
 9163SOL    HW232337   3.903   7.244   2.909  0.3220  0.8338 -1.5768
 9164SOL     OW32338   1.197   6.459   2.769  0.3233 -0.0937 -0.4663
 9164SOL    HW132339   1.220   6.460   2.676  2.4823  1.6142  0.0508
 9164SOL    HW232340   1.110   6.498   2.773  1.5772  2.9585 -1.4798
 9165SOL     OW32341   2.158   8.216   3.521 -0.5996 -0.0601  0.4558
 9165SOL    HW132342   2.078   8.224   3.469 -1.3421 -1.3260  1.3854
 9165SOL    HW232343   2.197   8.133   3.492  1.1007  1.1790 -0.9552
 9166SOL     OW32344   2.381   4.388   1.102  0.2553 -0.1911  0.0290
 9166SOL    HW132345   2.310   4.336   1.141 -0.0591  0.7021  0.6706
 9166SOL    HW232346   2.347   4.414   1.016 -0.4904  0.8033  0.6057
 9167SOL     OW32347   3.707   5.079   2.910  0.2461 -0.4986  0.1233
 9167SOL    HW132348   3.631   5.032   2.943 -1.4190  0.3528 -2.3404
 9167SOL    HW232349   3.710   5.160   2.962 -1.1888 -0.0448 -0.4783
 9168SOL     OW32350   2.518   6.611   2.120 -0.3723  0.4870 -0.0246
 9168SOL    HW132351   2.568   6.670   2.176 -1.3676  1.0488  0.2930
 9168SOL    HW232352   2.443   6.663   2.090 -0.3508 -0.0871 -1.1351
 9169SOL     OW32353   0.879   6.274   3.160  0.0483  0.3116  0.0696
 9169SOL    HW132354   0.872   6.287   3.065  0.4218  0.5888  0.0780
 9169SOL    HW232355   0.793   6.296   3.194  0.6472  2.7350  0.0753
 9170SOL     OW32356   3.340   7.256   2.605  0.5828 -0.1841  0.0498
 9170SOL    HW132357   3.317   7.328   2.664 -0.6898  0.1285 -0.7904
 9170SOL    HW232358   3.410   7.292   2.550 -0.3803  0.5939 -0.6869
 9171SOL     OW32359   1.592   7.475   4.539  0.3951 -0.2665 -0.1888
 9171SOL    HW132360   1.574   7.424   4.618  1.6177 -0.2573  0.1032
 9171SOL    HW232361   1.538   7.434   4.471 -0.1790 -0.6663  0.5080
 9172SOL     OW32362   3.695   6.947   2.546 -0.2488  0.3052 -0.7334
 9172SOL    HW132363   3.603   6.920   2.542 -0.4080  0.2458  2.2268
 9172SOL    HW232364   3.694   7.030   2.593  1.3265 -0.4763  0.7618
 9173SOL     OW32365   0.116   6.352   3.130  0.2141  0.3571  0.4266
 9173SOL    HW132366   0.073   6.434   3.157  0.3532  0.5520  0.0653
 9173SOL    HW232367   0.123   6.360   3.035 -0.4662 -0.4181  0.3143
 9174SOL     OW32368   1.710   5.594   2.056  0.0448  0.2676  0.5178
 9174SOL    HW132369   1.663   5.543   1.991 -0.1849  0.5343  0.4725
 9174SOL    HW232370   1.753   5.663   2.005  0.3656  0.1122  0.5760
 9175SOL     OW32371   4.885   7.438   2.749  0.7446  0.3476  0.3510
 9175SOL    HW132372   4.865   7.501   2.680 -0.5143  1.0332  1.3191
 9175SOL    HW232373   4.979   7.420   2.739  0.3467 -0.4104 -2.2157
 9176SOL     OW32374   1.642   5.640   3.828 -0.3021 -0.2600  0.1777
 9176SOL    HW132375   1.668   5.609   3.741  1.6345  0.1461  0.5898
 9176SOL    HW232376   1.635   5.735   3.819  1.5419 -0.0398  0.8505
 9177SOL     OW32377   3.078   6.695   1.716  0.5574 -0.6812  0.0302
 9177SOL    HW132378   3.046   6.670   1.629  1.3081  1.5519 -0.9186
 9177SOL    HW232379   3.128   6.775   1.701 -0.0638  0.2345  2.6754
 9178SOL     OW32380   2.332   5.830   3.988 -0.6739 -0.0277  0.3724
 9178SOL    HW132381   2.335   5.737   3.965 -0.9057 -0.0043  0.2533
 9178SOL    HW232382   2.275   5.869   3.922 -1.4554  0.0167  1.0678
 9179SOL     OW32383   3.635   4.284   2.879 -0.3889 -0.1054  0.0464
 9179SOL    HW132384   3.636   4.291   2.784 -0.5426  2.3530  0.2074
 9179SOL    HW232385   3.543   4.266   2.901 -0.1550 -1.8669 -0.3119
 9180SOL     OW32386   1.988   6.436   1.576 -0.0787 -0.3158 -0.3613
 9180SOL    HW132387   1.976   6.381   1.653 -0.6008 -0.5610 -0.6132
 9180SOL    HW232388   1.900   6.467   1.555  0.2190  0.6462 -0.1991
 9181SOL     OW32389   4.752   5.757   2.728  0.1926  0.2365  0.5076
 9181SOL    HW132390   4.660   5.733   2.738  0.1736 -0.2482 -0.7950
 9181SOL    HW232391   4.755   5.851   2.747 -0.5658  0.2483  0.5627
 9182SOL     OW32392   2.169   7.637   1.763 -0.4097  0.2352 -1.1809
 9182SOL    HW132393   2.191   7.591   1.682 -0.0237 -0.0933 -0.8896
 9182SOL    HW232394   2.109   7.706   1.735  0.8629  1.0581 -1.9717
 9183SOL     OW32395   1.840   6.390   3.430 -0.5427  0.3549  0.0473
 9183SOL    HW132396   1.768   6.410   3.370  0.0936  2.3415 -0.0957
 9183SOL    HW232397   1.905   6.346   3.377 -0.6038  0.7898 -0.3901
 9184SOL     OW32398   1.741   7.193   2.284 -0.2854  0.8097  0.2961
 9184SOL    HW132399   1.794   7.265   2.249  0.9129  0.3199  1.1155
 9184SOL    HW232400   1.666   7.188   2.224  0.3124  1.8487 -0.5525
 9185SOL     OW32401   2.725   4.720   2.505  0.0114  0.4607 -0.2072
 9185SOL    HW132402   2.632   4.739   2.508 -0.2494 -0.5970 -1.1531
 9185SOL    HW232403   2.730   4.626   2.485  1.2599  0.1627  1.3396
 9186SOL     OW32404   1.041   5.748   3.206  0.1116  0.4619 -0.2160
 9186SOL    HW132405   0.979   5.748   3.133 -0.4615 -0.1630  0.2764
 9186SOL    HW232406   1.038   5.838   3.239 -1.7457  0.0245  0.8456
 9187SOL     OW32407   3.110   5.947   2.489 -0.4358 -0.0111 -0.1301
 9187SOL    HW132408   3.151   6.022   2.447  0.8487 -1.7399 -2.0348
 9187SOL    HW232409   3.016   5.967   2.489 -0.0103  2.0859  0.4688
 9188SOL     OW32410   2.646   5.717   4.093 -0.0792 -0.3577 -0.1377
 9188SOL    HW132411   2.687   5.674   4.167  0.2145  0.2334  0.0431
 9188SOL    HW232412   2.651   5.653   4.022  0.1524 -0.7049  0.1940
 9189SOL     OW32413   3.592   7.503   2.707 -0.4114  0.8028  0.3125
 9189SOL    HW132414   3.543   7.553   2.772 -1.8552  0.2461 -0.3168
 9189SOL    HW232415   3.572   7.547   2.624  3.5061  3.1190  0.5009
 9190SOL     OW32416   1.844   6.368   0.793 -0.4648  0.6137 -0.6916
 9190SOL    HW132417   1.783   6.442   0.788 -0.1236  0.9402 -0.0949
 9190SOL    HW232418   1.907   6.384   0.723 -0.6300  0.6688 -0.8300
 9191SOL     OW32419   2.416   5.457   3.079  0.2032 -0.7518  0.0600
 9191SOL    HW132420   2.352   5.527   3.068  0.6125 -0.4963 -0.6673
 9191SOL    HW232421   2.460   5.450   2.995 -0.8977 -2.9369 -0.3755
 9192SOL     OW32422   1.215   7.205   2.674  0.2390 -0.1746  0.0600
 9192SOL    HW132423   1.165   7.139   2.723  1.1855 -0.9999 -0.0626
 9192SOL    HW232424   1.156   7.233   2.604 -0.2524 -0.7423  0.2402
 9193SOL     OW32425   3.068   6.195   1.507 -0.0167  0.5279  0.1623
 9193SOL    HW132426   2.994   6.190   1.567 -1.5873  1.3588 -1.6452
 9193SOL    HW232427   3.114   6.275   1.533 -1.4610  1.6197 -0.5789
 9194SOL     OW32428   1.870   5.436   2.970  0.4139  1.2188  0.7103
 9194SOL    HW132429   1.946   5.380   2.962  0.8694  1.8407  0.6402
 9194SOL    HW232430   1.888   5.510   2.911 -0.9255  0.6078 -0.4992
 9195SOL     OW32431   2.362   4.582   3.360  0.3643  0.3550 -0.2943
 9195SOL    HW132432   2.317   4.551   3.439  0.4952 -0.0378 -0.3725
 9195SOL    HW232433   2.454   4.589   3.386  0.2818  0.9936 -0.1837
 9196SOL     OW32434   2.631   6.191   2.258 -0.8514  0.0643 -0.5056
 9196SOL    HW132435   2.622   6.096   2.260 -1.6394  0.1266 -0.7348
 9196SOL    HW232436   2.654   6.215   2.348 -0.7929 -0.3344 -0.4144
 9197SOL     OW32437   2.728   6.480   4.458  0.3956 -0.0515 -0.6605
 9197SOL    HW132438   2.752   6.510   4.371 -1.0441 -0.0716 -1.0885
 9197SOL    HW232439   2.641   6.441   4.446  0.4541 -0.6047  0.6623
 9198SOL     OW32440   1.489   7.645   2.480 -0.0109  0.3427  0.6185
 9198SOL    HW132441   1.435   7.721   2.458  1.5869  1.4563  0.4876
 9198SOL    HW232442   1.555   7.679   2.540  3.7580  0.1596 -3.2308
 9199SOL     OW32443   3.510   7.363   2.434  0.2809 -0.3229 -0.1812
 9199SOL    HW132444   3.545   7.317   2.358  1.7321  1.0053 -0.3594
 9199SOL    HW232445   3.535   7.455   2.420  1.0007 -0.1328  2.1077
 9200SOL     OW32446   1.167   6.414   9.928  0.2544  0.2865 -0.0648
 9200SOL    HW132447   1.245   6.362   9.945 -0.5195 -1.0881 -0.7047
 9200SOL    HW232448   1.199   6.489   9.877  1.1381 -0.3290 -0.4356
 9201SOL     OW32449   1.714   6.951   3.893  0.1580 -0.2939 -0.1398
 9201SOL    HW132450   1.672   6.913   3.816 -0.0874 -1.7093  0.6787
 9201SOL    HW232451   1.805   6.922   3.886  0.6714  1.4725 -1.0854
 9202SOL     OW32452   1.249   6.156   2.686  0.3683 -0.1749 -0.1200
 9202SOL    HW132453   1.175   6.154   2.746  0.1010 -1.4529 -0.4776
 9202SOL    HW232454   1.308   6.089   2.718  0.7538 -0.0715 -0.6065
 9203SOL     OW32455   2.157   5.713   0.815 -0.1618 -0.3079  0.4225
 9203SOL    HW132456   2.206   5.772   0.873  0.5767  0.7735 -1.2611
 9203SOL    HW232457   2.184   5.626   0.841  0.5518  0.1872  1.3715
 9204SOL     OW32458   3.370   5.568   2.125 -0.4102 -0.0218 -0.0419
 9204SOL    HW132459   3.312   5.623   2.073  1.4775  0.6677 -1.4709
 9204SOL    HW232460   3.380   5.616   2.208 -2.8903 -0.8030  0.7546
 9205SOL     OW32461   2.006   6.318   3.970 -0.3615  0.2812 -0.2876
 9205SOL    HW132462   1.950   6.353   3.901 -1.4240 -0.3087  0.2639
 9205SOL    HW232463   2.025   6.229   3.943 -2.5111 -0.6607  1.1889
 9206SOL     OW32464   3.298   5.624   2.864 -0.4960 -0.1450 -0.1347
 9206SOL    HW132465   3.353   5.546   2.872  0.2139  0.3703  0.0902
 9206SOL    HW232466   3.286   5.654   2.954 -0.0008  0.5284 -0.2913
 9207SOL     OW32467   1.334   6.850   3.218 -0.4631  0.1352 -0.5858
 9207SOL    HW132468   1.363   6.834   3.308  0.6440  0.4621 -0.8882
 9207SOL    HW232469   1.247   6.889   3.228 -0.7533 -0.7163  0.3158
 9208SOL     OW32470   3.751   7.943   3.187 -0.3967  0.0096  0.3330
 9208SOL    HW132471   3.750   8.018   3.247 -0.1127 -0.2613  0.6768
 9208SOL    HW232472   3.660   7.935   3.157 -0.3968  0.5741  0.1911
 9209SOL     OW32473   1.710   4.819   1.276  1.0275  0.5749 -0.7422
 9209SOL    HW132474   1.643   4.842   1.340  1.2796  2.0850 -1.0019
 9209SOL    HW232475   1.676   4.741   1.232 -1.3078  2.2345 -1.9619
 9210SOL     OW32476   3.718   4.518   2.280  0.5900  0.1793 -0.2130
 9210SOL    HW132477   3.713   4.446   2.217 -0.4101  0.2164 -0.1872
 9210SOL    HW232478   3.726   4.597   2.227  2.2731  0.0190 -0.2315
 9211SOL     OW32479   1.673   4.727   2.911 -1.3123 -0.1636  0.1239
 9211SOL    HW132480   1.668   4.638   2.946 -2.6763 -0.5300 -0.9883
 9211SOL    HW232481   1.606   4.776   2.958  1.5074  1.1046  2.9976
 9212SOL     OW32482   3.390   6.295   3.308  0.2268 -0.6297 -0.7914
 9212SOL    HW132483   3.452   6.364   3.329 -2.3790  0.7080  2.8713
 9212SOL    HW232484   3.317   6.339   3.264 -0.1953 -1.4692 -0.9659
 9213SOL     OW32485   2.484   4.771   3.078  0.6580 -0.1307  0.2888
 9213SOL    HW132486   2.511   4.845   3.132  0.4407 -0.7081  1.1995
 9213SOL    HW232487   2.451   4.811   2.998  1.8214  0.6912  0.2122
 9214SOL     OW32488   2.753   7.588   3.353 -0.5183 -0.6227 -0.0960
 9214SOL    HW132489   2.686   7.627   3.296  0.2005 -0.9832 -1.1997
 9214SOL    HW232490   2.704   7.555   3.428 -1.5603 -0.7331 -0.8106
 9215SOL     OW32491   4.178   6.352   2.998  0.1794  0.5679 -0.5532
 9215SOL    HW132492   4.257   6.358   2.943  1.6211  0.1067  1.3938
 9215SOL    HW232493   4.184   6.427   3.057 -0.2770 -0.0767  0.3174
 9216SOL     OW32494   3.112   6.232   3.469 -0.3477  0.0493 -0.0250
 9216SOL    HW132495   3.118   6.137   3.452 -0.3600  0.2336 -1.1068
 9216SOL    HW232496   3.168   6.246   3.546  1.5591 -0.4858 -1.2661
 9217SOL     OW32497   1.796   5.839   3.243  0.1949  0.7753  0.0154
 9217SOL    HW132498   1.750   5.769   3.196 -1.0866  2.4775 -1.3184
 9217SOL    HW232499   1.728   5.884   3.292  1.2579  0.1703  2.1297
 9218SOL     OW32500   1.434   7.110   3.453  0.4400 -0.3575  0.2719
 9218SOL    HW132501   1.455   7.033   3.506 -1.4321 -0.7120  0.5494
 9218SOL    HW232502   1.362   7.153   3.501 -0.4626 -0.0180 -1.3618
 9219SOL     OW32503   1.448   7.125   3.942  0.5542  0.0708 -0.2819
 9219SOL    HW132504   1.507   7.068   3.892  1.4752  0.5280  0.2707
 9219SOL    HW232505   1.483   7.213   3.927 -0.7594  0.4883 -0.9958
 9220SOL     OW32506   2.505   7.838   2.917 -0.1726 -0.1212  0.0409
 9220SOL    HW132507   2.526   7.784   2.993  0.5421 -0.7121 -0.5606
 9220SOL    HW232508   2.488   7.775   2.847 -3.4603  0.3466  0.3456
 9221SOL     OW32509   3.405   5.242   3.147 -0.4062  0.7598  0.4006
 9221SOL    HW132510   3.487   5.202   3.176  0.0833  1.2189 -0.3567
 9221SOL    HW232511   3.348   5.238   3.224  0.2550  0.2612  0.8669
 9222SOL     OW32512   2.951   6.764   5.102  0.0279 -0.0090 -0.0951
 9222SOL    HW132513   2.980   6.815   5.026 -1.4437 -0.6862 -1.1394
 9222SOL    HW232514   2.863   6.733   5.078  0.5173 -2.2603  0.9011
 9223SOL     OW32515   1.183   6.242   4.367 -0.0343 -0.0605 -0.2387
 9223SOL    HW132516   1.229   6.316   4.329  0.7210 -1.0600 -1.3292
 9223SOL    HW232517   1.137   6.202   4.292 -0.5102 -0.6315  0.3484
 9224SOL     OW32518   2.267   3.683   3.206  0.0786  0.4360  0.1307
 9224SOL    HW132519   2.336   3.616   3.214 -0.2206  0.2609  1.3894
 9224SOL    HW232520   2.276   3.735   3.285 -1.1621  0.4915  0.2341
 9225SOL     OW32521   2.030   7.879   2.286 -0.0327  0.2437  0.3913
 9225SOL    HW132522   2.078   7.797   2.295 -0.4567 -0.2797 -1.8412
 9225SOL    HW232523   1.942   7.860   2.319 -0.6716 -0.7724 -1.7606
 9226SOL     OW32524   3.186   6.739   2.381  0.0641 -0.1409  0.2669
 9226SOL    HW132525   3.168   6.833   2.382  1.7268  0.1830  0.5694
 9226SOL    HW232526   3.147   6.708   2.299 -0.1492  0.8658 -0.0216
 9227SOL     OW32527   2.168   4.213   3.290 -0.1788  0.3124 -0.0169
 9227SOL    HW132528   2.151   4.145   3.224  2.1164 -0.8758  0.5754
 9227SOL    HW232529   2.082   4.231   3.328 -1.2351 -0.3708 -1.9922
 9228SOL     OW32530   0.462   6.415   4.964  0.5614  0.2330  0.4818
 9228SOL    HW132531   0.523   6.350   4.998  0.7993  0.6043  0.7585
 9228SOL    HW232532   0.459   6.398   4.870  0.4345 -0.3379  0.5901
 9229SOL     OW32533   3.885   6.334   4.285 -0.1470  0.2205 -0.6129
 9229SOL    HW132534   3.836   6.318   4.204 -1.2022  1.1798 -0.1805
 9229SOL    HW232535   3.969   6.291   4.271 -1.6802 -2.8993 -0.7419
 9230SOL     OW32536   3.567   8.875   2.602  0.0955 -0.3158  0.8060
 9230SOL    HW132537   3.603   8.933   2.669 -0.7956  0.5214  0.5826
 9230SOL    HW232538   3.517   8.809   2.651  1.4716 -1.1607  1.0841
 9231SOL     OW32539   2.678   6.381   2.081  0.1083  0.4958 -0.1671
 9231SOL    HW132540   2.656   6.322   2.153  1.6202 -0.6051 -0.5630
 9231SOL    HW232541   2.607   6.444   2.078 -1.2037 -0.9083  0.7168
 9232SOL     OW32542   3.276   7.923   4.019 -0.2031  0.2179  0.5978
 9232SOL    HW132543   3.352   7.869   4.041 -1.0588 -1.1893  0.1381
 9232SOL    HW232544   3.222   7.868   3.963 -0.0528  2.3287 -1.7258
 9233SOL     OW32545   2.617   6.314   3.546 -0.0157 -0.0556  0.3864
 9233SOL    HW132546   2.700   6.325   3.499 -0.9333 -1.0840 -1.5054
 9233SOL    HW232547   2.570   6.396   3.532 -0.9207 -0.9264 -1.7982
 9234SOL     OW32548   4.353   6.595   3.377  0.7109  0.0595 -0.1521
 9234SOL    HW132549   4.384   6.539   3.448  0.7831 -0.0460 -0.2670
 9234SOL    HW232550   4.412   6.577   3.304 -0.3601 -1.0535 -0.7675
 9235SOL     OW32551   2.965   6.128   2.106  0.3586  0.6904  0.4185
 9235SOL    HW132552   2.918   6.181   2.042 -0.3761 -0.2150  0.1950
 9235SOL    HW232553   2.953   6.173   2.189  0.5890  1.4076  0.0634
 9236SOL     OW32554   2.259   4.219   4.410 -0.4388 -0.2399 -0.3317
 9236SOL    HW132555   2.204   4.268   4.471 -0.9949  0.0230 -1.0401
 9236SOL    HW232556   2.224   4.240   4.324  1.9646  1.4346 -0.9395
 9237SOL     OW32557   0.101   7.496   3.210 -0.3246  0.1748  0.3114
 9237SOL    HW132558   0.040   7.490   3.284  0.6975  0.8146  1.2085
 9237SOL    HW232559   0.054   7.548   3.145 -1.6824 -1.3481  0.0507
 9238SOL     OW32560   1.266   4.355   1.308  0.2671  0.4446  0.1626
 9238SOL    HW132561   1.275   4.448   1.290  0.4668  0.2263 -0.9084
 9238SOL    HW232562   1.331   4.338   1.377 -0.9237  1.4063  1.5443
 9239SOL     OW32563   4.396   7.248   2.768  0.3684  0.3878 -0.3903
 9239SOL    HW132564   4.322   7.248   2.829 -0.0811  1.4439 -0.9305
 9239SOL    HW232565   4.438   7.334   2.781  0.5329  0.4393 -1.2490
 9240SOL     OW32566   0.539   5.745   3.673  0.0096  0.1696  0.6892
 9240SOL    HW132567   0.512   5.827   3.633 -1.9276 -0.7483  0.0388
 9240SOL    HW232568   0.562   5.689   3.598 -0.2341 -0.3917  1.0309
 9241SOL     OW32569   4.290   5.482   1.985  0.3706  0.4403 -0.5766
 9241SOL    HW132570   4.382   5.457   1.971  0.6409  1.1034 -0.0169
 9241SOL    HW232571   4.281   5.565   1.938 -0.3696 -0.4004 -1.9450
 9242SOL     OW32572   2.281   5.738   2.246 -0.2525  0.0036 -0.1875
 9242SOL    HW132573   2.276   5.643   2.252  1.4846 -0.0616  0.4674
 9242SOL    HW232574   2.257   5.757   2.155 -0.3521 -1.0767 -0.3968
 9243SOL     OW32575   3.831   7.541   4.475 -0.0998  0.0216  0.2132
 9243SOL    HW132576   3.779   7.480   4.527 -0.0070 -0.6341 -0.4530
 9243SOL    HW232577   3.922   7.521   4.498 -0.1470  1.8105  2.0983
 9244SOL     OW32578   2.585   5.884   5.879 -0.3303  0.1407  0.1862
 9244SOL    HW132579   2.566   5.816   5.944 -0.6530  1.7816  1.8821
 9244SOL    HW232580   2.524   5.955   5.901  0.0830  1.0326 -1.4489
 9245SOL     OW32581   2.220   5.629   2.983 -0.0423 -0.1681  0.3020
 9245SOL    HW132582   2.201   5.562   2.918  0.6345 -0.2832  0.2252
 9245SOL    HW232583   2.135   5.647   3.024 -0.2295 -1.0500  0.3104
 9246SOL     OW32584   2.961   3.830   1.692 -0.0465  0.0509 -0.2772
 9246SOL    HW132585   2.889   3.791   1.742 -0.2198  0.5420 -0.1405
 9246SOL    HW232586   2.941   3.811   1.601 -0.0490 -0.3106 -0.2037
 9247SOL     OW32587   2.580   5.943   3.833 -0.3320 -0.5023 -0.4172
 9247SOL    HW132588   2.497   5.944   3.785 -0.1003  1.6949 -0.8160
 9247SOL    HW232589   2.564   5.884   3.907 -3.1215  1.9434  1.0203
 9248SOL     OW32590   3.548   7.466   2.056  0.5978  0.0919  0.0575
 9248SOL    HW132591   3.552   7.553   2.016  0.3971 -0.8656 -2.1060
 9248SOL    HW232592   3.472   7.470   2.114  1.3240  1.7339  0.9414
 9249SOL     OW32593   0.362   6.230   2.655 -0.0423  0.2153 -0.2689
 9249SOL    HW132594   0.418   6.231   2.578  0.7717  0.1400  0.3192
 9249SOL    HW232595   0.330   6.140   2.662 -0.8860  0.4497 -1.0702
 9250SOL     OW32596   3.165   5.944   3.017  0.1937  0.0575  0.0230
 9250SOL    HW132597   3.134   5.855   3.001  1.0904 -0.6047  1.9063
 9250SOL    HW232598   3.085   5.992   3.041 -0.5065  0.1071 -2.3000
 9251SOL     OW32599   3.146   5.177   3.965  0.1710  0.1659  0.7642
 9251SOL    HW132600   3.096   5.122   4.025 -2.2178 -1.2385 -2.3735
 9251SOL    HW232601   3.098   5.260   3.963  0.1982  0.1795  0.7053
 9252SOL     OW32602   3.351   8.670   2.527  0.2175  0.0793 -0.1457
 9252SOL    HW132603   3.373   8.700   2.615 -2.2953 -0.1490  0.6069
 9252SOL    HW232604   3.348   8.574   2.535  3.8797 -0.2226 -1.4764
 9253SOL     OW32605   1.513   7.709   2.158  0.1059 -0.2140  0.2653
 9253SOL    HW132606   1.526   7.617   2.136 -0.1013 -0.1164 -0.2866
 9253SOL    HW232607   1.418   7.718   2.170 -0.2083  0.4693 -2.2886
 9254SOL     OW32608   1.645   7.877   4.356 -0.2354 -0.3635 -0.2170
 9254SOL    HW132609   1.690   7.885   4.272 -0.5013  0.4937 -0.2844
 9254SOL    HW232610   1.565   7.928   4.345 -0.3052 -0.3048  0.5387
 9255SOL     OW32611   1.245   6.700   3.004 -0.2312  0.6659  0.1835
 9255SOL    HW132612   1.194   6.619   3.014  0.0156  0.4607 -0.2187
 9255SOL    HW232613   1.269   6.724   3.094 -0.5723  0.4677  0.3313
 9256SOL     OW32614   0.557   6.384   2.437 -0.0471 -0.0343 -0.6527
 9256SOL    HW132615   0.477   6.345   2.402  0.4013 -1.4235 -0.1571
 9256SOL    HW232616   0.627   6.326   2.409  0.7350  0.8680 -0.6079
 9257SOL     OW32617   2.535   7.074   4.236 -0.5778 -0.0475  0.0584
 9257SOL    HW132618   2.604   7.132   4.268 -0.8182  1.0366 -1.3490
 9257SOL    HW232619   2.470   7.073   4.306 -0.6872  1.5933 -0.0001
 9258SOL     OW32620   2.266   6.166   2.844 -0.4592 -0.4284 -0.0136
 9258SOL    HW132621   2.252   6.257   2.818  1.3552 -0.1174 -0.0193
 9258SOL    HW232622   2.246   6.116   2.765  0.5593  0.1559 -0.6712
 9259SOL     OW32623   2.675   4.122   1.243  0.1684  0.2310 -0.6541
 9259SOL    HW132624   2.661   4.116   1.149 -1.2712  0.0162 -0.4480
 9259SOL    HW232625   2.646   4.210   1.266  0.1943  0.1654 -0.3694
 9260SOL     OW32626   3.706   4.065   3.787  0.3996 -0.0282  0.1958
 9260SOL    HW132627   3.645   4.115   3.841  0.5521  0.0624  0.2830
 9260SOL    HW232628   3.663   3.980   3.776  0.1340  0.1218  0.0383
 9261SOL     OW32629   2.291   7.497   3.759 -0.2478 -0.1284 -0.9376
 9261SOL    HW132630   2.265   7.435   3.691 -1.4596  2.2778 -2.7732
 9261SOL    HW232631   2.213   7.505   3.815 -1.0696  1.7339 -2.2964
 9262SOL     OW32632   0.650   5.551   4.046 -0.4228  0.0994  0.4244
 9262SOL    HW132633   0.606   5.541   3.962  0.8198  0.8372 -0.3220
 9262SOL    HW232634   0.643   5.644   4.066 -0.7217 -0.0719  1.1560
 9263SOL     OW32635   3.353   6.642   4.970  0.2167 -0.1069  0.3477
 9263SOL    HW132636   3.375   6.572   4.910 -1.7777 -0.3152 -0.1733
 9263SOL    HW232637   3.301   6.600   5.039 -3.4326  1.2582 -1.4399
 9264SOL     OW32638   2.975   7.171   3.419 -0.2416  0.2669  0.7076
 9264SOL    HW132639   2.906   7.215   3.369  0.8271  1.9007  0.6434
 9264SOL    HW232640   3.029   7.128   3.352 -0.3899  0.1499  0.6618
 9265SOL     OW32641   3.283   8.028   3.350 -0.3103  0.2055 -0.2392
 9265SOL    HW132642   3.274   8.120   3.375 -0.6292  0.1613 -0.1953
 9265SOL    HW232643   3.210   8.012   3.290 -1.5222 -0.6135  1.4337
 9266SOL     OW32644   3.414   7.780   3.407  0.1845 -0.0020 -0.1326
 9266SOL    HW132645   3.382   7.870   3.406  0.9029  0.2627 -1.7350
 9266SOL    HW232646   3.335   7.727   3.414 -0.4399  0.7020 -1.5813
 9267SOL     OW32647   5.184   7.083   1.812  0.2354 -0.0217  0.4108
 9267SOL    HW132648   5.241   7.091   1.889  0.4130 -1.7517  0.4948
 9267SOL    HW232649   5.096   7.078   1.847  0.2250  0.3697  0.4345
 9268SOL     OW32650   1.630   6.887   2.428 -0.0086  0.0560  0.5904
 9268SOL    HW132651   1.596   6.870   2.340 -0.0723  0.1973  0.5869
 9268SOL    HW232652   1.666   6.803   2.457  3.2631  0.8028 -1.0045
 9269SOL     OW32653   3.488   6.753   1.541 -0.2663  0.0236  0.1238
 9269SOL    HW132654   3.502   6.709   1.457 -1.1035  1.9962 -1.1064
 9269SOL    HW232655   3.506   6.846   1.522  2.2594  0.1328  2.8198
 9270SOL     OW32656   1.017   5.951   3.910 -0.3360  0.1434 -0.1004
 9270SOL    HW132657   0.927   5.982   3.920 -0.3357 -0.6840  2.8829
 9270SOL    HW232658   1.036   5.963   3.817 -2.8351  2.1812 -0.4117
 9271SOL     OW32659   2.697   7.003   3.828  0.0690 -0.6424 -0.2062
 9271SOL    HW132660   2.686   7.098   3.839 -2.3703 -0.8204 -0.8221
 9271SOL    HW232661   2.770   6.994   3.767  0.7645  0.8093  0.3833
 9272SOL     OW32662   1.492   6.210   2.510 -0.2066 -0.3360  0.3734
 9272SOL    HW132663   1.422   6.227   2.573  0.4117 -0.5022  1.1176
 9272SOL    HW232664   1.447   6.183   2.430 -1.1386  2.5303 -0.1395
 9273SOL     OW32665   3.571   8.009   2.820 -0.2621 -0.3212 -0.3053
 9273SOL    HW132666   3.639   7.941   2.821  0.5754  0.4906 -0.7939
 9273SOL    HW232667   3.584   8.054   2.737 -1.0448  0.2131 -0.1454
 9274SOL     OW32668   1.870   8.023   3.347  0.0881  0.3596  0.2041
 9274SOL    HW132669   1.827   7.945   3.382  0.6066 -0.0856 -0.1340
 9274SOL    HW232670   1.960   7.995   3.329  1.0999  1.8140  2.7421
 9275SOL     OW32671   4.044   8.248   3.740  0.0725 -0.1400 -0.1475
 9275SOL    HW132672   4.038   8.285   3.652 -0.1374  1.2900  0.4479
 9275SOL    HW232673   3.996   8.310   3.795  0.1341 -1.0625  0.9570
 9276SOL     OW32674   2.369   8.999   2.094 -0.5245 -0.0949  0.2277
 9276SOL    HW132675   2.429   8.993   2.169 -1.5262  1.8272  1.2307
 9276SOL    HW232676   2.387   9.084   2.056 -0.4509 -0.8168 -1.3803
 9277SOL     OW32677   3.172   7.353   3.565  0.5547  0.2019 -0.2470
 9277SOL    HW132678   3.111   7.279   3.563 -0.9498  1.4358 -1.0764
 9277SOL    HW232679   3.203   7.356   3.655  0.3615 -1.2328 -0.1295
 9278SOL     OW32680   4.085   5.766   2.304  0.1958  0.0122 -0.6330
 9278SOL    HW132681   4.112   5.691   2.356 -0.1295  0.3193 -0.0198
 9278SOL    HW232682   4.165   5.794   2.259  0.9196  0.9698  1.2239
 9279SOL     OW32683   1.567   5.347   4.479 -0.0809  0.1713 -0.3705
 9279SOL    HW132684   1.553   5.353   4.385  0.0175 -0.4900 -0.4322
 9279SOL    HW232685   1.639   5.284   4.489  0.7248  1.1459  0.0877
 9280SOL     OW32686   2.203   6.851   3.327 -0.1006  0.3748  0.2973
 9280SOL    HW132687   2.295   6.859   3.301 -0.0421 -1.9845 -0.2967
 9280SOL    HW232688   2.186   6.757   3.328 -2.2183  0.7324  1.4840
 9281SOL     OW32689   1.655   6.099   3.964 -0.3091  0.2509 -0.1856
 9281SOL    HW132690   1.685   6.018   4.005  1.7405  1.3053  0.4702
 9281SOL    HW232691   1.648   6.161   4.036 -0.7353  0.9884 -0.8516
 9282SOL     OW32692   3.419   5.007   2.255  0.2999 -0.2645 -0.2585
 9282SOL    HW132693   3.415   4.966   2.169 -2.7799  1.7336 -1.1300
 9282SOL    HW232694   3.338   4.982   2.298  1.3040 -0.3331  1.6755
 9283SOL     OW32695   4.130   7.362   3.418 -0.1096 -0.0566  0.3732
 9283SOL    HW132696   4.099   7.432   3.476 -1.1177  0.7453 -1.0969
 9283SOL    HW232697   4.073   7.368   3.341  1.7081 -0.6148 -1.0396
 9284SOL     OW32698   1.825   6.510   2.551  0.2647 -0.0798 -0.0621
 9284SOL    HW132699   1.920   6.522   2.548  0.4557 -1.1097  0.9595
 9284SOL    HW232700   1.814   6.426   2.597 -1.0834 -0.9225 -1.8577
 9285SOL     OW32701   2.085   7.490   1.534  0.5035 -0.1204 -0.4224
 9285SOL    HW132702   2.094   7.396   1.551 -2.4491  0.1204  3.1779
 9285SOL    HW232703   1.995   7.500   1.504  0.3342  1.7117  0.6333
 9286SOL     OW32704   4.456   7.774   2.568  0.0277  0.2250  0.0704
 9286SOL    HW132705   4.455   7.684   2.536 -0.9552  0.2780 -0.0906
 9286SOL    HW232706   4.495   7.824   2.496  1.0915 -0.1424  0.3844
 9287SOL     OW32707   2.826   4.877   5.534  0.0526  0.0793 -0.2357
 9287SOL    HW132708   2.803   4.785   5.526  1.6555 -0.3875  0.2308
 9287SOL    HW232709   2.862   4.901   5.449 -1.5948  0.6561 -0.7886
 9288SOL     OW32710   1.327   7.118   1.967 -0.5094 -0.0028 -0.6465
 9288SOL    HW132711   1.287   7.176   1.903 -1.4327  1.7640  1.4629
 9288SOL    HW232712   1.293   7.031   1.946 -0.5607  0.4994 -2.7033
 9289SOL     OW32713   2.180   6.239   4.290 -0.0751  0.0362 -0.1851
 9289SOL    HW132714   2.245   6.170   4.282 -0.0335 -0.1295  1.4526
 9289SOL    HW232715   2.100   6.201   4.252  0.5753 -0.0085 -1.5447
 9290SOL     OW32716   3.789   6.297   4.018 -0.4221 -0.0920  0.0348
 9290SOL    HW132717   3.716   6.351   4.046 -1.5023 -1.3302 -0.3277
 9290SOL    HW232718   3.751   6.238   3.952  0.5216 -1.8419  1.0236
 9291SOL     OW32719   0.279   6.040   3.711  0.5266 -0.1746  0.1152
 9291SOL    HW132720   0.330   5.982   3.768  2.4772  1.6006  0.2069
 9291SOL    HW232721   0.266   6.120   3.763  1.5667  1.1211 -1.5928
 9292SOL     OW32722   1.741   5.111   2.975 -0.4509 -0.4277  0.3186
 9292SOL    HW132723   1.659   5.066   2.996 -0.2774 -0.7928  0.2177
 9292SOL    HW232724   1.718   5.171   2.905 -0.6101 -0.6075  0.2168
 9293SOL     OW32725   5.411   3.081   3.457  0.6281  0.6933 -0.3224
 9293SOL    HW132726   5.421   3.070   3.551  0.4158 -0.1026 -0.3911
 9293SOL    HW232727   5.350   3.155   3.448  0.5093  0.6573  0.1655
 9294SOL     OW32728   1.009   4.481   0.880 -0.3267  0.6714 -0.7792
 9294SOL    HW132729   1.031   4.393   0.850 -0.5437  1.0404 -2.0793
 9294SOL    HW232730   1.088   4.532   0.864 -0.6478  1.0104 -1.3180
 9295SOL     OW32731   1.690   5.337   2.318  0.0452  0.6982  0.5623
 9295SOL    HW132732   1.682   5.246   2.289  1.1516  0.7093  0.1834
 9295SOL    HW232733   1.606   5.377   2.295  0.2190  0.2334 -0.9892
 9296SOL     OW32734   2.309   5.800   2.526 -0.3117  0.2430 -0.0233
 9296SOL    HW132735   2.284   5.808   2.434 -2.2384  3.1172  0.6699
 9296SOL    HW232736   2.276   5.715   2.552 -2.0835  0.4933 -1.3341
 9297SOL     OW32737   4.375   8.392   3.260 -0.4581  0.1373 -0.3833
 9297SOL    HW132738   4.466   8.378   3.236 -0.4171  1.2572 -0.9339
 9297SOL    HW232739   4.373   8.384   3.355  0.9528  3.8519  0.0386
 9298SOL     OW32740   2.230   6.037   2.617 -0.4314 -0.4276  0.4668
 9298SOL    HW132741   2.244   5.943   2.609 -1.7797 -0.5648 -0.4172
 9298SOL    HW232742   2.152   6.055   2.564  1.2521  1.5832 -1.4712
 9299SOL     OW32743   3.798   8.192   3.558  0.2717 -0.0404  0.1788
 9299SOL    HW132744   3.845   8.237   3.487  0.0015 -0.9154 -0.5538
 9299SOL    HW232745   3.709   8.225   3.552  0.2908  0.0207  0.2280
 9300SOL     OW32746   0.744   7.067   3.787 -0.0628 -0.0213  0.0145
 9300SOL    HW132747   0.809   7.050   3.855 -0.4953  0.2643  0.5016
 9300SOL    HW232748   0.698   7.145   3.817 -0.6596 -0.2456 -0.3062
 9301SOL     OW32749   2.734   6.920   0.496  0.2283  0.1012 -0.0139
 9301SOL    HW132750   2.740   6.828   0.522 -0.5354  0.6327  2.1832
 9301SOL    HW232751   2.808   6.933   0.437  0.3022 -1.9330 -0.4042
 9302SOL     OW32752   2.842   6.362   9.910 -0.2042 -0.4146  0.1992
 9302SOL    HW132753   2.900   6.438   9.913  0.6101 -1.0732  2.0630
 9302SOL    HW232754   2.901   6.287   9.918 -1.2186 -1.1420  1.0262
 9303SOL     OW32755   2.337   7.554   2.817 -0.0372 -0.7828  0.2954
 9303SOL    HW132756   2.379   7.472   2.843 -1.0206 -1.0459  1.1082
 9303SOL    HW232757   2.244   7.532   2.812 -0.0439 -0.3292 -1.9232
 9304SOL     OW32758   4.012   3.535   3.890 -0.4612  0.0349  0.3742
 9304SOL    HW132759   3.922   3.524   3.861  0.6846 -0.3903 -3.2729
 9304SOL    HW232760   4.041   3.615   3.846  1.5338 -0.9163 -0.0709
 9305SOL     OW32761   3.439   9.038   3.343 -0.1021  0.6419  0.3405
 9305SOL    HW132762   3.417   9.078   3.427  0.2302 -0.7537  1.0999
 9305SOL    HW232763   3.358   8.995   3.315  0.2260 -0.2185  0.7047
 9306SOL     OW32764   1.558   5.978   1.321 -0.4784 -0.5261 -0.0875
 9306SOL    HW132765   1.506   5.951   1.397  0.7607  0.0941  1.0073
 9306SOL    HW232766   1.522   6.063   1.295 -1.7436 -1.3326 -1.0108
 9307SOL     OW32767   0.913   6.917   3.332  0.3300  0.4911 -0.2637
 9307SOL    HW132768   0.895   6.900   3.239  0.2886  1.4116 -0.4337
 9307SOL    HW232769   0.830   6.899   3.376  0.9703 -2.1821 -0.0847
 9308SOL     OW32770   3.147   6.413   4.246 -0.1210  0.5757  0.1484
 9308SOL    HW132771   3.191   6.340   4.202 -0.0275  0.5955  0.2084
 9308SOL    HW232772   3.146   6.483   4.182 -0.4211  0.4458  0.0082
 9309SOL     OW32773   3.586   8.173   3.262  0.8555  0.1727  0.3211
 9309SOL    HW132774   3.541   8.210   3.187 -1.2044 -3.0460 -0.1224
 9309SOL    HW232775   3.536   8.203   3.338  1.3336  1.1792  0.2537
 9310SOL     OW32776   2.351   6.184   4.000  0.3083  0.2246  0.6707
 9310SOL    HW132777   2.428   6.151   3.954 -0.0664  0.2907 -0.0004
 9310SOL    HW232778   2.324   6.261   3.950 -1.5424 -1.0950 -0.4306
 9311SOL     OW32779   0.214   5.920   3.129  0.2876  0.4567 -0.1257
 9311SOL    HW132780   0.298   5.920   3.176 -0.5166  1.3480  1.3134
 9311SOL    HW232781   0.235   5.880   3.044  1.9143 -0.4491  0.6775
 9312SOL     OW32782   1.195   7.451   2.476 -0.0462  0.2231  0.4039
 9312SOL    HW132783   1.114   7.440   2.426  1.0379  1.5461 -1.7202
 9312SOL    HW232784   1.175   7.517   2.542 -0.9879 -0.2168  0.5591
 9313SOL     OW32785   9.887   6.861   3.649 -0.5105  0.6351 -0.3236
 9313SOL    HW132786   9.868   6.916   3.573 -0.8273  0.1277 -0.6153
 9313SOL    HW232787   9.932   6.919   3.710  0.8784  0.7282 -1.4126
 9314SOL     OW32788   2.477   5.254   3.249  0.1228 -0.4217  0.2814
 9314SOL    HW132789   2.481   5.279   3.157 -0.9630 -1.3534 -0.0307
 9314SOL    HW232790   2.386   5.227   3.262  0.4482 -0.9663  1.4469
 9315SOL     OW32791   1.151   6.798   2.230  0.7031 -0.8834 -0.0453
 9315SOL    HW132792   1.230   6.768   2.186  0.2053 -0.8289 -0.9725
 9315SOL    HW232793   1.110   6.860   2.169  0.3279 -0.3416  0.7346
 9316SOL     OW32794   3.509   6.519   3.377  0.1601  0.3336 -0.3049
 9316SOL    HW132795   3.479   6.589   3.320  0.1080  0.4638 -0.1180
 9316SOL    HW232796   3.470   6.539   3.462 -0.8691 -0.5856 -0.5483
 9317SOL     OW32797   3.642   6.765   4.046  0.4739  0.2071  0.0775
 9317SOL    HW132798   3.609   6.827   4.110 -0.5283 -0.2687  0.0302
 9317SOL    HW232799   3.593   6.783   3.966 -0.3918 -1.1573  0.2894
 9318SOL     OW32800   2.353   6.593   0.864  0.2527 -0.1319 -0.0423
 9318SOL    HW132801   2.272   6.565   0.821  0.5609 -0.4841 -0.3940
 9318SOL    HW232802   2.421   6.536   0.827  0.5883 -0.1512  0.5924
 9319SOL     OW32803   3.370   3.411   2.492 -0.3432  0.1059  0.1535
 9319SOL    HW132804   3.330   3.458   2.419  0.3812 -0.7764 -0.8236
 9319SOL    HW232805   3.309   3.339   2.510  0.0807 -0.3816 -0.3712
 9320SOL     OW32806   3.614   5.877   3.287  0.2002 -0.5221 -0.5880
 9320SOL    HW132807   3.563   5.822   3.345  1.1803 -0.1002  0.7096
 9320SOL    HW232808   3.549   5.927   3.237 -0.6654  0.1656  1.1833
 9321SOL     OW32809   1.652   8.164   3.468  0.4205  0.0174 -0.4432
 9321SOL    HW132810   1.708   8.226   3.516  0.1040  1.5137 -1.9586
 9321SOL    HW232811   1.713   8.100   3.431  0.7140 -0.8607  1.4896
 9322SOL     OW32812   0.009   7.696   2.546 -0.0259  0.5372  0.2859
 9322SOL    HW132813   0.079   7.652   2.594  1.2690  1.1928 -0.9593
 9322SOL    HW232814  -0.021   7.632   2.482 -0.7426  0.1631  1.0015
 9323SOL     OW32815   4.775   5.049   2.852  0.0969  0.0046 -0.1978
 9323SOL    HW132816   4.706   4.987   2.827  0.1616 -0.4063  0.6251
 9323SOL    HW232817   4.759   5.126   2.798  1.4722 -1.6166 -2.9860
 9324SOL     OW32818   2.410   4.409   4.622  0.1230  0.2492  0.1526
 9324SOL    HW132819   2.408   4.320   4.659 -0.8506  0.9215  1.7733
 9324SOL    HW232820   2.459   4.400   4.540 -1.5109 -2.1092 -0.6154
 9325SOL     OW32821   4.051   6.671   1.298 -0.2076  0.2131  0.1483
 9325SOL    HW132822   4.039   6.686   1.204  0.6912 -1.8556 -0.3241
 9325SOL    HW232823   4.100   6.747   1.329 -0.6411  0.9765 -1.0136
 9326SOL     OW32824   2.355   6.169   1.381 -0.4026  0.2945  0.5512
 9326SOL    HW132825   2.360   6.261   1.409 -0.0217  0.2736  0.5456
 9326SOL    HW232826   2.310   6.125   1.453 -0.8708  0.5438  0.4137
 9327SOL     OW32827   1.902   5.975   4.985  0.1574  0.3941 -0.3810
 9327SOL    HW132828   1.924   5.923   4.908  0.4790 -0.0535  0.0130
 9327SOL    HW232829   1.981   5.974   5.038 -0.1979  0.3643  0.1484
 9328SOL     OW32830   3.108   3.993   5.643 -0.1461 -0.5080  0.1714
 9328SOL    HW132831   3.065   3.981   5.559 -0.5099  0.7441  0.1675
 9328SOL    HW232832   3.181   3.931   5.642  0.7577  0.5569 -1.6867
 9329SOL     OW32833   1.938   6.757   3.172  0.3239 -0.2106  0.1153
 9329SOL    HW132834   1.958   6.666   3.154  2.9692 -0.0064  1.8095
 9329SOL    HW232835   1.846   6.757   3.198  0.1340 -2.2845 -0.5327
 9330SOL     OW32836   4.377   7.807   2.880  0.1579  0.1448  0.1877
 9330SOL    HW132837   4.319   7.846   2.815  0.0949 -0.5180 -0.1582
 9330SOL    HW232838   4.465   7.832   2.851  0.0466  1.2258  0.7634
 9331SOL     OW32839   3.682   4.328   3.192  0.2557  0.2275 -0.3622
 9331SOL    HW132840   3.598   4.341   3.236  0.6321  0.5130  0.2740
 9331SOL    HW232841   3.734   4.275   3.253 -0.1270 -1.6040 -1.5664
 9332SOL     OW32842   2.976   3.700   4.237 -0.3254  0.0192 -0.2003
 9332SOL    HW132843   2.893   3.671   4.275  0.9625 -0.3206  2.5048
 9332SOL    HW232844   3.036   3.626   4.249 -0.0672 -0.4169 -3.7559
 9333SOL     OW32845   1.819   6.379   4.445  0.0205  0.1458  0.9070
 9333SOL    HW132846   1.861   6.459   4.415 -0.0776  0.2314  0.9935
 9333SOL    HW232847   1.803   6.393   4.538  0.9500 -0.3953  1.1505
 9334SOL     OW32848   2.942   7.354   4.238  0.2330  0.2791  0.6950
 9334SOL    HW132849   2.969   7.300   4.313 -2.0567  1.3811  2.3688
 9334SOL    HW232850   2.847   7.360   4.245 -0.0219  0.5335 -2.2631
 9335SOL     OW32851   2.475   6.616   7.193  0.0271 -0.0399 -0.0054
 9335SOL    HW132852   2.561   6.580   7.173  0.0390 -0.0907  0.1385
 9335SOL    HW232853   2.433   6.551   7.249  0.2937  0.4547  0.7818
 9336SOL     OW32854   2.503   6.280   4.441  0.3420  0.3906  0.2780
 9336SOL    HW132855   2.441   6.349   4.417  0.6146 -0.0092 -1.6512
 9336SOL    HW232856   2.453   6.199   4.432  0.1659  0.2671  2.0658
 9337SOL     OW32857   4.815   8.072   4.369  0.4260 -0.0351 -0.8394
 9337SOL    HW132858   4.789   8.158   4.336 -1.0886 -0.3399 -0.4413
 9337SOL    HW232859   4.854   8.090   4.455  1.4929  0.4115 -1.4131
 9338SOL     OW32860   1.682   6.529   4.147 -0.0992  0.7401  0.4663
 9338SOL    HW132861   1.661   6.438   4.167 -2.3391  1.0351 -0.3779
 9338SOL    HW232862   1.633   6.579   4.213  0.9055  1.3426  0.7620
 9339SOL     OW32863   1.890   5.128   4.108 -0.6420  0.4392  0.2246
 9339SOL    HW132864   1.948   5.088   4.173 -0.0122 -1.3700 -1.4043
 9339SOL    HW232865   1.807   5.081   4.119 -0.7998  0.7357  0.3020
 9340SOL     OW32866   0.611   8.689   3.342 -0.3701  0.3006  0.2778
 9340SOL    HW132867   0.534   8.674   3.287  1.1241 -0.1950 -1.7264
 9340SOL    HW232868   0.677   8.628   3.310  1.5469  2.1379  0.5545
 9341SOL     OW32869   2.626   5.595   4.727  0.2440  0.0317  0.2615
 9341SOL    HW132870   2.643   5.533   4.656  1.3349  4.1253 -3.2656
 9341SOL    HW232871   2.703   5.589   4.783  2.2018  0.9785 -2.2237
 9342SOL     OW32872   2.414   7.773   4.842 -0.0233  0.1002  0.0385
 9342SOL    HW132873   2.449   7.805   4.926 -0.8975 -0.6215  0.6922
 9342SOL    HW232874   2.446   7.836   4.777  1.0933  0.3784  0.8415
 9343SOL     OW32875   3.618   6.690   4.378  0.3115 -0.2565  0.7628
 9343SOL    HW132876   3.669   6.770   4.390  0.3574 -0.0223 -0.9866
 9343SOL    HW232877   3.527   6.719   4.378  0.3643 -0.0966 -0.7559
 9344SOL     OW32878   2.473   8.267   4.092  0.4749  0.0335 -0.7059
 9344SOL    HW132879   2.522   8.349   4.093 -0.0812  0.3688 -1.4374
 9344SOL    HW232880   2.406   8.278   4.160 -1.3721  1.2686 -2.6577
 9345SOL     OW32881   2.578   6.138   2.866 -0.1453 -0.1277  0.1921
 9345SOL    HW132882   2.489   6.114   2.841 -0.2162 -0.0175  0.3391
 9345SOL    HW232883   2.568   6.186   2.948  0.0296  0.0915  0.0864
 9346SOL     OW32884   4.089   3.002   5.375  0.1437  0.2736  0.4894
 9346SOL    HW132885   4.052   2.951   5.447  0.8909 -1.7230 -0.4963
 9346SOL    HW232886   4.014   3.034   5.327 -0.3600 -1.5746  0.0003
 9347SOL     OW32887   2.492   6.185   4.942  0.3323 -0.0799  0.5184
 9347SOL    HW132888   2.507   6.165   5.034 -0.6634  0.3846  0.7865
 9347SOL    HW232889   2.398   6.204   4.936  0.7255  1.7428 -0.2410
 9348SOL     OW32890   5.281   7.020   2.697  1.0122  0.2568  0.0337
 9348SOL    HW132891   5.341   7.064   2.636 -0.6434  1.2253 -0.9287
 9348SOL    HW232892   5.249   7.091   2.753  0.8800 -0.2797  0.6401
 9349SOL     OW32893   1.523   6.747   3.433 -0.4827  0.5631  0.0321
 9349SOL    HW132894   1.528   6.691   3.511 -0.5750  1.1858  0.4940
 9349SOL    HW232895   1.613   6.752   3.401 -0.5162 -0.0575 -0.1611
 9350SOL     OW32896   3.411   9.059   2.298  0.2879 -0.7271  0.1518
 9350SOL    HW132897   3.475   9.007   2.347 -0.7393 -1.4794  0.7084
 9350SOL    HW232898   3.329   9.011   2.306  0.0181 -0.7207 -2.0682
 9351SOL     OW32899   2.528   5.951   4.125  1.1643  0.5732 -0.8401
 9351SOL    HW132900   2.565   5.863   4.119 -0.6616 -0.1591 -1.6898
 9351SOL    HW232901   2.457   5.952   4.061 -0.1825  1.9931  0.6296
 9352SOL     OW32902   1.815   7.890   4.136 -0.2531 -0.2424 -0.7703
 9352SOL    HW132903   1.828   7.984   4.145 -2.8854  0.0690  0.1898
 9352SOL    HW232904   1.782   7.878   4.047 -0.9067 -0.1136 -0.5518
 9353SOL     OW32905   0.755   5.845   5.812  0.7301  0.2742 -0.4545
 9353SOL    HW132906   0.724   5.758   5.785  0.1725  0.3179  0.0413
 9353SOL    HW232907   0.846   5.848   5.782  1.1687 -0.9975  0.6991
 9354SOL     OW32908   2.420   8.753   5.343  0.1033  0.0460 -0.4174
 9354SOL    HW132909   2.375   8.819   5.290  1.5521  1.7208  0.3854
 9354SOL    HW232910   2.363   8.740   5.419 -0.3770  0.0765 -0.7705
 9355SOL     OW32911   1.242   6.261   6.274 -0.0251 -0.6343 -0.1134
 9355SOL    HW132912   1.321   6.288   6.227 -0.7887 -1.0619 -1.6834
 9355SOL    HW232913   1.260   6.281   6.366  1.8207 -0.5289 -0.4836
 9356SOL     OW32914   3.121   6.531   3.512 -0.2526  0.1488  0.3208
 9356SOL    HW132915   3.204   6.571   3.486  0.1186 -0.0532  1.1803
 9356SOL    HW232916   3.145   6.467   3.579 -0.8955 -1.1877 -0.7090
 9357SOL     OW32917   5.036   6.428   2.257 -0.2384  0.1006  0.1055
 9357SOL    HW132918   5.047   6.479   2.176 -1.6885  1.5812  0.8247
 9357SOL    HW232919   5.116   6.374   2.262  1.0668  1.8868 -0.9607
 9358SOL     OW32920   2.969   8.337   5.613  0.0333 -0.2050  0.2866
 9358SOL    HW132921   3.030   8.359   5.684  1.1937  0.1490 -0.8058
 9358SOL    HW232922   2.910   8.272   5.652  0.3854  0.3142  1.7041
 9359SOL     OW32923   1.698   5.541   5.676 -0.2938  0.3286  0.0035
 9359SOL    HW132924   1.727   5.558   5.765 -2.4649  1.6266  0.4940
 9359SOL    HW232925   1.763   5.585   5.621  1.4141 -1.0224  0.8979
 9360SOL     OW32926   2.646   0.025   6.102  0.0088 -0.3452 -0.2809
 9360SOL    HW132927   2.677  -0.065   6.098  0.1175 -0.3856  1.1547
 9360SOL    HW232928   2.636   0.043   6.196 -1.1655  0.7370 -0.5914
 9361SOL     OW32929   1.385   7.792   3.795  0.0178  0.3749 -0.3256
 9361SOL    HW132930   1.297   7.789   3.758  0.2014  0.8197 -0.8059
 9361SOL    HW232931   1.382   7.865   3.858 -0.9779 -1.8589  2.3434
 9362SOL     OW32932   1.297   7.633   4.947 -0.2289  0.5817  0.5603
 9362SOL    HW132933   1.224   7.574   4.931 -0.1823  1.2806 -2.4645
 9362SOL    HW232934   1.256   7.717   4.968 -0.2740  0.4582  0.9794
 9363SOL     OW32935   2.159   5.830   3.542  0.4467 -0.1287 -0.0648
 9363SOL    HW132936   2.160   5.749   3.593  3.1866  0.0595  0.2828
 9363SOL    HW232937   2.218   5.812   3.468 -0.4595  0.8974 -1.0542
 9364SOL     OW32938   3.942   6.671   4.073 -0.3475  0.4439  0.3344
 9364SOL    HW132939   3.948   6.584   4.034 -0.2737 -0.6654  2.7296
 9364SOL    HW232940   3.851   6.696   4.062  0.0229  0.8455 -1.9495
 9365SOL     OW32941   2.739   6.466   5.126  0.2055  0.0078 -0.2126
 9365SOL    HW132942   2.722   6.426   5.211  0.8689  2.0255  0.8921
 9365SOL    HW232943   2.731   6.560   5.141  1.2158  0.4386 -2.1838
 9366SOL     OW32944   3.062   4.837   3.241 -0.0396  0.2441 -0.0188
 9366SOL    HW132945   2.968   4.823   3.253  0.0942  0.3511  1.1084
 9366SOL    HW232946   3.069   4.927   3.208 -0.4696 -0.4024 -1.9897
 9367SOL     OW32947   3.358   6.907   4.825 -0.2165  0.3614 -0.1999
 9367SOL    HW132948   3.367   6.812   4.835 -0.5239  0.3771  0.3077
 9367SOL    HW232949   3.362   6.940   4.915  1.7881  1.0134 -0.5201
 9368SOL     OW32950   2.289   4.624   5.118 -0.0509 -0.3503 -0.4132
 9368SOL    HW132951   2.309   4.628   5.211 -2.0742 -2.4299  0.1680
 9368SOL    HW232952   2.210   4.677   5.107  0.9380  0.9892 -1.2014
 9369SOL     OW32953   2.525   6.691   4.269  0.2787 -0.0665 -0.7355
 9369SOL    HW132954   2.510   6.767   4.214 -0.7424  0.5962  0.4469
 9369SOL    HW232955   2.559   6.624   4.209 -1.3008  0.4695 -2.2547
 9370SOL     OW32956   2.474   7.760   6.537  0.8818 -0.3576 -0.1801
 9370SOL    HW132957   2.496   7.820   6.466 -1.9518 -0.7246 -1.4164
 9370SOL    HW232958   2.451   7.678   6.494  0.5895 -1.0518  1.2637
 9371SOL     OW32959   3.087   5.091   3.143 -0.3743 -0.2410 -0.4748
 9371SOL    HW132960   3.121   5.140   3.218 -0.5198 -1.2787  0.2815
 9371SOL    HW232961   3.106   5.147   3.067  0.9960  0.2138  0.1827
 9372SOL     OW32962   1.429   6.573   4.620 -0.1883  0.5976  0.0407
 9372SOL    HW132963   1.438   6.579   4.715 -0.3730 -1.6187  0.2276
 9372SOL    HW232964   1.397   6.484   4.605 -0.1202  0.9187 -2.1029
 9373SOL     OW32965   2.422   8.378   2.766  0.3763  0.1855  0.0161
 9373SOL    HW132966   2.478   8.316   2.721  1.2108  0.4739  0.6525
 9373SOL    HW232967   2.478   8.453   2.784 -0.4213  0.8126 -0.0613
 9374SOL     OW32968   2.276   4.500   2.999  0.7935 -0.5382 -0.1530
 9374SOL    HW132969   2.226   4.486   2.919  1.3783 -1.6846 -0.3219
 9374SOL    HW232970   2.290   4.412   3.035  1.8891 -0.1600  0.3765
 9375SOL     OW32971   2.932   8.075   2.668  0.5152  0.2599 -0.0244
 9375SOL    HW132972   2.863   8.085   2.734  0.9494 -2.4252  0.9021
 9375SOL    HW232973   2.907   8.135   2.598 -2.6221 -0.4734  0.3963
 9376SOL     OW32974   2.577   7.838   3.845  0.1855 -0.0371 -0.0264
 9376SOL    HW132975   2.568   7.916   3.898 -1.7869 -0.5652  0.4413
 9376SOL    HW232976   2.503   7.783   3.869  0.6152 -1.3411 -1.5519
 9377SOL     OW32977   3.326   7.842   4.345 -0.6237 -0.1722 -0.4968
 9377SOL    HW132978   3.286   7.777   4.287  0.0088  0.1444 -1.2998
 9377SOL    HW232979   3.337   7.797   4.429  0.2510 -1.2486 -1.1823
 9378SOL     OW32980   3.982   7.555   3.882  0.1392 -0.2376  0.2237
 9378SOL    HW132981   3.907   7.615   3.886  0.0933 -0.3198  0.7188
 9378SOL    HW232982   4.000   7.534   3.974  1.0020  0.0613  0.1242
 9379SOL     OW32983   2.662   6.754   5.125  0.5661 -0.1289  0.1070
 9379SOL    HW132984   2.599   6.748   5.196  0.5144  0.3588  0.1096
 9379SOL    HW232985   2.611   6.783   5.049  0.9010  1.0171  0.2944
 9380SOL     OW32986   3.154   8.451   3.417  0.3992 -0.2503 -0.2173
 9380SOL    HW132987   3.116   8.393   3.351  1.4506 -0.4136 -0.6826
 9380SOL    HW232988   3.104   8.431   3.497 -1.4447  0.5485 -1.1302
 9381SOL     OW32989   4.713   8.348   4.054  0.3871  0.2267 -0.7356
 9381SOL    HW132990   4.694   8.353   4.148  0.2232 -0.0966 -0.7505
 9381SOL    HW232991   4.694   8.435   4.021  1.3544  0.6058 -0.2997
 9382SOL     OW32992   1.447   6.314   3.221 -0.2415  0.3206  0.5070
 9382SOL    HW132993   1.403   6.368   3.155  0.0324 -0.0509  0.0128
 9382SOL    HW232994   1.407   6.228   3.212  0.9758 -0.1765 -0.3517
 9383SOL     OW32995   2.341   5.604   4.391 -0.9965 -0.3757  0.4347
 9383SOL    HW132996   2.398   5.658   4.447 -0.3508 -1.5950  0.9801
 9383SOL    HW232997   2.386   5.520   4.385 -1.8879 -0.7940 -0.5781
 9384SOL     OW32998   3.794   7.751   2.374 -0.1149  0.6645  0.2323
 9384SOL    HW132999   3.859   7.733   2.442 -0.2333  1.0703  0.4527
 9384SOL    HW233000   3.821   7.835   2.337  0.1018  0.3164 -0.4067
 9385SOL     OW33001   1.831   9.212   4.095  0.2719  0.0859  0.0170
 9385SOL    HW133002   1.837   9.206   4.190  0.0601 -0.3098  0.0052
 9385SOL    HW233003   1.882   9.290   4.073  0.3663  0.1484  0.4495
 9386SOL     OW33004   4.285   7.123   3.729 -0.2321 -0.3401 -0.8885
 9386SOL    HW133005   4.219   7.098   3.794  0.2629  1.7717  0.4857
 9386SOL    HW233006   4.309   7.041   3.686 -0.5673 -1.7887  1.6020
 9387SOL     OW33007   4.427   7.544   4.031 -0.3029  0.4000 -0.1971
 9387SOL    HW133008   4.497   7.584   4.082 -0.1960 -0.6895  0.5195
 9387SOL    HW233009   4.442   7.575   3.941  1.2833 -0.0715 -0.1069
 9388SOL     OW33010   1.888   7.237   5.112 -0.0932 -0.0446  0.0458
 9388SOL    HW133011   1.867   7.330   5.106  0.6923  0.1730  0.6566
 9388SOL    HW233012   1.878   7.204   5.023  0.3170  0.7750 -0.3029
 9389SOL     OW33013   9.637   7.245   4.935 -0.0738  0.3841 -0.2100
 9389SOL    HW133014   9.623   7.310   5.004 -4.0889 -0.6868  0.1630
 9389SOL    HW233015   9.622   7.292   4.854 -0.1408  0.5954 -0.0747
 9390SOL     OW33016   2.995   3.329   5.636  0.0573  0.3948  0.2475
 9390SOL    HW133017   3.006   3.236   5.614 -1.6138 -0.1171  1.5034
 9390SOL    HW233018   2.976   3.330   5.729  2.1618  2.1939  0.6885
 9391SOL     OW33019   2.005   3.865   3.477  0.0056  0.2701  0.5686
 9391SOL    HW133020   1.920   3.842   3.514  0.5175 -2.7660 -0.0331
 9391SOL    HW233021   1.985   3.897   3.389 -0.6297  1.2447  1.0538
 9392SOL     OW33022   1.471   6.157   5.023  0.1872 -0.4623  0.1789
 9392SOL    HW133023   1.410   6.199   4.962  1.5453  0.9054 -0.2738
 9392SOL    HW233024   1.415   6.106   5.081 -1.5222  1.8188  0.6163
 9393SOL     OW33025   2.544   5.159   4.570 -0.1577 -0.2070  0.2917
 9393SOL    HW133026   2.572   5.116   4.489  2.0819  2.1076 -0.2424
 9393SOL    HW233027   2.500   5.239   4.540 -3.8546 -1.7563  1.2723
 9394SOL     OW33028   2.936   7.574   4.648 -0.1051  0.2346  0.3167
 9394SOL    HW133029   2.926   7.668   4.659 -0.0420  0.4288 -1.1865
 9394SOL    HW233030   2.954   7.562   4.554  1.4484 -1.1410  0.7656
 9395SOL     OW33031   2.946   4.663   3.990 -0.4673 -0.0384  0.4866
 9395SOL    HW133032   2.902   4.592   4.037 -0.3582  0.4727  1.3846
 9395SOL    HW233033   2.895   4.741   4.013 -1.6565 -0.0749 -1.9086
 9396SOL     OW33034   3.854   7.704   3.104  0.3429  0.0027 -0.2087
 9396SOL    HW133035   3.839   7.783   3.155  0.2452  0.2054 -0.5487
 9396SOL    HW233036   3.783   7.645   3.131 -0.4081  0.5427 -0.9721
 9397SOL     OW33037   1.924   6.240   4.795  0.4527 -0.3443 -0.5282
 9397SOL    HW133038   1.957   6.192   4.872 -0.8756 -2.9020 -1.4877
 9397SOL    HW233039   1.988   6.223   4.727 -0.7441 -2.0129 -1.2745
 9398SOL     OW33040   2.466   5.371   4.155  0.0875  0.1426 -0.1520
 9398SOL    HW133041   2.376   5.399   4.173 -0.1306  0.4765 -1.6358
 9398SOL    HW233042   2.467   5.358   4.060  1.8205  0.9659 -0.2566
 9399SOL     OW33043   2.725   6.353   5.382  0.1193  0.4315  0.2075
 9399SOL    HW133044   2.770   6.304   5.451 -0.1435 -0.0158  0.0645
 9399SOL    HW233045   2.648   6.300   5.362  1.0420 -0.2761 -1.5676
 9400SOL     OW33046   2.780   7.134   4.632  0.4997 -0.2263 -0.3024
 9400SOL    HW133047   2.713   7.067   4.623 -0.9791  1.3429 -1.3430
 9400SOL    HW233048   2.765   7.172   4.718 -0.5373  0.7007 -0.8734
 9401SOL     OW33049   1.787   6.077   5.758 -0.1028 -0.2862  0.4611
 9401SOL    HW133050   1.748   5.990   5.769 -0.3094 -0.1205  1.0362
 9401SOL    HW233051   1.867   6.061   5.708 -0.2495 -0.7821  0.3775
 9402SOL     OW33052   2.864   9.000   2.603 -0.5096 -0.3130  0.4369
 9402SOL    HW133053   2.783   9.048   2.584 -0.3971 -0.2596  0.0745
 9402SOL    HW233054   2.837   8.909   2.610 -0.3417 -0.5505 -1.5471
 9403SOL     OW33055   2.637   5.517   3.892 -0.2789 -0.1462 -0.2289
 9403SOL    HW133056   2.544   5.532   3.907  0.1932  0.7959  1.8576
 9403SOL    HW233057   2.640   5.444   3.830 -2.3791 -0.6858  0.2848
 9404SOL     OW33058   3.115   6.443   4.522 -0.1798 -0.1390  0.0532
 9404SOL    HW133059   3.114   6.431   4.428 -0.4411 -1.2429  0.1896
 9404SOL    HW233060   3.052   6.379   4.555  1.5664 -1.3342  1.1519
 9405SOL     OW33061   2.207   4.245   5.806 -0.2998 -0.0938 -0.1744
 9405SOL    HW133062   2.290   4.211   5.770 -0.1439  1.5062 -1.3940
 9405SOL    HW233063   2.140   4.189   5.767  0.1615 -1.0013  0.3158
 9406SOL     OW33064   2.302   6.552   4.598 -0.1046 -0.1223 -0.7467
 9406SOL    HW133065   2.218   6.511   4.618 -1.2781  1.8308 -1.5571
 9406SOL    HW233066   2.342   6.568   4.683 -0.6299 -0.8922 -0.3526
 9407SOL     OW33067   1.995   5.051   3.051 -1.0454 -0.4743  0.6949
 9407SOL    HW133068   2.029   5.140   3.055  0.6129 -1.0905  0.6640
 9407SOL    HW233069   1.903   5.061   3.026 -0.5578  1.1660 -0.5325
 9408SOL     OW33070   3.342   7.155   5.007  1.0368  0.7054 -0.4399
 9408SOL    HW133071   3.274   7.202   4.959  0.0060 -0.3583 -0.0413
 9408SOL    HW233072   3.321   7.169   5.099  1.4013  0.4430 -0.3141
 9409SOL     OW33073   3.311   4.632   2.962 -0.2772  0.1516 -0.4117
 9409SOL    HW133074   3.335   4.543   2.936  0.4808  0.6282 -1.3980
 9409SOL    HW233075   3.217   4.627   2.982  0.0670 -1.1578  0.9215
 9410SOL     OW33076   3.715   6.300   1.696  0.6045  0.3325  0.2996
 9410SOL    HW133077   3.702   6.321   1.604  1.2745  0.3951  0.2197
 9410SOL    HW233078   3.778   6.365   1.727  1.1235 -0.2957  0.5625
 9411SOL     OW33079   4.065   7.157   4.078 -0.4099  0.2079  0.4232
 9411SOL    HW133080   4.146   7.208   4.075  1.6924 -2.9707 -0.1051
 9411SOL    HW233081   4.022   7.185   4.158  2.9795 -0.4612  2.5939
 9412SOL     OW33082   4.318   5.722   3.016  0.0863  0.7309 -0.1491
 9412SOL    HW133083   4.333   5.813   3.039  1.4291  0.0308  1.9572
 9412SOL    HW233084   4.234   5.701   3.057  0.5719  0.5830  0.7892
 9413SOL     OW33085   2.834   5.009   2.000  0.1925  0.5817  0.5268
 9413SOL    HW133086   2.905   5.028   2.061  0.7991 -1.1228  0.3762
 9413SOL    HW233087   2.812   4.918   2.016 -1.2033  0.7746 -0.2157
 9414SOL     OW33088   2.170   6.185   3.482  0.2138 -0.3103  0.1180
 9414SOL    HW133089   2.131   6.106   3.443  1.4438 -1.8589  1.9462
 9414SOL    HW233090   2.111   6.207   3.554 -2.7286  3.2510 -3.1658
 9415SOL     OW33091   2.561   7.476   3.811 -0.1901  0.6255 -0.1133
 9415SOL    HW133092   2.591   7.560   3.846 -0.8269  0.2945  1.2760
 9415SOL    HW233093   2.466   7.484   3.808 -0.2609 -0.0705  0.1367
 9416SOL     OW33094   2.709   8.627   4.899 -0.6484  0.0704 -0.0903
 9416SOL    HW133095   2.720   8.592   4.988 -1.4154  0.0741  0.0082
 9416SOL    HW233096   2.624   8.671   4.901  0.7209  2.8214  0.0622
 9417SOL     OW33097   2.976   7.815   4.800  0.4133 -0.0298  0.3895
 9417SOL    HW133098   3.070   7.797   4.805  0.1186 -1.2940  1.4660
 9417SOL    HW233099   2.940   7.781   4.882 -0.6026  2.8669  1.2097
 9418SOL     OW33100   2.790   8.166   5.726 -0.1223  0.4742  0.0911
 9418SOL    HW133101   2.744   8.222   5.789 -0.9167 -0.7821  0.6370
 9418SOL    HW233102   2.855   8.119   5.778 -0.8325 -0.6279 -0.0146
 9419SOL     OW33103   2.726   8.164   3.861 -0.4222  0.0886  0.2021
 9419SOL    HW133104   2.631   8.166   3.878 -0.3222 -1.2271  1.0249
 9419SOL    HW233105   2.755   8.254   3.875 -1.3492  0.2396  1.2069
 9420SOL     OW33106   3.587   6.465   4.148  0.1758 -0.2072 -0.1453
 9420SOL    HW133107   3.595   6.550   4.105  1.1548 -0.3164 -0.1904
 9420SOL    HW233108   3.580   6.485   4.241 -0.6308 -0.0317 -0.2412
 9421SOL     OW33109   0.946   5.088   6.037 -0.6078 -0.2484  0.1671
 9421SOL    HW133110   1.031   5.085   6.081 -0.8912 -3.7266  0.6114
 9421SOL    HW233111   0.967   5.108   5.946  0.4614  1.2814  0.7229
 9422SOL     OW33112   2.642   6.040   5.188  0.1819  0.1191 -0.2596
 9422SOL    HW133113   2.723   6.086   5.165  2.3759 -3.6096 -0.4596
 9422SOL    HW233114   2.666   5.986   5.263 -2.8558  0.7849  1.2509
 9423SOL     OW33115   2.992   7.138   5.691 -0.0191  0.0376  0.1643
 9423SOL    HW133116   3.038   7.055   5.695 -0.4201 -0.1740  0.4452
 9423SOL    HW233117   2.952   7.148   5.777  2.5762  2.0053  1.2186
 9424SOL     OW33118   2.040   3.272   4.361  0.6132 -0.0245 -0.2098
 9424SOL    HW133119   1.957   3.244   4.400  2.4184 -1.5546  2.6662
 9424SOL    HW233120   2.107   3.239   4.420  3.3959 -0.2658 -3.3687
 9425SOL     OW33121   2.882   6.198   5.143  0.2711  0.6405  0.5801
 9425SOL    HW133122   2.960   6.199   5.087 -0.8506  0.0164 -1.0135
 9425SOL    HW233123   2.848   6.288   5.138 -1.2109 -0.0094 -1.7481
 9426SOL     OW33124   2.209   7.002   3.846 -0.6514 -0.2473  0.1237
 9426SOL    HW133125   2.223   7.044   3.761 -0.3026 -0.2400  0.1845
 9426SOL    HW233126   2.292   6.959   3.865 -0.4841  0.3743  0.8073
 9427SOL     OW33127   2.297   7.090   3.596  0.0496 -0.0687  0.4486
 9427SOL    HW133128   2.383   7.048   3.605 -0.4616 -1.3001 -0.3833
 9427SOL    HW233129   2.317   7.184   3.596  1.4540 -0.3514 -0.2716
 9428SOL     OW33130   2.530   7.707   3.172  0.1639 -0.0363 -0.3576
 9428SOL    HW133131   2.515   7.783   3.228  0.2519 -0.8536  0.7871
 9428SOL    HW233132   2.445   7.664   3.166 -0.2602  1.0574 -2.3566
 9429SOL     OW33133   2.291   7.267   2.875 -0.0822 -0.1662  0.1718
 9429SOL    HW133134   2.303   7.215   2.954  3.2933  0.5622  0.2254
 9429SOL    HW233135   2.275   7.203   2.806  0.8341 -1.0752  0.7882
 9430SOL     OW33136   2.925   6.927   5.345 -0.5924  0.5285 -0.4325
 9430SOL    HW133137   2.898   6.992   5.280 -1.3017 -0.0978 -0.7674
 9430SOL    HW233138   2.967   6.857   5.295 -2.1961 -0.5138 -0.3627
 9431SOL     OW33139   1.337   6.815   4.556  0.1502  0.6135 -0.1368
 9431SOL    HW133140   1.272   6.817   4.485 -0.5445  0.6219  0.4843
 9431SOL    HW233141   1.359   6.723   4.564 -0.4832  0.4911  0.2627
 9432SOL     OW33142   2.207   5.984   4.616 -0.1592 -0.6655  0.1063
 9432SOL    HW133143   2.148   5.913   4.645  0.0984 -0.3484  1.4552
 9432SOL    HW233144   2.283   5.975   4.673 -0.3805  1.0728  0.6866
 9433SOL     OW33145   1.239   4.466   4.750 -0.0165  0.7592 -0.0720
 9433SOL    HW133146   1.332   4.483   4.740  0.2348 -0.2922  0.4503
 9433SOL    HW233147   1.232   4.416   4.832 -0.8702 -0.4288 -0.8482
 9434SOL     OW33148   1.327   6.312   4.577 -0.5132  0.1004  0.0473
 9434SOL    HW133149   1.408   6.267   4.552  0.2692  1.0407  0.8458
 9434SOL    HW233150   1.261   6.277   4.518  0.4894 -0.6543 -0.6417
 9435SOL     OW33151   2.138   7.746   4.982 -0.2887 -0.4210 -0.0177
 9435SOL    HW133152   2.212   7.762   4.925 -0.2628  0.7505  0.3248
 9435SOL    HW233153   2.092   7.673   4.942  0.6570 -0.6992 -0.6141
 9436SOL     OW33154   2.467   6.264   7.262 -0.1754  0.2386 -0.3899
 9436SOL    HW133155   2.533   6.273   7.194  0.6162  3.0335  0.6626
 9436SOL    HW233156   2.513   6.223   7.336 -0.3545 -0.3552 -0.6027
 9437SOL     OW33157   1.700   7.992   4.610  0.1122  0.3467  0.3495
 9437SOL    HW133158   1.695   7.914   4.665  0.9867 -0.9637 -1.3629
 9437SOL    HW233159   1.674   7.961   4.523  0.7042  1.9014 -0.3976
 9438SOL     OW33160   2.764   6.104   4.836  0.1976  0.1498  0.7050
 9438SOL    HW133161   2.725   6.062   4.913 -0.3332 -2.1984 -0.7940
 9438SOL    HW233162   2.726   6.192   4.835 -0.2588  0.0008  2.7674
 9439SOL     OW33163   2.300   7.710   5.204 -0.2570 -0.2972  0.4440
 9439SOL    HW133164   2.292   7.789   5.257  0.1040  0.4375 -0.5830
 9439SOL    HW233165   2.219   7.705   5.154 -0.7724 -1.2129  1.3523
 9440SOL     OW33166   2.242   5.098   4.262 -0.0550  0.5011 -0.8170
 9440SOL    HW133167   2.190   5.102   4.343 -0.4980 -0.0152 -1.0697
 9440SOL    HW233168   2.244   5.188   4.231 -0.3024  0.6224 -0.4913
 9441SOL     OW33169   3.057   6.730   7.526 -0.2829 -0.3102  0.0377
 9441SOL    HW133170   3.047   6.769   7.613 -0.0097 -1.0584  0.4124
 9441SOL    HW233171   2.968   6.713   7.496 -0.3572 -0.6674  0.4576
 9442SOL     OW33172   4.293   4.583   2.825 -0.2487  0.0268  0.3841
 9442SOL    HW133173   4.330   4.622   2.746  0.1334  1.0255  1.0600
 9442SOL    HW233174   4.369   4.553   2.875 -0.3805  1.1822  1.3013
 9443SOL     OW33175   2.335   8.400   4.635 -0.9294 -0.2801 -0.3597
 9443SOL    HW133176   2.260   8.346   4.612 -2.2931  1.0208  0.8751
 9443SOL    HW233177   2.305   8.454   4.709  1.0843  0.5531 -0.0843
 9444SOL     OW33178   1.778   7.216   2.912 -0.1494 -0.4351 -0.3380
 9444SOL    HW133179   1.798   7.140   2.968  1.0035 -0.0513 -0.2204
 9444SOL    HW233180   1.718   7.181   2.846  1.4805 -1.8170 -1.1458
 9445SOL     OW33181   3.614   9.217   5.049  0.1805 -0.5949  0.3582
 9445SOL    HW133182   3.530   9.171   5.044 -0.0492 -0.3063  1.4036
 9445SOL    HW233183   3.591   9.306   5.075  0.8066 -0.5114  0.6296
 9446SOL     OW33184   1.268   6.498   4.357  0.0637  0.6332 -0.2832
 9446SOL    HW133185   1.214   6.575   4.375 -0.3064  0.2221  0.3924
 9446SOL    HW233186   1.270   6.492   4.262  0.6712  1.8795 -0.3620
 9447SOL     OW33187   2.654   5.313   3.446  0.0643 -0.2233 -0.6272
 9447SOL    HW133188   2.607   5.378   3.500  0.7990 -1.5587  1.7147
 9447SOL    HW233189   2.593   5.292   3.376 -1.5481  0.4936  0.5187
 9448SOL     OW33190   3.536   5.780   3.541  0.4098 -0.4878  0.1741
 9448SOL    HW133191   3.470   5.798   3.608  0.5806 -0.0985  0.2406
 9448SOL    HW233192   3.618   5.773   3.590  0.3150 -1.7184  0.1813
 9449SOL     OW33193   3.140   6.578   5.190  0.0452 -0.3458 -0.3463
 9449SOL    HW133194   3.094   6.661   5.173 -2.6459 -2.0065 -1.4039
 9449SOL    HW233195   3.103   6.547   5.273  1.1574 -0.4465  0.1232
 9450SOL     OW33196   3.389   7.654   3.699 -0.3774  0.6247  0.4335
 9450SOL    HW133197   3.396   7.693   3.611  0.9555  0.9476  0.6697
 9450SOL    HW233198   3.477   7.661   3.735 -0.4146 -1.4649  0.9811
 9451SOL     OW33199   1.972   4.420   4.305  0.7012  0.0006 -0.5674
 9451SOL    HW133200   1.958   4.407   4.211 -1.1878 -0.9545 -0.1804
 9451SOL    HW233201   2.025   4.345   4.331  0.4430 -0.2307 -0.7011
 9452SOL     OW33202   3.234   5.825   3.961  0.8704 -0.3073  1.0136
 9452SOL    HW133203   3.281   5.899   3.999 -0.5895  1.2145 -0.0702
 9452SOL    HW233204   3.275   5.812   3.876 -1.0753  1.5141 -0.2601
 9453SOL     OW33205   2.859   5.637   2.631  0.4227 -0.3363 -0.0944
 9453SOL    HW133206   2.795   5.665   2.696  0.6407  0.8140 -0.3607
 9453SOL    HW233207   2.859   5.541   2.636 -1.4395 -0.3592 -0.2207
 9454SOL     OW33208   9.638   6.293   4.531 -0.9043 -0.0737  0.4926
 9454SOL    HW133209   9.568   6.336   4.581 -1.9727  1.7785 -2.4543
 9454SOL    HW233210   9.707   6.359   4.524 -1.0520 -0.0673 -1.0172
 9455SOL     OW33211   0.855   5.119   4.298  0.2790 -0.1954 -0.1518
 9455SOL    HW133212   0.798   5.042   4.302  1.2200 -0.9292 -0.4612
 9455SOL    HW233213   0.798   5.193   4.319 -0.7170 -0.9404 -0.1876
 9456SOL     OW33214   0.965   8.146   5.192 -0.1858  0.2900  0.1303
 9456SOL    HW133215   1.013   8.071   5.226 -1.2800 -0.2770  0.4739
 9456SOL    HW233216   0.922   8.113   5.112 -1.7605  0.1463  1.0136
 9457SOL     OW33217   2.049   7.149   4.008  0.2115 -0.8018  0.2216
 9457SOL    HW133218   1.972   7.091   4.004 -0.4634  0.0169  1.0311
 9457SOL    HW233219   2.108   7.115   3.941 -1.4876 -0.5235 -1.4467
 9458SOL     OW33220   1.437   7.203   4.587  0.3340  0.1204  0.4169
 9458SOL    HW133221   1.513   7.177   4.536 -0.2174 -0.9037  0.0972
 9458SOL    HW233222   1.376   7.240   4.523  0.3207  0.3610  0.5714
 9459SOL     OW33223   1.970   6.849   3.908  0.1303  0.0900  0.5808
 9459SOL    HW133224   1.984   6.769   3.959  1.9028  0.8127  1.2492
 9459SOL    HW233225   2.057   6.881   3.887 -0.4293  3.6627  3.1840
 9460SOL     OW33226   2.624   8.459   7.137 -0.5909 -0.2471  0.2288
 9460SOL    HW133227   2.537   8.481   7.171 -0.6361 -1.7039  1.0817
 9460SOL    HW233228   2.664   8.405   7.205  0.5763 -0.4801 -0.6172
 9461SOL     OW33229   3.179   6.175   4.801 -0.1615  0.4313 -0.5922
 9461SOL    HW133230   3.262   6.221   4.799 -0.5444  1.2678  1.3383
 9461SOL    HW233231   3.126   6.224   4.864 -0.7538 -2.3075  1.1316
 9462SOL     OW33232   3.007   7.391   3.938 -0.0365 -0.4918  0.3087
 9462SOL    HW133233   3.004   7.425   4.028  0.8876  1.6605 -0.4482
 9462SOL    HW233234   3.059   7.455   3.890 -1.8723 -0.7898 -2.1498
 9463SOL     OW33235   2.660   7.479   5.039 -0.4977  0.1983 -0.1654
 9463SOL    HW133236   2.681   7.388   5.019  1.0898  0.6031 -0.4310
 9463SOL    HW233237   2.644   7.519   4.954  2.3374  0.9877 -0.3686
 9464SOL     OW33238   3.344   6.940   3.498  0.1687  1.0214 -0.0403
 9464SOL    HW133239   3.398   7.007   3.540  0.8820 -0.6084  1.7106
 9464SOL    HW233240   3.344   6.965   3.405  3.3386  1.4979  0.0141
 9465SOL     OW33241   2.609   8.206   2.662 -0.0093 -0.6167  0.7277
 9465SOL    HW133242   2.558   8.130   2.635 -0.9039  0.1906  0.1223
 9465SOL    HW233243   2.646   8.240   2.581 -1.2131  0.7480  0.7381
 9466SOL     OW33244   2.742   3.894   3.972  0.3304 -0.4327 -0.4441
 9466SOL    HW133245   2.716   3.883   4.063 -0.1187  0.9860 -0.3842
 9466SOL    HW233246   2.819   3.950   3.976  0.2725 -0.3149 -0.9293
 9467SOL     OW33247   1.118   7.322   3.345 -0.0814  0.1764 -0.5934
 9467SOL    HW133248   1.033   7.345   3.307 -0.0834  0.1207 -0.6218
 9467SOL    HW233249   1.178   7.387   3.309 -0.6758  2.2012  1.8380
 9468SOL     OW33250   2.681   7.786   4.196  0.0612  0.2385 -0.2973
 9468SOL    HW133251   2.615   7.717   4.204 -0.1398  0.4417 -0.1688
 9468SOL    HW233252   2.630   7.864   4.173  0.5568 -0.2230 -3.1111
 9469SOL     OW33253   4.023   7.480   4.136 -0.3575 -0.4474 -0.4370
 9469SOL    HW133254   4.023   7.546   4.206 -3.3720 -0.0941 -0.7092
 9469SOL    HW233255   4.011   7.397   4.182  3.2747 -0.8995 -0.1097
 9470SOL     OW33256   2.362   7.720   3.981 -0.0348 -0.4385  0.0298
 9470SOL    HW133257   2.310   7.656   3.932 -1.7082  0.7380  0.2262
 9470SOL    HW233258   2.300   7.762   4.040  1.2979  0.4777  0.8158
 9471SOL     OW33259   2.780   6.818   4.452  0.4010  0.5334 -0.1280
 9471SOL    HW133260   2.813   6.842   4.539  0.8946  1.5106 -0.5695
 9471SOL    HW233261   2.833   6.743   4.426  1.0614  0.9731 -0.0739
 9472SOL     OW33262   9.953   7.057   6.152 -0.1186 -1.1224  0.2441
 9472SOL    HW133263   9.967   6.964   6.135  2.4227 -0.5156 -1.1479
 9472SOL    HW233264   9.889   7.084   6.086 -1.7791 -2.0830  1.3979
 9473SOL     OW33265   0.656   7.685   3.866 -0.4201 -0.5528 -0.5664
 9473SOL    HW133266   0.619   7.691   3.778 -0.5878  1.2134 -0.3927
 9473SOL    HW233267   0.720   7.755   3.870  0.0807 -1.0533  0.4982
 9474SOL     OW33268   3.671   5.186   3.163 -0.6443  0.7801  0.0385
 9474SOL    HW133269   3.742   5.248   3.180  0.8283 -0.9649  0.4095
 9474SOL    HW233270   3.669   5.130   3.240 -1.5215 -0.0473 -0.5704
 9475SOL     OW33271   1.270   8.250   3.915 -0.3510 -0.2270  0.5802
 9475SOL    HW133272   1.301   8.210   3.834 -2.6216 -0.6410 -0.1248
 9475SOL    HW233273   1.180   8.278   3.894 -0.0160  2.1092  2.1121
 9476SOL     OW33274   1.333   7.847   5.831  0.2297  0.2546  0.5385
 9476SOL    HW133275   1.269   7.871   5.898  0.7529  0.1139  1.0969
 9476SOL    HW233276   1.398   7.917   5.834 -0.3221  0.8334 -0.6059
 9477SOL     OW33277   4.365   6.320   2.084 -0.0614  0.1012 -0.0338
 9477SOL    HW133278   4.417   6.248   2.121  1.2859  0.5487 -1.0284
 9477SOL    HW233279   4.421   6.359   2.018 -1.4664  0.9655 -0.7426
 9478SOL     OW33280   2.343   6.027   3.694 -0.5055 -0.1821  0.3829
 9478SOL    HW133281   2.286   5.965   3.648 -0.6308  0.8991 -0.9078
 9478SOL    HW233282   2.391   6.072   3.626 -0.4508  1.2024  1.3117
 9479SOL     OW33283   2.582   7.488   3.540  0.0642  0.7684  0.0703
 9479SOL    HW133284   2.507   7.439   3.508  1.2089 -0.5463 -0.6744
 9479SOL    HW233285   2.570   7.492   3.635 -1.3285  1.2406 -0.1206
 9480SOL     OW33286   3.385   8.132   4.525 -0.6427  1.0095 -0.0227
 9480SOL    HW133287   3.405   8.183   4.603 -0.2095 -0.1099  0.6052
 9480SOL    HW233288   3.470   8.107   4.490 -0.8544  0.4351 -0.1359
 9481SOL     OW33289   2.004   5.658   3.180 -0.4777  0.7456 -0.4969
 9481SOL    HW133290   1.924   5.708   3.199 -1.1715 -0.8913  1.0198
 9481SOL    HW233291   2.023   5.611   3.261  0.3999 -1.1285 -1.7467
 9482SOL     OW33292   1.935   5.504   3.426 -0.0422 -0.1035 -0.1480
 9482SOL    HW133293   1.880   5.432   3.396  0.5323 -0.4691 -0.3264
 9482SOL    HW233294   2.011   5.463   3.466  0.3922  0.3972 -0.4404
 9483SOL     OW33295   2.203   7.654   5.772  0.4893  0.4033  0.3360
 9483SOL    HW133296   2.189   7.587   5.838 -3.1583  1.1086  0.3592
 9483SOL    HW233297   2.184   7.736   5.816  3.1583  1.3872 -0.2083
 9484SOL     OW33298   3.543   7.127   4.824 -0.1368  0.1074  0.0747
 9484SOL    HW133299   3.483   7.142   4.898  0.2694  0.2754  0.3698
 9484SOL    HW233300   3.526   7.037   4.798  0.7330 -0.4198  1.3010
 9485SOL     OW33301   2.951   7.227   4.895 -0.0880  0.1130 -0.2704
 9485SOL    HW133302   2.985   7.315   4.879 -0.3509 -0.1174 -2.2666
 9485SOL    HW233303   2.856   7.235   4.885 -0.1785 -0.2472  0.2818
 9486SOL     OW33304   4.124   8.595   3.388 -0.5490 -0.1789  0.0047
 9486SOL    HW133305   4.058   8.642   3.337  1.0026 -0.5282 -2.4507
 9486SOL    HW233306   4.208   8.631   3.358  0.4789 -1.7052  0.9596
 9487SOL     OW33307   2.494   7.972   4.591 -0.5404 -0.5886  0.6944
 9487SOL    HW133308   2.522   8.040   4.652  0.9607  0.7873 -1.4704
 9487SOL    HW233309   2.428   8.014   4.536 -0.7915 -1.3672  0.3907
 9488SOL     OW33310   1.242   8.702   3.253 -0.0348  0.0560 -0.3687
 9488SOL    HW133311   1.242   8.794   3.225 -0.8538 -0.0916 -0.8649
 9488SOL    HW233312   1.262   8.653   3.174  0.2991 -0.2002 -0.1258
 9489SOL     OW33313   2.784   6.094   3.916 -0.4244 -0.4673 -0.4886
 9489SOL    HW133314   2.700   6.049   3.909 -0.7383  0.2254 -1.4095
 9489SOL    HW233315   2.849   6.024   3.926 -1.0091 -1.0568 -0.8104
 9490SOL     OW33316   3.128   7.438   4.866  0.0805 -0.0867 -0.0381
 9490SOL    HW133317   3.207   7.492   4.873 -1.2408  1.7696  1.2382
 9490SOL    HW233318   3.081   7.474   4.790 -0.1819 -0.2971  0.0233
 9491SOL     OW33319   2.394   4.881   4.833  0.8619  0.2282  0.1117
 9491SOL    HW133320   2.443   4.818   4.886  1.2566  1.0915  0.7893
 9491SOL    HW233321   2.441   4.964   4.845  1.0650  0.3973 -1.7468
 9492SOL     OW33322   0.012   8.235   4.758  0.0390  0.0030 -0.2069
 9492SOL    HW133323   0.081   8.266   4.817 -0.3397  0.6098 -0.0849
 9492SOL    HW233324   0.020   8.140   4.760  0.3856  0.0433  0.3942
 9493SOL     OW33325   1.502   5.395   6.723  0.3121  0.4575  0.2663
 9493SOL    HW133326   1.440   5.357   6.786 -0.0672  0.7808  0.0880
 9493SOL    HW233327   1.526   5.479   6.761  0.9256  0.1758  0.5136
 9494SOL     OW33328   1.657   6.535   6.183  0.0226  0.6848  0.2109
 9494SOL    HW133329   1.731   6.591   6.159  0.9258 -0.2497  0.7788
 9494SOL    HW233330   1.629   6.567   6.268  0.1731  0.6288  0.2807
 9495SOL     OW33331   0.919   5.668   3.944 -0.0775  0.2396 -0.2862
 9495SOL    HW133332   0.841   5.649   3.996 -1.3300 -0.2044 -2.2575
 9495SOL    HW233333   0.955   5.747   3.983 -0.6392 -0.4220  1.6100
 9496SOL     OW33334   2.831   5.492   4.883  1.0319  0.2965 -0.2338
 9496SOL    HW133335   2.794   5.414   4.843 -1.0410  1.9118 -1.5604
 9496SOL    HW233336   2.864   5.462   4.968 -0.1297 -1.9053 -0.5260
 9497SOL     OW33337   1.540   7.493   5.010  0.3442 -0.4492  0.1951
 9497SOL    HW133338   1.594   7.562   5.048  1.5617 -0.5625 -1.2868
 9497SOL    HW233339   1.480   7.538   4.951 -0.2845 -0.4528  0.8311
 9498SOL     OW33340   2.291   5.864   5.413  0.3631  0.2801  0.0048
 9498SOL    HW133341   2.284   5.885   5.506  0.6466  1.0587 -0.1434
 9498SOL    HW233342   2.384   5.850   5.399  0.0844 -1.8880  0.2616
 9499SOL     OW33343   2.919   7.903   6.526 -0.0269  0.5912 -0.3434
 9499SOL    HW133344   2.869   7.978   6.494 -0.8989  0.5106  0.8083
 9499SOL    HW233345   2.941   7.925   6.617  2.2288  0.7192 -0.8727
 9500SOL     OW33346   1.177   5.174   5.540 -0.5827  0.0979  0.0308
 9500SOL    HW133347   1.244   5.106   5.546 -2.6079 -1.9642 -0.0601
 9500SOL    HW233348   1.122   5.146   5.467 -2.0089  1.3586  0.6157
 9501SOL     OW33349   4.527   8.023   5.477 -0.4824  0.5403  0.1619
 9501SOL    HW133350   4.535   8.099   5.420  2.2355 -0.0384 -0.3016
 9501SOL    HW233351   4.603   8.029   5.535 -0.3853 -1.6773  0.2998
 9502SOL     OW33352   1.979   6.512   6.591  0.2543  0.7906 -0.0105
 9502SOL    HW133353   1.968   6.590   6.536 -0.6264  0.8671  0.2651
 9502SOL    HW233354   2.003   6.443   6.530 -1.5321  0.6776 -0.6152
 9503SOL     OW33355   3.157   8.510   4.755 -0.7644 -0.4379 -0.3431
 9503SOL    HW133356   3.170   8.604   4.764 -0.3921 -0.3188 -1.9484
 9503SOL    HW233357   3.063   8.497   4.769 -0.8113  0.1679 -0.0989
 9504SOL     OW33358   4.107   7.788   2.823  0.0486 -0.2579  0.3262
 9504SOL    HW133359   4.124   7.872   2.864 -1.3667 -0.7643  1.9977
 9504SOL    HW233360   4.105   7.725   2.895 -2.8421 -1.1131 -0.4404
 9505SOL     OW33361   2.029   4.583   3.519  0.3903 -1.4288  0.2803
 9505SOL    HW133362   2.051   4.530   3.442  0.1012  0.1734 -0.9248
 9505SOL    HW233363   2.114   4.606   3.556  0.5647 -1.1720 -0.2730
 9506SOL     OW33364   3.280   4.108   3.691  0.2954  0.1102 -0.7562
 9506SOL    HW133365   3.187   4.132   3.690  0.2570 -0.0873 -2.8784
 9506SOL    HW233366   3.281   4.016   3.666  1.1858  0.5636 -2.4351
 9507SOL     OW33367   4.031   8.201   5.754  0.2635  0.0056 -0.0638
 9507SOL    HW133368   4.090   8.276   5.768  1.1953 -0.8456  0.5965
 9507SOL    HW233369   4.030   8.156   5.838  0.3679 -1.2024 -0.7091
 9508SOL     OW33370   3.586   7.231   4.230  0.0258  0.5607 -0.1874
 9508SOL    HW133371   3.598   7.269   4.143 -0.0572  0.2329 -0.3409
 9508SOL    HW233372   3.607   7.138   4.219 -0.3361  0.4498  0.0613
 9509SOL     OW33373   3.116   8.415   4.221 -0.6728 -0.4684 -0.3662
 9509SOL    HW133374   3.134   8.322   4.212 -0.6023 -0.6393  1.4513
 9509SOL    HW233375   3.043   8.431   4.161 -0.9532 -1.7678 -0.3840
 9510SOL     OW33376   9.916   7.278   5.201 -0.0170 -0.0643  0.7988
 9510SOL    HW133377   9.833   7.324   5.192 -0.1169 -0.2012  1.0321
 9510SOL    HW233378   9.901   7.214   5.270  0.4393  0.2667  1.2060
 9511SOL     OW33379   4.158   6.749   3.058 -0.3528 -0.0994 -0.1976
 9511SOL    HW133380   4.241   6.746   3.011  0.3504 -1.3650  1.0590
 9511SOL    HW233381   4.094   6.776   2.993  1.2824  2.3399 -0.8383
 9512SOL     OW33382   4.646   9.080   5.870 -0.1999  0.4502 -0.0184
 9512SOL    HW133383   4.668   9.095   5.778 -2.2787 -1.6893 -0.8999
 9512SOL    HW233384   4.593   9.156   5.894  1.1380  1.4939 -0.2662
 9513SOL     OW33385   2.166   6.669   5.445 -0.2113 -0.7948 -0.2166
 9513SOL    HW133386   2.079   6.677   5.406 -0.4205  1.1454  0.6275
 9513SOL    HW233387   2.150   6.660   5.538  0.5604  3.4412  0.4350
 9514SOL     OW33388   1.272   7.410   5.197  0.2417 -0.6415  0.5386
 9514SOL    HW133389   1.290   7.466   5.121  0.6111 -1.0148  0.3506
 9514SOL    HW233390   1.233   7.331   5.160  2.0961 -1.5935  0.5554
 9515SOL     OW33391   3.490   3.453   4.951 -0.3021 -0.0820  0.0227
 9515SOL    HW133392   3.405   3.427   4.985 -0.1478  0.2152  0.6304
 9515SOL    HW233393   3.548   3.380   4.972 -0.1278  0.2510  0.7158
 9516SOL     OW33394   1.060   7.097   2.911  0.1546  0.3025 -0.1098
 9516SOL    HW133395   0.966   7.114   2.914  0.2082  0.6756 -0.4509
 9516SOL    HW233396   1.084   7.074   3.001 -0.3639 -0.3421 -0.1401
 9517SOL     OW33397   3.237   8.237   5.429  0.6643  1.1837  0.0642
 9517SOL    HW133398   3.236   8.175   5.502  1.6361  0.0368 -0.8807
 9517SOL    HW233399   3.149   8.274   5.428 -0.3396 -1.1083 -0.1174
 9518SOL     OW33400   2.052   6.637   5.699  0.2982  0.0760 -0.2094
 9518SOL    HW133401   1.961   6.609   5.700  0.0420  0.6580 -2.7597
 9518SOL    HW233402   2.052   6.721   5.744 -0.8318  1.1181 -2.0958
 9519SOL     OW33403   1.515   7.386   3.754  0.2317  0.2453 -0.3000
 9519SOL    HW133404   1.467   7.319   3.705  0.7186 -0.4637  0.1712
 9519SOL    HW233405   1.509   7.464   3.700 -1.9292  0.3294  0.0168
 9520SOL     OW33406   3.174   4.189   3.056 -0.0600 -0.4893 -0.0342
 9520SOL    HW133407   3.090   4.228   3.035 -0.2637  0.5844  2.5870
 9520SOL    HW233408   3.175   4.182   3.152  2.6651 -0.7787 -0.0214
 9521SOL     OW33409   3.052   7.673   3.015  0.0751 -0.3756 -0.1747
 9521SOL    HW133410   3.097   7.721   2.946 -1.4221  1.0650 -0.1932
 9521SOL    HW233411   2.964   7.712   3.018  0.2874  0.0295  2.9361
 9522SOL     OW33412   2.685   7.228   3.326  0.0518 -0.3596  0.2823
 9522SOL    HW133413   2.605   7.279   3.319  0.2124 -0.0983  0.3283
 9522SOL    HW233414   2.701   7.194   3.238  0.6684  0.7727 -0.0545
 9523SOL     OW33415   4.229   7.097   3.168  0.2568  0.0515  0.4404
 9523SOL    HW133416   4.200   7.008   3.146 -0.3327  0.9922 -2.9989
 9523SOL    HW233417   4.164   7.129   3.230  0.3456 -1.8239  1.5230
 9524SOL     OW33418   2.459   5.455   3.627  0.1447 -0.1679 -0.4125
 9524SOL    HW133419   2.401   5.529   3.606 -0.8478 -0.5798  0.8183
 9524SOL    HW233420   2.401   5.380   3.630  0.5944 -0.4509  1.7266
 9525SOL     OW33421   2.515   4.968   3.279  0.0176  0.2563 -0.1211
 9525SOL    HW133422   2.573   4.925   3.342 -1.2269 -1.2698  0.0411
 9525SOL    HW233423   2.467   5.032   3.331  1.4454  1.4327 -0.2303
 9526SOL     OW33424   2.835   3.883   2.441  0.0559 -0.5602 -0.6765
 9526SOL    HW133425   2.762   3.861   2.384  0.1338 -1.3361 -0.4911
 9526SOL    HW233426   2.880   3.799   2.455  0.1974 -0.3287  0.2863
 9527SOL     OW33427   1.478   7.815   4.787 -0.1934 -0.1469 -0.7309
 9527SOL    HW133428   1.461   7.882   4.853 -0.0617  0.3250 -1.1656
 9527SOL    HW233429   1.422   7.741   4.812  0.5416 -0.3273  0.4273
 9528SOL     OW33430   1.522   5.435   4.046  0.2068  0.2640 -0.7606
 9528SOL    HW133431   1.583   5.499   4.009  1.2644 -0.9069 -1.0750
 9528SOL    HW233432   1.456   5.422   3.977  1.0549 -0.4030 -1.4639
 9529SOL     OW33433   2.964   6.896   7.759  0.1041  0.6691  0.5712
 9529SOL    HW133434   2.952   6.829   7.827 -2.1640 -0.1686 -0.6060
 9529SOL    HW233435   2.978   6.977   7.808 -1.6663  0.1075  2.0782
 9530SOL     OW33436   1.522   6.843   8.950  0.1114 -0.0393  0.2769
 9530SOL    HW133437   1.516   6.763   9.004  0.4740  1.1916  2.2131
 9530SOL    HW233438   1.454   6.833   8.884 -0.7090 -1.3775  1.2981
 9531SOL     OW33439   2.173   7.143   7.872  0.1789  0.2418  0.5990
 9531SOL    HW133440   2.231   7.184   7.808  0.0209 -0.1744  0.1839
 9531SOL    HW233441   2.202   7.177   7.956  1.3712 -0.3637  0.4392
 9532SOL     OW33442   2.323   6.967   6.347 -0.1869  0.7513 -0.0043
 9532SOL    HW133443   2.303   6.940   6.258  0.7884  0.6529 -0.1949
 9532SOL    HW233444   2.343   6.886   6.393 -0.1161  0.8601  0.1582
 9533SOL     OW33445   6.375   4.454   3.348 -0.3294 -0.3993  0.0877
 9533SOL    HW133446   6.393   4.547   3.364  2.5873 -0.8740 -0.3353
 9533SOL    HW233447   6.396   4.410   3.430 -1.0995 -0.7955  0.0839
 9534SOL     OW33448   2.362   4.547   7.233 -0.2859 -1.0414  0.0890
 9534SOL    HW133449   2.429   4.480   7.219  1.3176  0.5233  0.1404
 9534SOL    HW233450   2.352   4.551   7.328 -0.2942 -1.1061  0.0915
 9535SOL     OW33451   0.659   6.988   6.070 -0.0300  0.8760  0.8641
 9535SOL    HW133452   0.714   7.032   6.134 -0.7255  0.8833  1.4638
 9535SOL    HW233453   0.619   7.058   6.019  0.2044  0.8826  0.6909
 9536SOL     OW33454   1.973   7.660   8.080 -0.0079 -0.3214 -0.3176
 9536SOL    HW133455   1.949   7.747   8.047 -0.7040 -0.4618 -0.2000
 9536SOL    HW233456   1.926   7.652   8.163  0.3459 -0.6654 -0.1508
 9537SOL     OW33457   1.744   8.018   8.058  0.0330  0.1638 -0.2377
 9537SOL    HW133458   1.692   8.041   8.135  0.0214  2.0370 -0.7550
 9537SOL    HW233459   1.717   7.929   8.035 -1.4355  0.3491  0.7250
 9538SOL     OW33460   1.894   7.250   7.352 -0.1575 -0.0537 -0.1774
 9538SOL    HW133461   1.833   7.239   7.425  0.5269 -1.8779  0.1550
 9538SOL    HW233462   1.919   7.342   7.355 -0.4637 -0.0017  1.6424
 9539SOL     OW33463   2.400   7.390   6.117 -0.5950  0.6496 -0.3521
 9539SOL    HW133464   2.341   7.334   6.167  0.6222  0.8785  1.3861
 9539SOL    HW233465   2.443   7.330   6.056 -1.4959  0.2222 -0.5811
 9540SOL     OW33466   2.068   6.942   8.054  0.3956 -1.2932  0.0771
 9540SOL    HW133467   1.996   7.004   8.047 -1.7492 -3.7967 -1.0109
 9540SOL    HW233468   2.140   6.983   8.008 -0.6183  0.8375  0.3138
 9541SOL     OW33469   2.383   5.413   9.542 -0.0446  0.4827  0.0359
 9541SOL    HW133470   2.361   5.498   9.502  0.4412  1.3178  1.4945
 9541SOL    HW233471   2.301   5.385   9.584 -0.5425 -0.3737 -1.4840
 9542SOL     OW33472   1.901   7.611   5.780  0.2786  0.1082 -0.8819
 9542SOL    HW133473   1.871   7.694   5.743 -0.8852  0.1914  0.2539
 9542SOL    HW233474   1.883   7.618   5.874 -0.2245 -1.6050 -0.8445
 9543SOL     OW33475   1.682   8.821   7.471 -0.0681 -0.1604  0.1562
 9543SOL    HW133476   1.705   8.843   7.381 -0.9065  1.1338  0.2399
 9543SOL    HW233477   1.601   8.871   7.487 -1.8551 -3.0431  0.4767
 9544SOL     OW33478   1.569   6.511   7.760 -0.0778  0.2943 -0.4098
 9544SOL    HW133479   1.592   6.587   7.812  1.8974 -0.3848 -0.2510
 9544SOL    HW233480   1.482   6.486   7.791 -0.4284  2.0315  0.0413
 9545SOL     OW33481   0.752   6.989   5.152  0.5199 -0.5442 -0.4115
 9545SOL    HW133482   0.691   6.931   5.198 -0.0972  0.6909  0.3351
 9545SOL    HW233483   0.716   7.076   5.164  2.8369  0.2977  0.6670
 9546SOL     OW33484   1.653   5.956   8.680  0.2791  0.3985  0.5752
 9546SOL    HW133485   1.574   5.996   8.644  0.5586 -0.5422 -1.1379
 9546SOL    HW233486   1.623   5.911   8.759 -1.0797 -0.7176 -0.5529
 9547SOL     OW33487   1.774   6.897   5.681 -0.1776 -0.4397  1.0720
 9547SOL    HW133488   1.750   6.934   5.596  1.5861  0.1623  0.8231
 9547SOL    HW233489   1.692   6.897   5.730 -1.2238 -0.7852 -0.6138
 9548SOL     OW33490   2.594   5.338   8.201  0.0886 -0.3196 -0.1373
 9548SOL    HW133491   2.616   5.255   8.159 -0.5451 -1.7389  2.2465
 9548SOL    HW233492   2.502   5.351   8.181  0.5473  0.6044 -1.7657
 9549SOL     OW33493   2.879   7.759   5.863  0.6535  0.0979 -0.1678
 9549SOL    HW133494   2.817   7.713   5.806 -0.2660  1.2121 -0.0855
 9549SOL    HW233495   2.827   7.789   5.937  1.0739  1.9286 -0.5866
 9550SOL     OW33496   1.445   5.339   4.991  0.0960  0.3211  0.0966
 9550SOL    HW133497   1.394   5.312   5.068 -3.1252  0.3596 -1.9533
 9550SOL    HW233498   1.490   5.259   4.964 -2.0193 -0.7500 -0.3713
 9551SOL     OW33499   5.086   7.679   8.915  0.2742 -0.4866 -0.4192
 9551SOL    HW133500   5.157   7.663   8.853 -1.3562 -0.0912 -2.4248
 9551SOL    HW233501   5.130   7.710   8.995  2.5302 -2.6691 -0.7491
 9552SOL     OW33502   1.955   7.041   6.029 -0.0980 -0.0588 -0.6343
 9552SOL    HW133503   1.914   7.088   5.957 -0.6675 -1.2480 -1.0971
 9552SOL    HW233504   2.033   7.092   6.050  0.2941  0.0781 -2.3644
 9553SOL     OW33505   1.259   5.828   6.973 -0.2246 -0.1343  0.2047
 9553SOL    HW133506   1.243   5.755   6.914  0.9475  0.4863 -0.9016
 9553SOL    HW233507   1.227   5.905   6.925  0.6877  0.3700  0.3970
 9554SOL     OW33508   0.376   6.625   5.307 -0.0819 -0.0888  0.2215
 9554SOL    HW133509   0.351   6.677   5.383 -0.7443  0.5446 -0.4095
 9554SOL    HW233510   0.296   6.578   5.283 -0.0475  0.1827 -0.4410
 9555SOL     OW33511   1.303   6.160   6.799  0.0711 -0.2441  0.0693
 9555SOL    HW133512   1.268   6.249   6.807 -1.4998 -0.6642 -1.7211
 9555SOL    HW233513   1.391   6.172   6.764 -0.5175  0.6071 -1.1905
 9556SOL     OW33514   2.152   7.824   6.582 -0.2626 -0.6053 -0.4543
 9556SOL    HW133515   2.134   7.757   6.648 -0.6407  2.0025  2.1985
 9556SOL    HW233516   2.245   7.843   6.592 -0.4080  0.0820 -0.3855
 9557SOL     OW33517   1.596   7.788   5.444  0.0012 -0.1030  1.0329
 9557SOL    HW133518   1.615   7.701   5.409 -1.1576 -0.3195  0.9323
 9557SOL    HW233519   1.505   7.804   5.420  0.2230  1.1637  1.0048
 9558SOL     OW33520   2.774   7.313   9.017 -0.0727 -0.3840  0.6690
 9558SOL    HW133521   2.866   7.341   9.012 -0.0413 -0.3677  1.3024
 9558SOL    HW233522   2.777   7.230   9.065 -0.5738  0.5661  2.4080
 9559SOL     OW33523   0.777   4.950   8.261  0.3207  0.3290  0.6043
 9559SOL    HW133524   0.704   4.897   8.228  1.8904 -0.5007 -1.6683
 9559SOL    HW233525   0.780   5.025   8.202  1.7204  0.0012  0.2473
 9560SOL     OW33526   1.977   7.220   7.690  0.6335 -0.1845  0.1175
 9560SOL    HW133527   2.009   7.174   7.767  2.0303  0.5013 -0.0371
 9560SOL    HW233528   1.956   7.308   7.722 -1.4088 -0.7017  0.2777
 9561SOL     OW33529   2.053   7.867   5.968  0.1447  0.6179 -0.2664
 9561SOL    HW133530   1.978   7.816   6.001  0.6397 -0.9516 -1.5376
 9561SOL    HW233531   2.013   7.939   5.920 -0.5666 -0.2259 -0.9624
 9562SOL     OW33532   2.533   8.263   5.333  0.5486 -0.1404 -0.1825
 9562SOL    HW133533   2.574   8.344   5.363 -0.5103  0.1657  0.4495
 9562SOL    HW233534   2.607   8.207   5.307  1.3908  0.3051  1.1946
 9563SOL     OW33535   3.109   6.935   8.976 -0.0308 -0.1008 -0.1467
 9563SOL    HW133536   3.026   6.962   8.938  0.1579 -1.6582 -1.7492
 9563SOL    HW233537   3.106   6.967   9.066 -1.6853  1.2196 -0.6361
 9564SOL     OW33538   4.446   5.217   8.888 -0.3581 -0.5741 -0.3503
 9564SOL    HW133539   4.519   5.274   8.912 -1.2291  0.1802  0.5776
 9564SOL    HW233540   4.392   5.271   8.829  0.0557 -1.2766 -1.3814
 9565SOL     OW33541   2.329   7.655   7.009 -0.1841  0.3578  0.2315
 9565SOL    HW133542   2.350   7.721   7.075  1.6108  0.2740 -0.2047
 9565SOL    HW233543   2.310   7.706   6.930 -0.9179  0.4154  0.4451
 9566SOL     OW33544   4.233   6.276   8.473 -0.1440 -0.1894 -0.5491
 9566SOL    HW133545   4.185   6.342   8.423  0.0981  0.8585  0.5770
 9566SOL    HW233546   4.325   6.301   8.464  0.0064 -0.7997 -0.7216
 9567SOL     OW33547   2.368   7.252   7.703  0.6998 -0.5825  0.3141
 9567SOL    HW133548   2.347   7.225   7.613  1.8272  0.1531 -0.1876
 9567SOL    HW233549   2.349   7.345   7.706 -0.0018 -0.7505  1.0495
 9568SOL     OW33550   1.445   6.697   7.575  0.6042 -0.3339  0.4018
 9568SOL    HW133551   1.492   6.653   7.646 -0.8271 -2.2940  0.1662
 9568SOL    HW233552   1.353   6.679   7.592 -0.0367  2.6117  0.2941
 9569SOL     OW33553   1.971   8.563   6.681 -0.1418  0.5004 -0.2341
 9569SOL    HW133554   1.956   8.576   6.587  1.0781 -1.4314 -0.7275
 9569SOL    HW233555   1.989   8.650   6.715 -0.4762  1.2088 -1.8187
 9570SOL     OW33556   1.443   7.199   7.273  0.1110 -0.0697  0.4551
 9570SOL    HW133557   1.524   7.177   7.228 -0.0972 -0.2182  0.1562
 9570SOL    HW233558   1.395   7.117   7.280 -1.0842  0.4411 -1.4997
 9571SOL     OW33559   1.076   7.934   5.981 -0.3038  0.1038 -0.0513
 9571SOL    HW133560   1.113   8.019   6.009  1.9528 -0.3593 -1.4788
 9571SOL    HW233561   0.984   7.938   6.008 -0.0892  2.7603  0.4738
 9572SOL     OW33562   2.996   4.956   7.068 -0.1840 -0.0242 -0.2890
 9572SOL    HW133563   3.000   4.889   6.999 -0.6411  0.0254 -0.3663
 9572SOL    HW233564   3.022   4.911   7.148  0.7403  0.0119 -0.5615
 9573SOL     OW33565   1.732   8.516   8.299 -0.2634 -0.2407  0.4060
 9573SOL    HW133566   1.774   8.497   8.383 -0.1549  1.9544  0.8772
 9573SOL    HW233567   1.648   8.557   8.323 -0.9946 -1.1292 -0.5555
 9574SOL     OW33568   2.835   6.948   6.434 -0.3851  0.3825 -0.3020
 9574SOL    HW133569   2.780   6.904   6.499  0.5647 -1.9207 -1.0260
 9574SOL    HW233570   2.914   6.972   6.482 -0.6202  0.7253 -0.0778
 9575SOL     OW33571   2.928   4.975   7.908 -0.3748  0.0546  0.5626
 9575SOL    HW133572   2.900   4.914   7.976 -1.6104  0.9773  0.9019
 9575SOL    HW233573   2.946   5.057   7.955  0.5300  0.1694  0.0180
 9576SOL     OW33574   1.965   6.800   8.283  0.2665  0.0856 -0.0183
 9576SOL    HW133575   2.002   6.840   8.204 -2.0536  0.8276 -0.7730
 9576SOL    HW233576   1.902   6.736   8.250  1.0719 -1.3644  1.2331
 9577SOL     OW33577   1.638   7.516   5.361  0.6707 -0.1867 -0.3224
 9577SOL    HW133578   1.670   7.518   5.451  0.6386  0.1573 -0.3171
 9577SOL    HW233579   1.584   7.437   5.356  3.5146 -2.1775 -1.0277
 9578SOL     OW33580   4.527   7.034   8.547  0.5815 -0.0881  0.4591
 9578SOL    HW133581   4.480   7.117   8.552  0.4619 -0.0403 -1.3358
 9578SOL    HW233582   4.545   7.012   8.639 -0.7251  1.1407  1.0370
 9579SOL     OW33583   3.275   8.304   8.535 -0.2733 -0.1440 -0.5046
 9579SOL    HW133584   3.182   8.304   8.513 -0.7159  1.3446  1.2498
 9579SOL    HW233585   3.296   8.397   8.547  1.4022 -0.4887 -0.7233
 9580SOL     OW33586   2.673   6.732   6.294 -0.5079  0.3687  0.7855
 9580SOL    HW133587   2.657   6.771   6.380 -0.5173 -0.0684  0.9831
 9580SOL    HW233588   2.765   6.704   6.298  0.3362  2.7737 -0.2995
 9581SOL     OW33589   3.089   3.765   7.667  0.0253 -0.5394 -0.8784
 9581SOL    HW133590   3.180   3.754   7.693 -0.2994 -0.2979  0.4386
 9581SOL    HW233591   3.066   3.684   7.623  1.1928 -0.1625 -2.2156
 9582SOL     OW33592   1.730   7.201   7.565 -0.2253 -0.6184  0.0276
 9582SOL    HW133593   1.820   7.208   7.597 -0.8640 -0.8640  1.9685
 9582SOL    HW233594   1.717   7.107   7.554 -0.7757 -0.7147  1.3971
 9583SOL     OW33595   1.951   3.594   8.848 -0.5925  0.1989 -0.5653
 9583SOL    HW133596   2.019   3.534   8.819 -1.8301 -1.0400 -0.9561
 9583SOL    HW233597   1.998   3.662   8.897  0.8645 -0.8940 -0.4185
 9584SOL     OW33598   2.708   5.481   5.606 -0.4031  0.3564  0.3119
 9584SOL    HW133599   2.689   5.517   5.693 -0.1873 -1.0148  0.9375
 9584SOL    HW233600   2.739   5.392   5.623  0.7213  0.4660 -1.1021
 9585SOL     OW33601   2.921   8.862   6.549  0.5383 -0.1363  0.0021
 9585SOL    HW133602   2.888   8.861   6.639 -1.5034 -0.3911 -0.7135
 9585SOL    HW233603   2.870   8.794   6.505 -1.0499  2.3991 -2.1820
 9586SOL     OW33604   6.489   6.241   8.566  0.0299  0.2156 -0.1013
 9586SOL    HW133605   6.460   6.221   8.655  1.1110  1.4766  0.5685
 9586SOL    HW233606   6.508   6.156   8.526  0.2761 -0.3246  1.1537
 9587SOL     OW33607   0.079   6.816   7.409 -0.4167  0.2912  0.0715
 9587SOL    HW133608   0.007   6.776   7.360 -0.1568 -2.3134  1.7200
 9587SOL    HW233609   0.037   6.887   7.459 -1.5075 -0.0280 -0.3658
 9588SOL     OW33610   2.366   8.125   6.083 -0.0718 -0.1041 -0.0240
 9588SOL    HW133611   2.364   8.041   6.128 -2.6169 -0.1356 -0.1211
 9588SOL    HW233612   2.316   8.111   6.003  1.4055  0.9107 -1.1448
 9589SOL     OW33613   2.278   5.784   6.076  0.3837  0.0092  0.1521
 9589SOL    HW133614   2.278   5.863   6.021  0.2633  0.1723  0.3868
 9589SOL    HW233615   2.230   5.719   6.025  1.9196 -0.4334 -0.7931
 9590SOL     OW33616   2.869   6.246   9.208 -0.0738 -0.7214 -0.0452
 9590SOL    HW133617   2.780   6.221   9.234 -0.2691 -0.8854 -0.8526
 9590SOL    HW233618   2.926   6.200   9.270 -0.5741  0.0938  1.0337
 9591SOL     OW33619   2.310   5.532   5.041  0.1511  0.0092 -0.1845
 9591SOL    HW133620   2.300   5.619   5.003  1.1930  0.7156  1.1457
 9591SOL    HW233621   2.307   5.546   5.135 -0.0205 -1.4410  0.0373
 9592SOL     OW33622   2.929   6.501   9.407  0.1024  0.0462 -0.2820
 9592SOL    HW133623   2.854   6.446   9.428 -2.2529  2.4769 -1.9925
 9592SOL    HW233624   2.968   6.460   9.330  0.1737 -0.8879  0.2474
 9593SOL     OW33625   1.389   6.613   6.704  0.2526 -0.5706  0.3074
 9593SOL    HW133626   1.379   6.708   6.709 -0.4800 -0.6384  0.0915
 9593SOL    HW233627   1.483   6.599   6.715  0.5668  0.2788 -1.1776
 9594SOL     OW33628   2.450   5.019   8.302  0.1276  0.0249 -0.1680
 9594SOL    HW133629   2.537   5.023   8.262  0.1090  0.1449 -0.1978
 9594SOL    HW233630   2.393   4.985   8.233 -0.1892  1.6802 -0.7486
 9595SOL     OW33631   2.974   4.646   7.923 -0.5368  0.2969 -0.1336
 9595SOL    HW133632   2.897   4.686   7.964 -0.5557 -0.5824  0.7289
 9595SOL    HW233633   3.043   4.711   7.933 -1.5341  1.7739 -2.3581
 9596SOL     OW33634   2.874   6.386   4.901  0.2520 -0.4003  0.0540
 9596SOL    HW133635   2.826   6.413   4.979 -0.9294  2.0958 -1.4664
 9596SOL    HW233636   2.966   6.389   4.926  0.0003  2.6067  0.7208
 9597SOL     OW33637   3.274   4.305   6.632 -0.1278  0.2682  0.1734
 9597SOL    HW133638   3.337   4.371   6.660  0.1464  0.2890 -0.4781
 9597SOL    HW233639   3.189   4.349   6.636 -0.0433  0.4028  0.5329
 9598SOL     OW33640   3.917   7.393   8.099 -0.0215  0.1430  0.7277
 9598SOL    HW133641   4.006   7.411   8.069 -0.3476  1.4095  0.4727
 9598SOL    HW233642   3.888   7.476   8.137 -1.1712 -0.1959  0.6053
 9599SOL     OW33643   1.807   5.799   5.175 -0.1229 -0.4867 -0.0439
 9599SOL    HW133644   1.820   5.855   5.099  1.4645  0.5887  0.9824
 9599SOL    HW233645   1.809   5.710   5.140 -0.6324  0.0255 -1.4111
 9600SOL     OW33646   2.412   3.975   4.939  0.0813 -0.0467  0.2866
 9600SOL    HW133647   2.332   3.938   4.977 -0.2357 -0.0848 -0.4218
 9600SOL    HW233648   2.470   3.987   5.014  0.2925 -2.2367  0.5047
 9601SOL     OW33649   1.077   7.246   8.536  0.1531  0.0360 -0.8414
 9601SOL    HW133650   1.012   7.272   8.472  0.4965 -2.1990 -2.1602
 9601SOL    HW233651   1.162   7.263   8.495  0.3779 -2.1893 -1.3773
 9602SOL     OW33652   2.222   7.242   8.126  0.0495 -0.5108  0.1353
 9602SOL    HW133653   2.144   7.279   8.169  0.3057 -0.8645  0.9079
 9602SOL    HW233654   2.283   7.225   8.198  1.2439  0.7036 -0.5670
 9603SOL     OW33655   3.522   8.215   5.968 -0.7511  0.1182  0.0057
 9603SOL    HW133656   3.461   8.258   5.909 -0.0236  0.1185 -0.7510
 9603SOL    HW233657   3.595   8.276   5.976 -0.2017 -0.5012 -0.2353
 9604SOL     OW33658   1.499   7.313   7.518 -0.1237  0.9154 -1.1173
 9604SOL    HW133659   1.574   7.267   7.556 -1.1980  0.1138  0.0927
 9604SOL    HW233660   1.477   7.263   7.440 -1.2608 -0.6274  0.1721
 9605SOL     OW33661   2.813   3.892   6.186  0.0048  0.3805 -0.1987
 9605SOL    HW133662   2.782   3.888   6.096  0.8424  1.0595 -0.5344
 9605SOL    HW233663   2.735   3.882   6.240 -0.2409 -2.1588 -0.9828
 9606SOL     OW33664   2.382   3.709   7.946  0.0673 -0.3155 -0.5270
 9606SOL    HW133665   2.342   3.626   7.973  0.0789  0.2347  1.2533
 9606SOL    HW233666   2.333   3.776   7.993  0.1586  0.6900 -1.8337
 9607SOL     OW33667   2.896   5.457   6.955 -0.5461  0.4336 -0.2517
 9607SOL    HW133668   2.833   5.481   6.887 -0.9521  1.2108  0.3837
 9607SOL    HW233669   2.856   5.380   6.997 -0.9764  0.7947  0.0093
 9608SOL     OW33670   1.745   6.003   7.854 -0.6089 -0.8047 -0.0231
 9608SOL    HW133671   1.765   6.097   7.849 -0.0520 -0.9458 -0.4376
 9608SOL    HW233672   1.662   5.999   7.902 -1.2510 -0.0110 -1.0329
 9609SOL     OW33673   1.875   4.793   6.571 -0.1043  0.4854 -0.4473
 9609SOL    HW133674   1.823   4.859   6.525 -0.2646  1.4132  1.0405
 9609SOL    HW233675   1.852   4.804   6.663  1.6594 -0.0496  0.0819
 9610SOL     OW33676   1.967   6.762   6.467 -0.3493  0.2464  0.1467
 9610SOL    HW133677   1.990   6.712   6.388 -0.5648 -0.8907  0.7918
 9610SOL    HW233678   1.914   6.835   6.435 -0.4405 -0.2070 -0.7555
 9611SOL     OW33679   3.080   6.196   7.534 -0.5113  0.0390 -0.4933
 9611SOL    HW133680   3.123   6.244   7.463 -0.4043 -1.0337 -1.1638
 9611SOL    HW233681   3.051   6.264   7.595  1.0742  0.8407 -0.6221
 9612SOL     OW33682   3.290   7.066   7.329  0.0075 -0.8502  0.5161
 9612SOL    HW133683   3.277   7.134   7.263 -1.3515 -1.4769  0.1101
 9612SOL    HW233684   3.382   7.072   7.352  0.1707  0.3357 -0.3856
 9613SOL     OW33685   3.564   8.025   5.469 -0.4289 -0.3469 -0.3865
 9613SOL    HW133686   3.593   8.094   5.529  1.0259 -0.9609 -0.3524
 9613SOL    HW233687   3.514   8.071   5.402  1.1255  0.8545 -0.7629
 9614SOL     OW33688   2.358   5.985   7.064  0.0101 -0.1533 -0.2131
 9614SOL    HW133689   2.303   6.042   7.010 -1.8768 -1.0366  0.7139
 9614SOL    HW233690   2.367   5.905   7.011 -2.0709 -1.1275  0.8179
 9615SOL     OW33691   2.787   8.117   6.412 -0.4140  0.4379 -0.2740
 9615SOL    HW133692   2.803   8.188   6.350  0.5422  0.7743  0.3502
 9615SOL    HW233693   2.819   8.151   6.495 -1.3837 -0.1437  0.3430
 9616SOL     OW33694   1.973   6.837   5.844  0.5066  0.3607 -0.0378
 9616SOL    HW133695   1.975   6.906   5.911 -0.2453  2.1609 -1.7855
 9616SOL    HW233696   1.896   6.858   5.791  0.3448 -1.7760 -0.6991
 9617SOL     OW33697   2.176   5.386   7.579 -0.1403  0.3211 -0.0054
 9617SOL    HW133698   2.210   5.448   7.644 -2.3102  1.8795 -0.3244
 9617SOL    HW233699   2.085   5.372   7.603  0.1697 -2.3998 -0.2463
 9618SOL     OW33700   1.908   6.823   6.718  0.2096 -0.2049  0.0790
 9618SOL    HW133701   1.942   6.763   6.785  0.1362  0.9073  1.1346
 9618SOL    HW233702   1.957   6.801   6.639  1.5392 -0.3764  0.9327
 9619SOL     OW33703   4.619   8.552   7.188 -0.4052 -0.5686 -0.3986
 9619SOL    HW133704   4.651   8.519   7.104  2.1562  3.9129 -1.3555
 9619SOL    HW233705   4.544   8.607   7.165 -1.6668 -1.8316  0.6305
 9620SOL     OW33706   3.145   7.002   6.292 -0.6148 -0.3248  0.1499
 9620SOL    HW133707   3.087   6.930   6.269 -0.1469 -0.8638  0.6612
 9620SOL    HW233708   3.215   6.999   6.227 -0.6556 -0.2565  0.1020
 9621SOL     OW33709   2.838   6.339   7.322 -0.4538 -0.0415 -0.0608
 9621SOL    HW133710   2.807   6.250   7.337 -0.2670 -0.0120  0.5154
 9621SOL    HW233711   2.927   6.339   7.358 -1.0337  0.8185  1.4381
 9622SOL     OW33712   2.067   6.650   8.768 -0.3256 -0.0391  0.0563
 9622SOL    HW133713   1.985   6.615   8.802 -0.2331  0.7936  1.1440
 9622SOL    HW233714   2.135   6.610   8.822 -0.0535 -0.1980 -0.4000
 9623SOL     OW33715   1.845   8.479   9.511  0.7647 -0.5798 -0.1772
 9623SOL    HW133716   1.934   8.472   9.476  0.8134 -1.2424  0.0722
 9623SOL    HW233717   1.797   8.528   9.444  0.9623 -1.4624 -0.9691
 9624SOL     OW33718   2.282   6.842   6.086 -0.4346 -0.4831 -0.5374
 9624SOL    HW133719   2.255   6.763   6.039 -0.4790 -0.1151 -1.1358
 9624SOL    HW233720   2.345   6.884   6.028 -1.7096  0.8232 -1.0080
 9625SOL     OW33721   2.527   6.268   7.741  0.0924  0.0018  0.3051
 9625SOL    HW133722   2.443   6.272   7.695 -0.8493 -0.9312  1.9256
 9625SOL    HW233723   2.574   6.195   7.699  0.2379  0.6966 -0.7830
 9626SOL     OW33724   2.944   5.525   7.546 -0.0325 -0.2882 -0.4213
 9626SOL    HW133725   2.926   5.619   7.538 -0.4202 -0.4308 -1.1597
 9626SOL    HW233726   2.954   5.494   7.456  0.6631 -0.8485 -0.1585
 9627SOL     OW33727   0.614   8.270   6.575  0.2392 -0.3912 -0.8822
 9627SOL    HW133728   0.544   8.233   6.628  1.0933  0.2984  0.7670
 9627SOL    HW233729   0.624   8.210   6.502 -0.4701 -1.7421  0.1192
 9628SOL     OW33730   2.100   6.995   5.433 -0.5425  0.0290  0.2873
 9628SOL    HW133731   2.007   6.976   5.444 -0.5018 -0.3224  0.0490
 9628SOL    HW233732   2.142   6.961   5.512 -0.5436 -0.3464  0.1265
 9629SOL     OW33733   1.447   6.226   5.599  0.0807  0.4089 -0.2678
 9629SOL    HW133734   1.377   6.269   5.550  0.6988  1.6296 -0.0980
 9629SOL    HW233735   1.441   6.134   5.573 -0.9099  0.6825 -1.0520
 9630SOL     OW33736   1.796   6.544   5.741 -0.4839  0.2011 -0.0584
 9630SOL    HW133737   1.783   6.457   5.705 -0.2867  0.0717  0.1869
 9630SOL    HW233738   1.714   6.564   5.785  0.2978 -0.8171  1.9126
 9631SOL     OW33739   2.718   8.268   7.314 -0.5723  0.2364  0.5560
 9631SOL    HW133740   2.796   8.213   7.305  0.3613  1.4581  1.0776
 9631SOL    HW233741   2.712   8.286   7.408 -0.6709  1.3196  0.3429
 9632SOL     OW33742   3.291   4.019   7.088 -0.3179 -0.2574  0.6382
 9632SOL    HW133743   3.222   4.074   7.125 -0.6833 -0.9717  1.0197
 9632SOL    HW233744   3.273   4.019   6.994 -1.0063 -0.6735  0.7690
 9633SOL     OW33745   1.983   7.745   7.547 -0.0101 -0.3268 -0.8512
 9633SOL    HW133746   1.997   7.808   7.476  1.4015 -0.9686 -1.1520
 9633SOL    HW233747   2.058   7.756   7.605 -0.1512 -1.1895 -0.4929
 9634SOL     OW33748   1.509   6.614   4.346 -0.3695 -0.2225 -0.0181
 9634SOL    HW133749   1.442   6.546   4.334 -0.6510  0.1479 -0.5887
 9634SOL    HW233750   1.501   6.640   4.437 -0.4528 -0.7611  0.1279
 9635SOL     OW33751   2.835   6.606   7.457  0.5318 -0.2048 -0.2368
 9635SOL    HW133752   2.760   6.587   7.514  0.8403 -1.7702 -0.3128
 9635SOL    HW233753   2.840   6.529   7.399  1.4793  0.4290 -0.9993
 9636SOL     OW33754   3.323   3.905   9.001 -0.1471 -0.3499 -0.2758
 9636SOL    HW133755   3.259   3.948   8.945 -0.8895  0.7468  1.3651
 9636SOL    HW233756   3.280   3.824   9.029 -0.9215  0.4651  0.9605
 9637SOL     OW33757   0.998   6.158   7.968  0.2198  0.3126 -0.2670
 9637SOL    HW133758   0.931   6.226   7.971 -1.5146 -1.2749 -1.2698
 9637SOL    HW233759   1.065   6.192   7.909  0.5032  2.1050  1.0752
 9638SOL     OW33760   1.886   6.762   7.593 -0.3675 -0.0766 -0.6509
 9638SOL    HW133761   1.792   6.778   7.599 -0.0771  1.2008  0.5995
 9638SOL    HW233762   1.921   6.837   7.546  0.2729  0.4284  0.5902
 9639SOL     OW33763   2.664   7.124   8.824  0.0765 -0.2347 -0.2186
 9639SOL    HW133764   2.706   7.039   8.812 -1.0898 -0.9517  0.6165
 9639SOL    HW233765   2.713   7.167   8.894 -0.8604 -1.2768  1.1049
 9640SOL     OW33766   1.959   6.655   4.531  0.1500 -0.4013  0.0305
 9640SOL    HW133767   2.002   6.589   4.586  0.0088  0.0768  0.7341
 9640SOL    HW233768   1.888   6.689   4.586  1.2016  1.4544  0.3031
 9641SOL     OW33769   2.798   5.101   5.696  0.0082  0.3690  0.0472
 9641SOL    HW133770   2.837   5.015   5.677  0.5626  0.4373  0.8573
 9641SOL    HW233771   2.758   5.127   5.613  1.1898  0.0398 -0.6488
 9642SOL     OW33772   1.406   7.777   6.241  0.4652 -0.0011  0.4541
 9642SOL    HW133773   1.325   7.766   6.190  1.4989 -1.1174 -0.9904
 9642SOL    HW233774   1.428   7.870   6.231 -0.6428  0.3107  0.8699
 9643SOL     OW33775   2.641   4.751   9.675 -0.0910 -0.2225  0.0653
 9643SOL    HW133776   2.695   4.786   9.604 -0.1290  2.1235  1.1603
 9643SOL    HW233777   2.556   4.736   9.634  0.1656  0.1707 -0.6205
 9644SOL     OW33778   2.677   5.077   8.147 -0.3370 -0.5599  0.6200
 9644SOL    HW133779   2.772   5.074   8.141 -0.3994 -1.7395  0.2666
 9644SOL    HW233780   2.646   5.031   8.069 -1.2084  1.1988 -0.0995
 9645SOL     OW33781   2.034   5.430   4.979  0.8327 -0.4022  0.2045
 9645SOL    HW133782   2.127   5.452   4.976  1.2300 -2.1181 -1.5742
 9645SOL    HW233783   2.017   5.389   4.894 -1.9184  1.2826 -0.1453
 9646SOL     OW33784   4.705   7.543   7.710  0.2756 -0.3300 -0.4688
 9646SOL    HW133785   4.665   7.598   7.641 -1.2005 -2.7099 -1.5719
 9646SOL    HW233786   4.764   7.485   7.663 -2.1725 -3.2917 -0.0543
 9647SOL     OW33787   2.041   6.391   6.831  0.3524 -0.0080  0.2847
 9647SOL    HW133788   1.970   6.343   6.872  0.0850  1.2730  1.3592
 9647SOL    HW233789   2.008   6.412   6.743  0.4239 -1.6195 -0.1459
 9648SOL     OW33790   0.738   7.589   8.123 -0.4814  0.4266  0.1964
 9648SOL    HW133791   0.774   7.509   8.161 -2.0930  0.3271  1.5831
 9648SOL    HW233792   0.814   7.644   8.105  0.5248 -0.7833  0.6948
 9649SOL     OW33793   1.761   7.271   6.339  0.5596 -0.3099  0.5181
 9649SOL    HW133794   1.757   7.358   6.300  0.0205 -0.7135 -0.3277
 9649SOL    HW233795   1.679   7.229   6.314  0.0631 -0.4679  2.3235
 9650SOL     OW33796   2.545   3.832   5.440  0.0488 -0.1704  0.3540
 9650SOL    HW133797   2.512   3.830   5.530 -1.4137 -0.5807 -0.1801
 9650SOL    HW233798   2.606   3.758   5.435 -1.2873 -1.3038  0.4829
 9651SOL     OW33799   2.888   8.894   6.819 -0.3923 -0.6725 -0.3875
 9651SOL    HW133800   2.823   8.898   6.888  0.7820 -1.8950  0.8294
 9651SOL    HW233801   2.961   8.947   6.852 -1.1937  1.6214 -2.2210
 9652SOL     OW33802   3.046   6.389   7.984 -0.2811  0.3208 -0.2410
 9652SOL    HW133803   2.957   6.358   8.003  0.2815 -0.3289  1.4064
 9652SOL    HW233804   3.062   6.458   8.048  0.4310  0.3668 -0.4667
 9653SOL     OW33805   1.961   5.439   7.926 -0.4605 -0.5308 -0.5490
 9653SOL    HW133806   1.954   5.471   7.836  0.5136  1.0243 -0.0890
 9653SOL    HW233807   1.927   5.510   7.980  1.5634 -0.3122  0.4796
 9654SOL     OW33808   1.536   6.288   6.357  0.2697  0.0486 -0.3060
 9654SOL    HW133809   1.548   6.342   6.435 -2.8040  1.4128 -0.7389
 9654SOL    HW233810   1.515   6.350   6.287  0.1032 -1.4210 -1.5840
 9655SOL     OW33811   2.761   7.048   6.171 -0.3567 -0.6222  0.3225
 9655SOL    HW133812   2.740   6.966   6.127 -0.1051 -0.6263  0.2043
 9655SOL    HW233813   2.800   7.022   6.255 -2.9638 -0.5988  1.5889
 9656SOL     OW33814   4.219   4.138   9.602  0.2257  0.3129 -0.5097
 9656SOL    HW133815   4.130   4.157   9.574 -0.3590 -0.9772  0.3852
 9656SOL    HW233816   4.272   4.209   9.566 -1.1567  1.0772 -1.0685
 9657SOL     OW33817   2.284   7.073   7.294  0.5641 -0.4177  0.5222
 9657SOL    HW133818   2.260   7.142   7.356  0.2858 -0.8478  0.8981
 9657SOL    HW233819   2.370   7.099   7.261  0.0976  0.5431  0.0387
 9658SOL     OW33820   2.132   5.504   7.073 -1.2091 -0.2621 -0.1077
 9658SOL    HW133821   2.055   5.539   7.118 -0.2983  1.7171 -0.0202
 9658SOL    HW233822   2.125   5.538   6.984  0.1246  0.8590  0.2027
 9659SOL     OW33823   1.611   7.198   9.018 -0.6035  0.0269  0.2170
 9659SOL    HW133824   1.615   7.264   9.087 -1.3409 -0.3427  0.6301
 9659SOL    HW233825   1.517   7.188   9.000 -0.7061 -2.5932  1.8381
 9660SOL     OW33826   1.794   4.788   5.949  0.2086 -0.0429 -0.4357
 9660SOL    HW133827   1.885   4.786   5.918  0.2300  0.9760 -0.4475
 9660SOL    HW233828   1.762   4.874   5.923 -0.0787  0.4575  1.5459
 9661SOL     OW33829   1.678   6.534   7.274 -0.0221  0.0343 -0.0585
 9661SOL    HW133830   1.704   6.445   7.250 -0.5577 -0.1342 -0.0214
 9661SOL    HW233831   1.760   6.584   7.274  0.2607 -0.4277 -0.2102
 9662SOL     OW33832   0.034   7.023   6.603  0.3373 -0.2805  0.5282
 9662SOL    HW133833   0.081   7.034   6.521 -0.6407 -1.8092 -0.2746
 9662SOL    HW233834   0.085   7.072   6.667  2.6411 -1.3250 -0.4458
 9663SOL     OW33835   1.860   7.046   9.403 -0.7017 -0.9345  0.6331
 9663SOL    HW133836   1.862   7.019   9.494 -1.0635  0.6034  1.1221
 9663SOL    HW233837   1.829   7.137   9.406  1.5728 -0.0565 -0.8056
 9664SOL     OW33838   2.249   6.792   7.352  0.1763  0.0063 -0.3689
 9664SOL    HW133839   2.285   6.881   7.354 -0.0959  0.1079  0.6259
 9664SOL    HW233840   2.321   6.738   7.320  1.2992  0.1964  1.7292
 9665SOL     OW33841   2.063   5.507   8.745 -0.0797 -0.5233  0.2924
 9665SOL    HW133842   2.085   5.555   8.825  1.5311 -0.4876 -0.1362
 9665SOL    HW233843   2.005   5.566   8.697  1.4969  0.8450 -0.0087
 9666SOL     OW33844   1.557   8.807   6.264  0.7469  0.0359 -0.5625
 9666SOL    HW133845   1.498   8.882   6.251  0.4795  0.1642  1.2608
 9666SOL    HW233846   1.560   8.795   6.359  1.6364 -1.6017 -0.7783
 9667SOL     OW33847   2.425   6.454   6.302  0.0808  0.1223 -0.1506
 9667SOL    HW133848   2.511   6.495   6.305  0.6751 -1.0391 -1.0408
 9667SOL    HW233849   2.426   6.390   6.372 -0.3005  0.5531  0.2550
 9668SOL     OW33850   0.819   7.023   8.338 -0.2018 -0.3818  0.2218
 9668SOL    HW133851   0.726   7.008   8.355 -0.8916  1.7687 -1.3942
 9668SOL    HW233852   0.831   6.996   8.247  0.9504 -1.4177  0.6754
 9669SOL     OW33853   2.106   6.581   8.155  0.0854 -0.0711 -0.2888
 9669SOL    HW133854   2.127   6.557   8.065 -1.1701  2.0612 -1.1969
 9669SOL    HW233855   2.022   6.539   8.172  1.0327 -1.7221  0.4478
 9670SOL     OW33856   1.140   6.590   5.966 -0.4865  0.4963  0.1806
 9670SOL    HW133857   1.180   6.580   5.880  0.8790  1.6135  0.6757
 9670SOL    HW233858   1.061   6.536   5.962 -0.6696  0.8989 -1.9062
 9671SOL     OW33859   3.050   7.419   7.522  0.0655  0.5039  0.7661
 9671SOL    HW133860   3.024   7.511   7.532  2.4248  1.1943  0.9641
 9671SOL    HW233861   3.053   7.385   7.611 -0.5988  0.2908  0.7088
 9672SOL     OW33862   2.222   7.810   6.167 -0.4964 -0.1122 -0.6827
 9672SOL    HW133863   2.176   7.831   6.086 -0.6873  2.1909  0.0100
 9672SOL    HW233864   2.153   7.802   6.233  0.0050  2.5558  0.1912
 9673SOL     OW33865   0.451   4.874   7.500 -0.1344  0.2100  0.4035
 9673SOL    HW133866   0.429   4.887   7.592 -3.5052 -1.5408 -0.0780
 9673SOL    HW233867   0.510   4.799   7.499 -0.3113  0.0607  1.1192
 9674SOL     OW33868   2.031   5.847   5.951 -0.1086  0.0610  0.1458
 9674SOL    HW133869   1.940   5.877   5.939 -0.0671 -0.4559 -1.7324
 9674SOL    HW233870   2.069   5.910   6.011 -1.6566  0.4285  0.7796
 9675SOL     OW33871   3.626   7.607   7.305  0.2745  0.0146 -0.3103
 9675SOL    HW133872   3.718   7.598   7.281  1.0424 -2.9268  3.2854
 9675SOL    HW233873   3.626   7.667   7.380 -0.8067  0.3430 -0.5546
 9676SOL     OW33874   2.512   6.565   8.234  0.0570  0.5036  0.5517
 9676SOL    HW133875   2.476   6.647   8.200  0.8440  0.2791 -0.8953
 9676SOL    HW233876   2.480   6.498   8.173  1.8420  0.1382 -0.0253
 9677SOL     OW33877   1.414   8.116   8.550 -0.0499  0.4643  0.4996
 9677SOL    HW133878   1.371   8.037   8.519  1.1874 -1.0117  2.3832
 9677SOL    HW233879   1.504   8.109   8.518 -0.7321  2.7574 -2.0918
 9678SOL     OW33880   1.281   7.239   7.696 -0.3120  0.0703 -0.0791
 9678SOL    HW133881   1.252   7.321   7.734  0.4666 -0.1610  1.0545
 9678SOL    HW233882   1.365   7.260   7.656 -0.3603 -0.0558 -0.2460
 9679SOL     OW33883   0.861   7.419   9.023 -0.7705 -0.9014 -0.4656
 9679SOL    HW133884   0.925   7.377   8.966  1.0212  1.6399 -0.4194
 9679SOL    HW233885   0.896   7.406   9.111 -1.1495 -0.8827 -0.3122
 9680SOL     OW33886   2.615   6.980   5.556 -0.8273  0.1884  0.1494
 9680SOL    HW133887   2.597   7.071   5.536  1.1820 -0.4468 -5.2649
 9680SOL    HW233888   2.710   6.971   5.547 -0.9693 -2.4229  0.7692
 9681SOL     OW33889   2.195   6.191   8.374  0.1751 -0.0956  0.4799
 9681SOL    HW133890   2.131   6.231   8.433  0.8221  1.6121  0.0257
 9681SOL    HW233891   2.147   6.177   8.293  0.0337  0.0248  0.5414
 9682SOL     OW33892   1.953   6.312   7.611  0.4235  0.0182  0.4052
 9682SOL    HW133893   1.894   6.340   7.681 -1.4624 -0.5103 -0.9215
 9682SOL    HW233894   2.034   6.289   7.655 -0.2328  1.1511  2.2425
 9683SOL     OW33895   2.321   7.506   4.959  0.5505  0.0522  0.0392
 9683SOL    HW133896   2.236   7.476   4.927  1.3367 -1.1351 -1.0078
 9683SOL    HW233897   2.320   7.487   5.053 -0.3935  0.1778  0.0515
 9684SOL     OW33898   9.985   7.822   6.571  0.2560 -0.0167 -0.3940
 9684SOL    HW133899   9.969   7.880   6.645  1.9657  0.6653 -0.5247
 9684SOL    HW233900   9.958   7.872   6.495  0.1253 -0.0424 -0.3637
 9685SOL     OW33901   2.304   6.303   6.086  0.4985 -0.0466  0.2384
 9685SOL    HW133902   2.339   6.353   6.160  3.2016 -2.6003  0.7529
 9685SOL    HW233903   2.231   6.253   6.123  0.4594  0.3139  0.6541
 9686SOL     OW33904   0.956   6.470   7.822 -0.9570 -0.6203  0.4312
 9686SOL    HW133905   1.021   6.402   7.804 -0.3293 -0.4443  1.9272
 9686SOL    HW233906   0.917   6.489   7.737  1.4361 -0.2549 -0.6521
 9687SOL     OW33907   1.734   4.740   7.105 -0.0176 -0.7319  0.5372
 9687SOL    HW133908   1.686   4.692   7.173 -0.9112 -0.0374  0.4098
 9687SOL    HW233909   1.816   4.766   7.147 -0.6100 -0.2203  1.3860
 9688SOL     OW33910   1.823   5.214   6.469 -0.2964 -0.0159  0.7096
 9688SOL    HW133911   1.829   5.196   6.376  0.1043 -0.4876  0.8258
 9688SOL    HW233912   1.770   5.294   6.475  0.4202  0.5184  0.0325
 9689SOL     OW33913   3.588   6.123   8.255  0.5047 -0.0662 -0.2780
 9689SOL    HW133914   3.621   6.103   8.168 -0.5074 -0.2242 -0.6305
 9689SOL    HW233915   3.605   6.045   8.307 -1.1930 -0.9351 -1.0035
 9690SOL     OW33916   2.880   5.327   5.106 -0.2994 -0.1277 -0.3554
 9690SOL    HW133917   2.788   5.325   5.134 -0.9219  0.5974 -2.2835
 9690SOL    HW233918   2.897   5.238   5.074 -0.0187 -0.5510  0.9597
 9691SOL     OW33919   2.077   7.785   5.525 -0.7638  0.7159 -0.0536
 9691SOL    HW133920   2.042   7.871   5.547 -1.2665  0.3448  0.6416
 9691SOL    HW233921   2.077   7.737   5.609  2.1490  0.9507  0.1444
 9692SOL     OW33922   2.724   6.536   7.154 -0.1054 -0.4997  0.7172
 9692SOL    HW133923   2.769   6.464   7.198  0.0196 -0.3739  0.7968
 9692SOL    HW233924   2.795   6.587   7.113 -0.3040 -1.3202 -0.6910
 9693SOL     OW33925   0.284   7.215   5.403 -0.6594 -0.2057  0.0523
 9693SOL    HW133926   0.348   7.150   5.374 -0.2207  1.1225 -2.0805
 9693SOL    HW233927   0.331   7.270   5.465  0.3061  0.7494 -1.4896
 9694SOL     OW33928   2.058   5.776   6.675  0.3346 -0.3106 -0.5690
 9694SOL    HW133929   2.139   5.763   6.626  0.8321  1.0999 -0.1202
 9694SOL    HW233930   2.007   5.837   6.622  0.5326  0.5882  0.2644
 9695SOL     OW33931   2.161   5.562   6.362 -0.0590 -0.5792 -0.1680
 9695SOL    HW133932   2.232   5.498   6.355 -1.0910 -1.7580  0.0868
 9695SOL    HW233933   2.129   5.573   6.273 -0.6137 -1.2714 -0.0625
 9696SOL     OW33934   3.708   6.221   9.300  0.1024 -0.1992 -0.0111
 9696SOL    HW133935   3.749   6.283   9.240 -0.1325  1.3031  1.3250
 9696SOL    HW233936   3.617   6.250   9.305 -0.3344 -1.4686 -0.3771
 9697SOL     OW33937   2.212   7.164   6.773 -0.2865  0.1394 -0.2058
 9697SOL    HW133938   2.204   7.185   6.866 -0.8311 -1.3253  0.0920
 9697SOL    HW233939   2.246   7.075   6.771 -0.4906  0.0815 -1.4111
 9698SOL     OW33940   3.350   7.219   5.875  0.3322  0.2981  0.2665
 9698SOL    HW133941   3.337   7.313   5.887  2.4199  0.3534  2.3608
 9698SOL    HW233942   3.416   7.213   5.806 -0.5399  0.3272 -0.5819
 9699SOL     OW33943   2.701   7.481   8.157  0.4166  0.0962  0.0324
 9699SOL    HW133944   2.760   7.420   8.113  0.3342  0.9274 -1.2728
 9699SOL    HW233945   2.716   7.565   8.113 -0.8115  0.5930  0.5307
 9700SOL     OW33946   2.418   7.000   8.820 -0.0313  0.4604 -0.4546
 9700SOL    HW133947   2.485   7.059   8.854 -0.0043  0.8275 -1.1602
 9700SOL    HW233948   2.367   6.974   8.898  0.9062  0.2005  0.0748
 9701SOL     OW33949   3.110   8.051   8.709  0.4819 -0.3902 -0.2441
 9701SOL    HW133950   3.143   7.988   8.645  1.7438 -0.2822  0.2761
 9701SOL    HW233951   3.180   8.056   8.775 -1.2458 -1.3059  1.6867
 9702SOL     OW33952   2.185   7.198   8.742  0.6730  0.1443 -0.0963
 9702SOL    HW133953   2.196   7.290   8.718 -0.7500 -0.3230 -2.7342
 9702SOL    HW233954   2.273   7.161   8.730  1.1194  1.0151  0.3780
 9703SOL     OW33955   1.917   7.512   7.755 -0.0158 -0.2169 -0.1296
 9703SOL    HW133956   1.952   7.576   7.693  0.6072 -0.4494 -0.0206
 9703SOL    HW233957   1.974   7.519   7.831 -1.1474  0.4973  0.6586
 9704SOL     OW33958   2.435   5.296   7.911  0.2775  0.2652  0.2216
 9704SOL    HW133959   2.452   5.369   7.852 -1.7542  0.0804 -0.6545
 9704SOL    HW233960   2.380   5.334   7.980  0.8640 -0.0000  0.8375
 9705SOL     OW33961   2.145   6.121   6.637  0.5305 -0.3306 -0.4564
 9705SOL    HW133962   2.131   6.199   6.584  0.6006  0.6526  0.9390
 9705SOL    HW233963   2.086   6.056   6.601  1.4547 -0.0688 -2.5208
 9706SOL     OW33964   2.532   7.290   5.914  0.1923 -0.3886  0.4517
 9706SOL    HW133965   2.507   7.316   5.826 -0.2949  0.5323  0.8569
 9706SOL    HW233966   2.602   7.226   5.902 -0.2686 -0.6883 -0.6134
 9707SOL     OW33967   2.768   5.192   9.043 -0.1903 -0.3133 -0.0790
 9707SOL    HW133968   2.746   5.165   8.953  1.1651  1.6572 -1.0523
 9707SOL    HW233969   2.688   5.233   9.076  0.2228  1.7967 -1.5728
 9708SOL     OW33970   1.818   7.068   6.598  0.0432 -0.4594 -0.1260
 9708SOL    HW133971   1.850   6.987   6.638  1.0463  0.3963  0.8433
 9708SOL    HW233972   1.783   7.119   6.671 -0.6711 -0.0485 -0.7441
 9709SOL     OW33973   2.782   7.319   5.278 -0.3325  0.0748 -0.1399
 9709SOL    HW133974   2.863   7.367   5.298 -2.1070  2.1326  2.5097
 9709SOL    HW233975   2.739   7.371   5.210 -0.2710 -0.0633 -0.2851
 9710SOL     OW33976   2.234   5.962   6.387  0.5348 -0.2669 -0.7503
 9710SOL    HW133977   2.201   6.024   6.322  0.6744 -0.0730 -0.6369
 9710SOL    HW233978   2.157   5.936   6.437  0.1001 -1.8465 -2.1840
 9711SOL     OW33979   1.765   4.574   7.362 -1.0518 -0.6651 -0.6408
 9711SOL    HW133980   1.778   4.658   7.406  0.3195 -0.1571 -1.9555
 9711SOL    HW233981   1.677   4.547   7.387 -1.0259  0.5562  0.8124
 9712SOL     OW33982   1.370   6.979   6.006 -0.0480 -0.5716 -0.0895
 9712SOL    HW133983   1.311   7.053   6.024 -2.0087 -2.0472 -0.2114
 9712SOL    HW233984   1.323   6.903   6.040  1.3342 -1.9319 -1.1601
 9713SOL     OW33985   1.639   7.146   6.031 -0.0795  0.3163 -0.2051
 9713SOL    HW133986   1.558   7.134   6.081 -0.5771 -2.2806 -1.5033
 9713SOL    HW233987   1.704   7.092   6.076  0.8831  2.1485  0.6525
 9714SOL     OW33988   0.272   7.810   7.253  0.1653  0.2510  0.1505
 9714SOL    HW133989   0.365   7.820   7.234 -0.0805 -2.0433 -2.5408
 9714SOL    HW233990   0.269   7.764   7.336  1.4121  0.7195  0.4670
 9715SOL     OW33991   1.127   6.920   6.854 -0.0280 -0.0165  0.3043
 9715SOL    HW133992   1.160   7.010   6.854  2.2612 -0.7971 -2.0227
 9715SOL    HW233993   1.071   6.914   6.776 -0.4512 -0.5190  0.6413
 9716SOL     OW33994   1.986   7.554   6.248 -0.3900  0.1411  0.0439
 9716SOL    HW133995   1.978   7.647   6.271  0.8944  0.2424  0.1656
 9716SOL    HW233996   2.003   7.510   6.332 -0.9117 -0.1913 -0.0251
 9717SOL     OW33997   1.899   3.377   7.499  0.0876 -0.3295  0.1564
 9717SOL    HW133998   1.960   3.374   7.573  0.4031 -0.7318 -0.1135
 9717SOL    HW233999   1.812   3.380   7.539  0.1769 -2.3164  0.5669
 9718SOL     OW34000   2.050   5.687   5.433  0.0902  0.3173 -0.2273
 9718SOL    HW134001   2.063   5.592   5.433 -0.0565  0.3006  0.3354
 9718SOL    HW234002   2.138   5.722   5.418  0.7066  0.1726  2.8130
 9719SOL     OW34003   2.496   7.125   7.139 -0.3860 -0.3257  0.5306
 9719SOL    HW134004   2.448   7.200   7.104 -0.1766 -0.2632  0.3728
 9719SOL    HW234005   2.458   7.049   7.095 -0.5138 -0.2997  0.5973
 9720SOL     OW34006   0.886   7.014   7.734  0.1346  0.2150  0.3451
 9720SOL    HW134007   0.975   7.031   7.704  0.3932 -2.3691 -0.4428
 9720SOL    HW234008   0.893   7.015   7.830  1.1320 -0.6032  0.2834
 9721SOL     OW34009   3.895   8.318   5.475 -0.7887 -0.1928 -0.1522
 9721SOL    HW134010   3.845   8.360   5.405 -0.0693  0.3149 -0.3696
 9721SOL    HW234011   3.910   8.389   5.538 -1.0376 -0.5388  0.2960
 9722SOL     OW34012   2.145   5.115   7.359  0.0967 -0.0599  1.3951
 9722SOL    HW134013   2.062   5.070   7.372 -1.2231  1.4003 -1.5451
 9722SOL    HW234014   2.143   5.187   7.421 -2.0578  1.5249 -0.4379
 9723SOL     OW34015   1.336   5.247   0.118 -0.4759  0.2087 -0.6247
 9723SOL    HW134016   1.367   5.320   0.173 -1.0645 -0.6626  0.8960
 9723SOL    HW234017   1.255   5.218   0.160 -0.0690 -1.5542 -1.0197
 9724SOL     OW34018   2.083   7.867   3.205  0.1693 -0.7646  0.1177
 9724SOL    HW134019   2.083   7.849   3.111  3.0793 -1.6379  0.2371
 9724SOL    HW234020   2.021   7.805   3.242 -0.8798 -0.5206 -1.2164
 9725SOL     OW34021   2.735   6.827   7.963 -0.1752  0.4492 -0.0466
 9725SOL    HW134022   2.654   6.876   7.953  0.8174  2.3247  0.6858
 9725SOL    HW234023   2.766   6.849   8.051  1.1671 -0.1583 -0.3410
 9726SOL     OW34024   2.562   6.589   6.649  0.2500 -0.2344 -0.5988
 9726SOL    HW134025   2.498   6.519   6.638  0.0751 -0.3320  0.9309
 9726SOL    HW234026   2.562   6.607   6.743  0.3422  1.7718 -0.9663
 9727SOL     OW34027   3.170   7.308   7.799  0.2942 -0.0118  0.1988
 9727SOL    HW134028   3.155   7.348   7.884  1.9379 -0.0737  0.5290
 9727SOL    HW234029   3.214   7.376   7.748 -0.6550  0.0176 -0.5970
 9728SOL     OW34030   2.308   5.618   6.609 -0.1152 -0.0612  0.8341
 9728SOL    HW134031   2.249   5.592   6.538  1.0952  0.7101 -0.4771
 9728SOL    HW234032   2.396   5.604   6.574  0.5017  0.0848  2.2885
 9729SOL     OW34033   2.167   5.939   5.197 -0.1966 -0.3894 -0.0556
 9729SOL    HW134034   2.089   5.969   5.243 -0.9900 -3.3386  0.6398
 9729SOL    HW234035   2.224   5.904   5.265  1.0437  0.2179 -0.7493
 9730SOL     OW34036   2.686   7.620   5.653  0.1635 -0.3871  0.1103
 9730SOL    HW134037   2.592   7.635   5.650  0.2833  0.4076  0.3442
 9730SOL    HW234038   2.722   7.672   5.581  0.4704 -0.3004  0.3207
 9731SOL     OW34039   0.485   7.268   8.042  0.2665  0.3476 -0.0754
 9731SOL    HW134040   0.463   7.186   8.086  0.5826 -0.2389 -0.9900
 9731SOL    HW234041   0.473   7.335   8.109 -0.0188 -0.4415  0.6778
 9732SOL     OW34042   1.209   5.538   6.898 -0.3398 -0.0196  0.1422
 9732SOL    HW134043   1.247   5.452   6.879  1.0887  0.7452 -0.5552
 9732SOL    HW234044   1.236   5.557   6.988  2.5016  1.2732 -0.9027
 9733SOL     OW34045   1.784   4.627   7.740  0.3276  0.5693  0.7636
 9733SOL    HW134046   1.746   4.691   7.680  0.4831 -1.3385 -1.4555
 9733SOL    HW234047   1.878   4.635   7.727  0.2830 -1.4079 -0.9660
 9734SOL     OW34048   1.199   4.033   8.296  0.1317 -0.4817 -1.1651
 9734SOL    HW134049   1.160   3.979   8.226  1.3630 -1.7912 -0.8763
 9734SOL    HW234050   1.167   3.993   8.377  0.0830 -0.0242 -0.9591
 9735SOL     OW34051   3.293   7.452   6.963 -0.0693  0.1061  0.0968
 9735SOL    HW134052   3.264   7.407   6.884  2.9980 -3.7763  1.0492
 9735SOL    HW234053   3.367   7.506   6.933  0.4298 -0.5567  0.1357
 9736SOL     OW34054   3.136   7.642   7.814 -0.0357 -0.1042 -0.4100
 9736SOL    HW134055   3.189   7.722   7.809  0.4974 -0.4994 -1.1335
 9736SOL    HW234056   3.089   7.640   7.730  1.6065 -1.6841 -1.3365
 9737SOL     OW34057   2.506   7.026   7.829  0.2658 -0.1533 -0.3681
 9737SOL    HW134058   2.545   6.999   7.745 -1.3065 -2.7197 -0.3199
 9737SOL    HW234059   2.421   7.063   7.805 -0.0180 -0.5283  0.0596
 9738SOL     OW34060   2.905   7.812   8.351  0.1109  0.0356 -0.1053
 9738SOL    HW134061   2.961   7.889   8.363 -0.7771  0.5160  1.0734
 9738SOL    HW234062   2.844   7.838   8.281 -0.4494  0.5594  0.5743
 9739SOL     OW34063   3.096   7.372   0.071  0.0310  0.2321  0.2461
 9739SOL    HW134064   3.065   7.461   0.051  1.3362  0.7986  0.7029
 9739SOL    HW234065   3.023   7.315   0.047 -0.3337  1.3228 -1.2900
 9740SOL     OW34066   1.117   6.167   8.927  0.1284 -0.0816  0.1607
 9740SOL    HW134067   1.042   6.130   8.974 -1.0140  1.2251 -0.5845
 9740SOL    HW234068   1.164   6.217   8.993 -0.7766  0.7144  0.2225
 9741SOL     OW34069   3.830   6.405   0.402  0.0393 -0.0923 -0.4384
 9741SOL    HW134070   3.802   6.490   0.435 -1.4619 -0.0841 -1.6788
 9741SOL    HW234071   3.749   6.358   0.383  0.8526 -1.4049 -0.7520
 9742SOL     OW34072   0.757   7.446   7.386 -0.2654  0.1892 -0.0383
 9742SOL    HW134073   0.811   7.514   7.346  0.5250  0.0621  0.8029
 9742SOL    HW234074   0.681   7.493   7.420 -0.8127  0.3353 -1.4344
 9743SOL     OW34075   2.304   8.032   0.151  0.6947  0.2994  0.4475
 9743SOL    HW134076   2.259   8.031   0.235 -1.8111  2.0379 -0.8199
 9743SOL    HW234077   2.297   8.122   0.120  1.7347 -0.2706 -1.5634
 9744SOL     OW34078   1.361   4.653   8.401 -0.5495 -0.5656 -0.2411
 9744SOL    HW134079   1.266   4.638   8.395 -0.6565  0.4731 -1.1913
 9744SOL    HW234080   1.381   4.711   8.328  0.5304  0.7213  1.0663
 9745SOL     OW34081   2.878   5.946   8.712 -0.0955 -0.2734  0.5503
 9745SOL    HW134082   2.830   5.953   8.629  0.8478  0.3077  0.0412
 9745SOL    HW234083   2.963   5.987   8.693  0.4306 -0.8965  1.5674
 9746SOL     OW34084   1.823   7.359   9.445 -0.1960  0.7617 -0.3198
 9746SOL    HW134085   1.758   7.417   9.485 -0.0794  1.5230 -1.2216
 9746SOL    HW234086   1.829   7.387   9.354 -0.3684 -0.8913 -0.8638
 9747SOL     OW34087   1.735   6.190   8.353 -0.4716  0.0779 -0.7634
 9747SOL    HW134088   1.737   6.266   8.412 -0.3201  0.8424 -1.7532
 9747SOL    HW234089   1.799   6.129   8.391 -2.8196 -0.9170  1.8317
 9748SOL     OW34090   2.079   7.771   9.745  0.7468 -0.1524  0.2978
 9748SOL    HW134091   2.066   7.677   9.736 -1.1347  0.2475 -1.3738
 9748SOL    HW234092   1.999   7.803   9.787  1.4762  0.6761  1.0773
 9749SOL     OW34093   2.101   6.908   8.704  0.1138 -0.8961  0.3394
 9749SOL    HW134094   2.121   6.833   8.760 -1.1760 -0.6265  1.1702
 9749SOL    HW234095   2.066   6.870   8.624  1.3266 -1.2524 -0.0404
 9750SOL     OW34096   1.746   8.802   9.114 -0.5810  0.0563 -0.4513
 9750SOL    HW134097   1.653   8.826   9.113  0.0837  2.8801  1.0549
 9750SOL    HW234098   1.781   8.836   9.031 -0.8832 -1.0495 -1.0399
 9751SOL     OW34099   1.036   7.632   8.116  0.7159 -0.5424  0.3072
 9751SOL    HW134100   1.092   7.583   8.176 -0.7329 -1.0045  1.2771
 9751SOL    HW234101   1.076   7.719   8.112  1.3131 -0.7717  1.2370
 9752SOL     OW34102   2.840   6.079   8.170 -0.3087 -0.1323  0.4527
 9752SOL    HW134103   2.912   6.062   8.110 -0.1804  1.3369  0.1722
 9752SOL    HW234104   2.840   6.003   8.229  1.9111  0.1747  0.8970
 9753SOL     OW34105   2.094   6.998   0.338 -0.3584 -0.2089  0.1363
 9753SOL    HW134106   2.116   6.906   0.347  2.0273  0.2686 -0.3987
 9753SOL    HW234107   2.111   7.019   0.246 -1.1589  0.6953  0.1804
 9754SOL     OW34108   4.004   8.044   9.082 -0.0780 -0.5536 -0.3051
 9754SOL    HW134109   3.997   8.032   8.987 -0.8772  1.1564 -0.4844
 9754SOL    HW234110   4.090   8.084   9.095 -0.6606  0.7843 -0.4907
 9755SOL     OW34111   0.372   6.823   7.773 -0.4370 -0.2263 -0.4615
 9755SOL    HW134112   0.332   6.774   7.702 -1.0999  1.3532 -1.2094
 9755SOL    HW234113   0.332   6.786   7.853  1.5605 -3.1474 -0.7500
 9756SOL     OW34114   2.441   5.870   9.191 -0.4024  0.3677 -0.5071
 9756SOL    HW134115   2.376   5.803   9.210  0.6716 -0.4578  0.3284
 9756SOL    HW234116   2.407   5.949   9.232 -0.5294 -0.2360  0.5666
 9757SOL     OW34117   2.805   6.750   0.060  0.5310  0.3580  0.2805
 9757SOL    HW134118   2.724   6.796   0.079 -0.3023 -1.5946  1.6056
 9757SOL    HW234119   2.872   6.795   0.111 -0.4466 -0.4789  2.3424
 9758SOL     OW34120   2.674   7.546   8.918  0.6716 -0.4219  0.4867
 9758SOL    HW134121   2.658   7.574   9.008 -1.9244 -1.9861  0.5267
 9758SOL    HW234122   2.706   7.456   8.926  1.5607 -0.1685 -0.1123
 9759SOL     OW34123   0.678   8.025   7.080 -0.2137 -0.0280 -1.0795
 9759SOL    HW134124   0.617   7.972   7.131 -0.2113  1.0290  0.0493
 9759SOL    HW234125   0.625   8.099   7.049  0.4512  0.8244 -0.2069
 9760SOL     OW34126   3.572   6.644   0.034 -0.2479 -0.3193  0.0932
 9760SOL    HW134127   3.563   6.699  -0.043  0.6149  0.0578  0.2633
 9760SOL    HW234128   3.481   6.625   0.060 -0.5640  1.1229  0.1089
 9761SOL     OW34129   1.748   4.031   9.421  0.0291 -0.0628  0.3957
 9761SOL    HW134130   1.741   3.942   9.386  0.2845 -1.3737  3.5183
 9761SOL    HW234131   1.684   4.081   9.371 -2.2760 -2.6751  0.6110
 9762SOL     OW34132   3.931   8.723   7.131  0.4142 -0.1792  0.1634
 9762SOL    HW134133   3.973   8.738   7.047  2.1429 -1.1859  0.8304
 9762SOL    HW234134   3.930   8.809   7.173 -0.6279  0.3667 -0.9458
 9763SOL     OW34135   3.504   6.007   8.673 -0.0427  0.1088 -0.0367
 9763SOL    HW134136   3.428   6.034   8.622 -0.1505 -1.8121 -0.9135
 9763SOL    HW234137   3.468   5.972   8.755  0.0838  2.1629  0.9475
 9764SOL     OW34138   2.462   8.018   9.861 -0.0849  0.2617 -0.8043
 9764SOL    HW134139   2.422   8.011   9.948 -0.4944 -0.0635 -1.0158
 9764SOL    HW234140   2.508   8.102   9.862 -0.5508  0.5154 -0.4611
 9765SOL     OW34141   3.801   7.923   8.024  0.0577 -0.0001  0.0064
 9765SOL    HW134142   3.762   7.961   7.946 -0.4795 -1.2646 -0.3596
 9765SOL    HW234143   3.764   7.974   8.097  0.2438  0.9108 -0.5300
 9766SOL     OW34144   3.012   8.340   8.439 -0.8322 -0.1136  0.3718
 9766SOL    HW134145   2.985   8.367   8.351 -0.6979 -0.2992  0.2742
 9766SOL    HW234146   2.977   8.408   8.497  1.0955  1.2837 -0.0560
 9767SOL     OW34147   4.188   8.560   8.840 -0.4330  0.0527 -0.1830
 9767SOL    HW134148   4.119   8.561   8.906  0.0493 -0.0445  0.3291
 9767SOL    HW234149   4.213   8.652   8.829  0.1572 -0.0210  0.4891
 9768SOL     OW34150   1.692   4.127   7.871  0.0172 -0.1210 -0.7767
 9768SOL    HW134151   1.676   4.044   7.827  1.8049 -0.9383  0.0601
 9768SOL    HW234152   1.614   4.142   7.924  0.1145 -1.8021 -0.1250
 9769SOL     OW34153   3.578   7.118   7.821 -0.2972  0.0681  0.1123
 9769SOL    HW134154   3.657   7.140   7.772  0.1743  0.4491  1.0505
 9769SOL    HW234155   3.544   7.202   7.851 -1.0131 -0.1018 -0.2199
 9770SOL     OW34156   1.906   6.866   0.139  0.3506 -0.2126  0.0179
 9770SOL    HW134157   1.909   6.919   0.059  1.4659  0.2017  0.3143
 9770SOL    HW234158   1.994   6.827   0.145 -0.2522 -1.5975  0.1441
 9771SOL     OW34159   5.397   6.248   9.399 -0.4351 -0.1750  0.4116
 9771SOL    HW134160   5.304   6.259   9.422 -0.3909 -0.1167  0.5660
 9771SOL    HW234161   5.412   6.154   9.406 -0.3616 -0.1306  0.8587
 9772SOL     OW34162   3.239   7.414   8.494 -0.0283 -0.6573  0.0953
 9772SOL    HW134163   3.204   7.473   8.427 -1.1564 -1.8651 -0.4059
 9772SOL    HW234164   3.322   7.382   8.457 -1.1358 -2.1027 -1.2095
 9773SOL     OW34165   4.551   6.815   9.093  0.0658  0.2274  0.3405
 9773SOL    HW134166   4.568   6.731   9.136  1.8452 -0.4587 -1.6717
 9773SOL    HW234167   4.467   6.803   9.050  1.2023 -1.1879 -1.5258
 9774SOL     OW34168   3.282   6.761   8.915 -0.2022  0.0989  0.0207
 9774SOL    HW134169   3.229   6.711   8.853  0.0477 -0.5183  0.2954
 9774SOL    HW234170   3.224   6.829   8.947  0.0540  1.2507 -1.8731
 9775SOL     OW34171   2.084   6.235   8.962  0.1078  0.4311  0.4307
 9775SOL    HW134172   2.064   6.198   8.876  0.5845  0.8767  0.1183
 9775SOL    HW234173   2.087   6.160   9.021 -0.5462  0.1577  0.1155
 9776SOL     OW34174   2.832   8.492   9.377  0.2017 -0.5355  0.1478
 9776SOL    HW134175   2.869   8.535   9.454 -0.5660  0.3949  0.0098
 9776SOL    HW234176   2.740   8.476   9.401 -0.2285  0.3832 -0.8176
 9777SOL     OW34177   2.440   6.068   6.712 -0.1408  0.1878 -0.3218
 9777SOL    HW134178   2.469   6.158   6.700 -1.0747  0.5701  0.2378
 9777SOL    HW234179   2.363   6.060   6.656  0.6470 -0.6259 -1.3037
 9778SOL     OW34180   3.717   5.210   8.878 -0.1397 -0.2095  0.0945
 9778SOL    HW134181   3.757   5.190   8.962 -0.2320  0.6815  0.3569
 9778SOL    HW234182   3.682   5.126   8.847 -0.6280 -0.4336  1.2161
 9779SOL     OW34183   1.867   7.017   9.844 -0.9199 -0.1043  0.2603
 9779SOL    HW134184   1.869   7.095   9.787 -1.2300 -1.3075 -1.4415
 9779SOL    HW234185   1.801   7.038   9.910  0.1159  1.7051  0.7507
 9780SOL     OW34186   3.281   3.166   8.317 -0.2508 -0.2547  0.4514
 9780SOL    HW134187   3.194   3.205   8.305  0.3951  0.8324 -0.7848
 9780SOL    HW234188   3.279   3.086   8.265  0.2036  0.8884 -1.3590
 9781SOL     OW34189   4.204   7.508   9.069 -0.0334 -0.4281 -0.5468
 9781SOL    HW134190   4.218   7.417   9.042 -1.5382 -1.0560  0.7591
 9781SOL    HW234191   4.140   7.503   9.139 -1.2208  1.7748 -1.4168
 9782SOL     OW34192   1.473   9.100   7.876  0.6913 -0.0861 -0.1880
 9782SOL    HW134193   1.479   9.029   7.939 -0.3561 -0.1565 -0.1571
 9782SOL    HW234194   1.563   9.113   7.846  1.0110 -0.8749  0.4035
 9783SOL     OW34195   4.529   5.532   8.957  0.0200  0.6795 -0.0993
 9783SOL    HW134196   4.513   5.584   9.036 -1.6751  0.8009 -0.5023
 9783SOL    HW234197   4.558   5.595   8.891 -1.5778  1.0692 -0.4515
 9784SOL     OW34198   2.901   7.775   9.606 -0.1756  0.0960  0.5681
 9784SOL    HW134199   2.994   7.792   9.622 -0.1678  1.1401 -0.5398
 9784SOL    HW234200   2.856   7.839   9.661 -0.2246  0.2893  0.3025
 9785SOL     OW34201   0.670   7.366   8.413  0.3401 -0.2701 -0.3667
 9785SOL    HW134202   0.686   7.441   8.470  0.5706 -1.7522  1.5721
 9785SOL    HW234203   0.754   7.321   8.408 -0.0554 -0.9956 -0.6258
 9786SOL     OW34204   3.444   6.270   9.403  0.2874  0.3109 -0.2953
 9786SOL    HW134205   3.465   6.359   9.431 -1.5500  1.5140 -2.5424
 9786SOL    HW234206   3.368   6.245   9.456 -0.3860  0.8377 -1.0026
 9787SOL     OW34207   2.162   7.021   0.680 -0.1514 -0.0535 -0.4120
 9787SOL    HW134208   2.118   6.986   0.602  0.7818  1.2114 -1.5327
 9787SOL    HW234209   2.158   7.116   0.670  1.3772  0.1110  0.2811
 9788SOL     OW34210   4.012   6.301   8.686 -0.1069 -0.7310 -0.5617
 9788SOL    HW134211   3.932   6.259   8.655 -1.2542  1.9241 -1.3223
 9788SOL    HW234212   4.079   6.275   8.624 -0.8074 -1.4106 -1.0359
 9789SOL     OW34213   2.509   9.309   0.336 -0.6753  0.3948  0.4292
 9789SOL    HW134214   2.474   9.327   0.423  0.0600  0.7957  0.6467
 9789SOL    HW234215   2.576   9.242   0.350 -0.0730  0.9597  0.2717
 9790SOL     OW34216   3.747   5.327   8.360 -0.6660 -0.4185 -0.7448
 9790SOL    HW134217   3.804   5.252   8.377 -0.8055 -0.3426  0.0895
 9790SOL    HW234218   3.722   5.359   8.447 -0.7569  0.4819 -1.0917
 9791SOL     OW34219   0.863   6.616   8.768  0.5826 -0.1579 -0.2718
 9791SOL    HW134220   0.927   6.669   8.720  1.7242 -0.4800  0.8525
 9791SOL    HW234221   0.888   6.627   8.860 -1.4058  0.2458  0.2342
 9792SOL     OW34222   2.882   6.885   8.198  0.7263 -0.2478  0.4926
 9792SOL    HW134223   2.827   6.942   8.252  2.0308  0.2226  1.3548
 9792SOL    HW234224   2.961   6.872   8.251 -0.2580 -4.3327  1.1408
 9793SOL     OW34225   2.161   7.585   9.523  0.6037  0.3872  0.0849
 9793SOL    HW134226   2.104   7.657   9.553 -0.2129  0.0483 -0.6447
 9793SOL    HW234227   2.187   7.610   9.435 -0.8505 -0.8870 -0.7291
 9794SOL     OW34228   2.479   8.527   8.902  0.0021  0.2658  0.6730
 9794SOL    HW134229   2.402   8.476   8.927  0.1429 -0.1888  0.1846
 9794SOL    HW234230   2.459   8.559   8.814  0.1989  0.4867  0.7078
 9795SOL     OW34231   3.891   6.978   8.747  0.0400  0.2653 -0.0274
 9795SOL    HW134232   3.839   7.037   8.693  1.1031  0.9080 -0.3623
 9795SOL    HW234233   3.860   6.995   8.836 -0.8332  0.1139 -0.2983
 9796SOL     OW34234   3.084   5.220   8.803 -0.1654  0.3389 -0.0165
 9796SOL    HW134235   3.054   5.250   8.718 -0.3257  1.7778  0.5450
 9796SOL    HW234236   3.052   5.286   8.865  2.2101  0.7025  0.8497
 9797SOL     OW34237   1.841   5.239   7.202 -0.1714  0.0787 -0.4715
 9797SOL    HW134238   1.806   5.321   7.237  0.6857  0.7871 -1.2402
 9797SOL    HW234239   1.874   5.193   7.279 -2.7961 -0.6292  0.2719
 9798SOL     OW34240   1.822   6.527   8.817  0.0865  0.2838  0.2604
 9798SOL    HW134241   1.778   6.589   8.875 -2.7401 -0.7873 -0.6135
 9798SOL    HW234242   1.773   6.445   8.828  2.2316 -1.1168 -0.3918
 9799SOL     OW34243   0.262   8.335   8.764 -0.0031 -0.0554 -0.9245
 9799SOL    HW134244   0.293   8.379   8.843  0.6285 -1.2168 -0.5198
 9799SOL    HW234245   0.320   8.365   8.694  1.1497 -1.1415 -0.4336
 9800SOL     OW34246   2.441   6.607   0.197 -1.0262  0.2749  0.2673
 9800SOL    HW134247   2.415   6.539   0.259  0.7597  0.0824  0.8208
 9800SOL    HW234248   2.502   6.563   0.138 -0.5350  1.1649  0.1097
 9801SOL     OW34249   3.429   7.430   7.392 -0.3680  0.1863 -0.0078
 9801SOL    HW134250   3.491   7.500   7.370  0.3553 -0.5176 -0.2338
 9801SOL    HW234251   3.361   7.437   7.325 -0.3335  0.7154  0.0083
 9802SOL     OW34252   2.465   4.359   8.209 -0.5452  0.1502  0.4724
 9802SOL    HW134253   2.456   4.287   8.271  1.2213  0.9310  1.6703
 9802SOL    HW234254   2.558   4.363   8.190 -1.0326  0.0663 -2.0966
 9803SOL     OW34255   1.493   5.350   7.507 -0.5389 -0.4357 -0.2301
 9803SOL    HW134256   1.429   5.325   7.440 -0.2706  0.6447 -0.9152
 9803SOL    HW234257   1.465   5.437   7.535  0.8520  0.2199 -0.8312
 9804SOL     OW34258   3.060   6.902   7.283  0.7938  0.0142 -0.0585
 9804SOL    HW134259   3.013   6.971   7.329  1.9801  2.2027 -1.9741
 9804SOL    HW234260   3.148   6.938   7.271  1.1650 -1.4528 -1.9160
 9805SOL     OW34261   4.019   3.714   9.493 -0.0778  0.2763 -0.6040
 9805SOL    HW134262   3.998   3.622   9.506  0.4599  0.2948  0.3822
 9805SOL    HW234263   3.941   3.750   9.451 -0.6986 -0.3943 -0.0414
 9806SOL     OW34264   1.014   4.423   7.258  0.1085 -0.6953  0.0635
 9806SOL    HW134265   1.109   4.428   7.252  0.0381  1.1562  0.1361
 9806SOL    HW234266   0.983   4.500   7.211 -1.2651 -0.1018  1.8722
 9807SOL     OW34267   3.840   5.171   9.182 -0.0320 -0.1053  0.0613
 9807SOL    HW134268   3.785   5.157   9.259 -0.1972  0.1934 -0.0015
 9807SOL    HW234269   3.923   5.201   9.218  0.2103 -0.8979  0.1766
 9808SOL     OW34270   2.775   7.322   8.485  0.0266  0.9322 -0.1141
 9808SOL    HW134271   2.814   7.248   8.439 -0.9166  1.1398 -1.2824
 9808SOL    HW234272   2.849   7.369   8.522  0.9128  1.3742 -2.3767
 9809SOL     OW34273   1.881   3.749   8.629  0.0045 -0.5699 -0.1540
 9809SOL    HW134274   1.913   3.685   8.692 -0.3661 -0.4277  0.1800
 9809SOL    HW234275   1.827   3.809   8.681 -0.6828 -0.7228 -0.6839
 9810SOL     OW34276   3.220   7.297   9.062  0.0046 -0.2223 -0.5662
 9810SOL    HW134277   3.182   7.228   9.116 -0.6553  1.0819  0.6783
 9810SOL    HW234278   3.293   7.332   9.114 -0.3560  0.7481 -0.6956
 9811SOL     OW34279   2.397   7.646   8.486 -0.0655 -0.0519 -0.3879
 9811SOL    HW134280   2.418   7.590   8.411 -1.1955 -0.3082 -0.5231
 9811SOL    HW234281   2.319   7.695   8.458  0.9040  1.5752 -0.2611
 9812SOL     OW34282   1.577   8.393   9.245  0.0582  0.7192 -0.2022
 9812SOL    HW134283   1.561   8.397   9.151  0.9741 -2.9043 -0.6024
 9812SOL    HW234284   1.617   8.477   9.267 -1.9077  2.3763 -2.6401
 9813SOL     OW34285   1.185   5.783   7.789  0.4068 -0.4427 -0.1785
 9813SOL    HW134286   1.239   5.745   7.720  0.6748 -0.6972  0.1707
 9813SOL    HW234287   1.204   5.876   7.786 -0.0535 -0.3664 -0.8633
 9814SOL     OW34288   4.412   4.221   8.952  0.3171 -0.4482  0.2898
 9814SOL    HW134289   4.405   4.266   8.867  0.8026 -0.6196  0.1583
 9814SOL    HW234290   4.480   4.155   8.939 -0.8123 -1.6326  0.3103
 9815SOL     OW34291   3.160   3.778   9.382 -0.4843  0.3063 -0.6659
 9815SOL    HW134292   3.236   3.730   9.414 -0.9866  0.6221  1.1058
 9815SOL    HW234293   3.087   3.717   9.391 -0.3587 -0.2374 -3.0172
 9816SOL     OW34294   3.271   6.469   8.423  0.0133  0.1161 -0.7703
 9816SOL    HW134295   3.178   6.448   8.420  0.0767 -0.4838  1.2050
 9816SOL    HW234296   3.274   6.559   8.454  0.1765 -0.7880  1.9330
 9817SOL     OW34297   1.529   7.487   8.625 -0.2690  0.3601 -0.4573
 9817SOL    HW134298   1.456   7.488   8.687 -1.5353  0.5844 -1.9237
 9817SOL    HW234299   1.559   7.578   8.622 -0.6747  0.4807 -0.7393
 9818SOL     OW34300   2.095   7.338   9.295  0.1607  0.2178 -0.1110
 9818SOL    HW134301   2.141   7.420   9.309 -0.5936  0.1762  3.0154
 9818SOL    HW234302   2.003   7.362   9.291  0.1598 -0.0883 -2.9822
 9819SOL     OW34303   1.646   6.867   7.489  0.2943  0.1387  0.3813
 9819SOL    HW134304   1.557   6.840   7.513  1.3815 -1.7358  2.4761
 9819SOL    HW234305   1.653   6.847   7.396 -0.7955 -1.6869  0.6714
 9820SOL     OW34306   1.814   6.550   8.188  0.4800  0.1399 -0.4971
 9820SOL    HW134307   1.744   6.556   8.123  0.5363  0.4983 -0.5285
 9820SOL    HW234308   1.769   6.530   8.270  0.6921 -3.5815 -1.2232
 9821SOL     OW34309   2.390   5.666   8.022 -0.6693  0.0916 -0.5082
 9821SOL    HW134310   2.370   5.658   8.115  0.6731 -0.1825 -0.2295
 9821SOL    HW234311   2.475   5.712   8.019  0.8459 -2.6484 -1.4625
 9822SOL     OW34312   2.987   6.429   8.417 -0.3779  0.3288  0.5538
 9822SOL    HW134313   2.946   6.413   8.503 -0.4865 -0.9355  0.2646
 9822SOL    HW234314   2.913   6.450   8.360 -0.4355 -0.1520  0.4544
 9823SOL     OW34315   3.713   8.105   8.256  0.2739 -0.0264  0.1633
 9823SOL    HW134316   3.774   8.178   8.263 -0.2952  0.3233  1.5501
 9823SOL    HW234317   3.628   8.146   8.237 -0.4826 -0.1298  3.0991
 9824SOL     OW34318   3.157   7.841   9.113 -0.3430  0.0267 -0.8238
 9824SOL    HW134319   3.089   7.907   9.100 -2.4174 -1.3614  2.4146
 9824SOL    HW234320   3.149   7.816   9.204  1.3632 -3.7082 -1.6089
 9825SOL     OW34321   4.339   7.650   9.572 -0.0888 -0.0447  0.3367
 9825SOL    HW134322   4.246   7.658   9.548 -0.9258 -2.8464  2.3497
 9825SOL    HW234323   4.341   7.677   9.664  0.3019 -3.8177  1.5230
 9826SOL     OW34324   3.236   8.723   7.919  0.1569  0.0382  0.7867
 9826SOL    HW134325   3.252   8.816   7.930  0.0622  0.4361 -2.0428
 9826SOL    HW234326   3.230   8.710   7.824 -1.2873 -2.5925  1.1591
 9827SOL     OW34327   3.333   6.495   0.069 -0.1604 -0.2540  0.2503
 9827SOL    HW134328   3.299   6.470  -0.017  1.4631  1.9349 -1.0802
 9827SOL    HW234329   3.265   6.466   0.131 -3.0983  1.3443 -2.0619
 9828SOL     OW34330   2.590   8.805   9.306  0.0840  0.4645 -0.1102
 9828SOL    HW134331   2.589   8.749   9.229  0.2745  1.6166 -0.9707
 9828SOL    HW234332   2.633   8.886   9.277 -2.6542  2.1611  0.3273
 9829SOL     OW34333   2.819   7.065   9.148  0.1996 -0.4038  0.2979
 9829SOL    HW134334   2.904   7.025   9.128  1.6993  2.8860 -0.3123
 9829SOL    HW234335   2.829   7.098   9.237  0.0875  1.2266 -0.2779
 9830SOL     OW34336   2.800   5.922   8.393 -0.7301  0.6906  0.1153
 9830SOL    HW134337   2.712   5.903   8.426 -0.8822  0.1048 -0.6022
 9830SOL    HW234338   2.834   5.836   8.366 -0.1295  0.9813 -0.0544
 9831SOL     OW34339   1.906   4.132   9.054 -0.0679  0.4936 -0.0995
 9831SOL    HW134340   1.953   4.056   9.020  1.5245  2.0693 -1.5003
 9831SOL    HW234341   1.820   4.127   9.012  0.8099  0.6975 -1.9996
 9832SOL     OW34342   1.428   8.119   8.049 -0.3597 -0.0934 -0.3564
 9832SOL    HW134343   1.444   8.193   8.107 -0.7305 -0.8544  0.7475
 9832SOL    HW234344   1.429   8.043   8.107 -0.0023 -0.9514 -1.4660
 9833SOL     OW34345   2.763   6.338   7.901  0.6164  0.2342 -0.2191
 9833SOL    HW134346   2.682   6.334   7.850  0.2878 -1.3571  0.4044
 9833SOL    HW234347   2.769   6.430   7.928  0.0520  0.7854 -1.9099
 9834SOL     OW34348   2.084   7.296   6.274 -0.5357 -0.9368  0.2639
 9834SOL    HW134349   2.040   7.337   6.199 -1.2872 -2.5775 -0.2096
 9834SOL    HW234350   2.139   7.228   6.235  1.4366  0.2290  0.9654
 9835SOL     OW34351   4.093   7.844   8.750 -0.0353  0.1305  0.8984
 9835SOL    HW134352   4.085   7.788   8.673  0.6008 -2.3565  2.5985
 9835SOL    HW234353   4.140   7.921   8.718  1.1281 -1.3102 -0.9780
 9836SOL     OW34354   2.153   7.011   8.420 -0.0828  0.2733 -0.3645
 9836SOL    HW134355   2.137   6.930   8.372  0.2935 -0.0505  0.0593
 9836SOL    HW234356   2.170   6.984   8.510 -1.7556  0.9488  0.1679
 9837SOL     OW34357   1.702   9.085   8.046 -0.1146  0.5485  0.2896
 9837SOL    HW134358   1.768   9.090   7.977  1.4760  1.9385  1.8625
 9837SOL    HW234359   1.723   9.005   8.094 -1.3192 -0.5069 -0.8795
 9838SOL     OW34360   2.660   7.095   0.066  0.5803 -0.1375 -0.0467
 9838SOL    HW134361   2.634   7.010   0.100  0.8544 -0.0065  0.4934
 9838SOL    HW234362   2.578   7.139   0.044  0.4095 -0.2477  0.3762
 9839SOL     OW34363   1.568   5.851   9.198 -0.0008  0.0803 -0.4375
 9839SOL    HW134364   1.551   5.783   9.133 -1.5683 -0.3010  0.3628
 9839SOL    HW234365   1.489   5.905   9.199 -1.6219 -2.1132  3.7972
 9840SOL     OW34366   3.174   6.293   9.575 -0.2985 -0.2034 -0.7373
 9840SOL    HW134367   3.176   6.360   9.644  0.5165  0.4950 -1.4226
 9840SOL    HW234368   3.186   6.210   9.622  0.9590  0.3254 -0.1017
 9841SOL     OW34369   3.091   7.115   9.214  0.0621 -0.2326  0.1624
 9841SOL    HW134370   3.034   7.174   9.264 -0.8244 -1.5960  0.8069
 9841SOL    HW234371   3.141   7.067   9.280  1.0968  0.1129 -0.3659
 9842SOL     OW34372   3.489   8.149   9.569 -0.3499 -0.2811 -0.0820
 9842SOL    HW134373   3.405   8.186   9.542 -0.0637  0.2445 -0.2553
 9842SOL    HW234374   3.472   8.110   9.655 -1.1790 -1.6459 -0.8511
 9843SOL     OW34375   1.955   7.497   7.460 -0.1029  0.0705 -0.1799
 9843SOL    HW134376   1.866   7.491   7.495  0.1718 -1.2339  0.3430
 9843SOL    HW234377   1.984   7.585   7.481 -1.2194  0.4427 -0.2091
 9844SOL     OW34378   1.643   6.465   8.441  0.1864 -0.2333  0.0174
 9844SOL    HW134379   1.658   6.533   8.506  1.9670 -1.7417  1.2285
 9844SOL    HW234380   1.547   6.461   8.433  0.0486  2.3579 -0.0790
 9845SOL     OW34381   9.501   5.544   8.058 -0.3025  0.0497 -0.3919
 9845SOL    HW134382   9.591   5.536   8.029 -0.4867  0.8633 -1.1895
 9845SOL    HW234383   9.468   5.454   8.059  0.6402 -0.2910  0.3316
 9846SOL     OW34384   0.796   5.981   7.757 -0.5702  0.5244 -0.5344
 9846SOL    HW134385   0.868   5.989   7.694 -1.9181  1.8577 -1.9664
 9846SOL    HW234386   0.827   5.918   7.822  0.7299 -1.1952 -2.7434
 9847SOL     OW34387   2.490   8.690   9.520 -0.3471  0.6295 -0.0577
 9847SOL    HW134388   2.516   8.726   9.435 -0.9010  0.4828 -0.2933
 9847SOL    HW234389   2.489   8.765   9.579  3.4529  0.1817  0.6474
 9848SOL     OW34390   2.412   6.951   8.092  0.0486 -0.0506 -0.0471
 9848SOL    HW134391   2.444   6.987   8.010  0.2309 -0.4548 -0.1555
 9848SOL    HW234392   2.398   7.027   8.149  0.9738  0.1366 -0.0746
 9849SOL     OW34393   4.106   5.292   8.910 -0.2181  0.5611  0.1073
 9849SOL    HW134394   4.060   5.351   8.969  0.6475  1.1056  0.2525
 9849SOL    HW234395   4.157   5.350   8.853  1.2816 -0.0725  0.7868
 9850SOL     OW34396   1.423   7.157   8.748  0.0688 -0.4266  0.4190
 9850SOL    HW134397   1.425   7.083   8.808 -1.9346 -1.7203 -1.0279
 9850SOL    HW234398   1.375   7.225   8.795 -1.0189 -1.2473  0.5027
 9851SOL     OW34399   3.172   7.357   9.795 -0.4649  0.2565  0.6843
 9851SOL    HW134400   3.186   7.352   9.889 -0.8893  0.6414  0.7733
 9851SOL    HW234401   3.257   7.335   9.757 -0.1193  0.7167  1.1689
 9852SOL     OW34402   2.514   5.379   9.949  0.7363 -0.1371 -0.6529
 9852SOL    HW134403   2.437   5.434   9.958  1.2909  0.4056  0.8916
 9852SOL    HW234404   2.500   5.307  10.010  1.0463 -0.5063 -1.0098
 9853SOL     OW34405   2.312   8.029   8.661 -0.0344  0.1736  0.3347
 9853SOL    HW134406   2.372   8.103   8.667  1.9480 -1.1758 -1.7880
 9853SOL    HW234407   2.368   7.954   8.641 -2.1929 -1.5715  0.5805
 9854SOL     OW34408   4.318   6.671   8.444  0.1793 -0.7727 -0.1551
 9854SOL    HW134409   4.242   6.651   8.498  0.1277  0.2862  0.1733
 9854SOL    HW234410   4.384   6.704   8.506 -0.1310  1.1468 -0.7946
 9855SOL     OW34411   4.958   6.018   9.390 -0.6185 -0.1504  0.2146
 9855SOL    HW134412   4.869   5.985   9.376 -0.6820  0.1458 -0.0583
 9855SOL    HW234413   4.991   5.965   9.463 -1.3116  0.3021  0.8680
 9856SOL     OW34414   3.360   6.709   8.055 -0.2071 -0.1992  0.0452
 9856SOL    HW134415   3.311   6.697   7.974 -0.1277 -2.2249  0.2677
 9856SOL    HW234416   3.309   6.662   8.121  0.4974  0.1763  0.8742
 9857SOL     OW34417   2.177   8.932   9.292  0.3498 -0.1297 -0.1227
 9857SOL    HW134418   2.085   8.921   9.316  0.6297 -0.8927  0.6499
 9857SOL    HW234419   2.224   8.928   9.376  0.8147  3.7295 -0.1046
 9858SOL     OW34420   0.137   5.843   8.727 -0.3782 -0.2860  0.1134
 9858SOL    HW134421   0.125   5.752   8.752  1.4545  0.3597  3.5771
 9858SOL    HW234422   0.227   5.849   8.697  0.2790  0.8306  2.2027
 9859SOL     OW34423   3.266   3.273   9.260  0.5655  0.2849 -0.1076
 9859SOL    HW134424   3.239   3.181   9.249 -1.1418  0.5759  1.3602
 9859SOL    HW234425   3.275   3.306   9.171 -0.2036 -0.9376 -0.6543
 9860SOL     OW34426   2.613   5.395   9.702 -0.2360 -0.1809  0.0384
 9860SOL    HW134427   2.564   5.397   9.784 -1.5443  1.9520 -0.7479
 9860SOL    HW234428   2.546   5.387   9.634  0.7916 -1.2937 -0.8648
 9861SOL     OW34429   2.224   5.979   7.314  0.3830  0.7430  0.3494
 9861SOL    HW134430   2.270   5.985   7.230  2.0924 -1.5894  1.0582
 9861SOL    HW234431   2.152   6.042   7.307 -0.0342 -0.0535 -3.1768
 9862SOL     OW34432   2.487   8.249   8.640  0.0370 -0.3019  0.0550
 9862SOL    HW134433   2.551   8.216   8.577  0.9543  0.7884  0.3946
 9862SOL    HW234434   2.452   8.328   8.600  0.9559  0.6486  1.1025
 9863SOL     OW34435   2.415   8.924   8.884  0.8122 -0.1026  0.0281
 9863SOL    HW134436   2.350   8.994   8.891  0.0657 -0.8933  1.3072
 9863SOL    HW234437   2.494   8.967   8.851  0.2453  1.2683  0.4493
 9864SOL     OW34438   1.990   6.361   8.512  0.2051  0.1888 -0.0898
 9864SOL    HW134439   2.033   6.446   8.502 -1.4136  1.2160  1.3952
 9864SOL    HW234440   1.945   6.366   8.596 -1.7986 -1.2840 -1.0024
 9865SOL     OW34441   1.957   7.574   8.364  0.2973 -0.1020  0.5242
 9865SOL    HW134442   1.954   7.532   8.450  0.3683 -0.5596  0.3071
 9865SOL    HW234443   1.927   7.663   8.379  0.4807 -0.1295  1.0558
 9866SOL     OW34444   1.442   7.082   8.326 -0.4475 -0.0442  0.6260
 9866SOL    HW134445   1.527   7.046   8.351 -0.6251 -0.5344  0.5338
 9866SOL    HW234446   1.392   7.007   8.295 -0.5568  0.4059 -0.3168
 9867SOL     OW34447   3.223   7.779   9.387  0.6021  1.1700  0.0161
 9867SOL    HW134448   3.224   7.697   9.437  1.0928  0.3955 -1.2243
 9867SOL    HW234449   3.312   7.813   9.396  0.4659  1.4483  0.3283
 9868SOL     OW34450   1.503   7.440   9.132 -0.2635 -0.0383  0.4744
 9868SOL    HW134451   1.415   7.407   9.110 -0.6484  0.8638  0.6415
 9868SOL    HW234452   1.500   7.532   9.109  1.5995 -0.6360 -2.2825
 9869SOL     OW34453   3.714   4.610   8.896  0.1218 -0.6568 -0.3618
 9869SOL    HW134454   3.666   4.627   8.815 -0.5832 -1.3009 -0.0842
 9869SOL    HW234455   3.661   4.650   8.965  1.8058  1.8204 -0.4265
 9870SOL     OW34456   2.397   7.726   9.177 -0.3510 -1.1409  0.5831
 9870SOL    HW134457   2.416   7.678   9.096  0.2046 -1.0193  0.6373
 9870SOL    HW234458   2.439   7.811   9.164  0.1605 -1.2952  1.2003
 9871SOL     OW34459   2.324   5.554   9.141 -0.3246 -0.3445 -0.4296
 9871SOL    HW134460   2.313   5.605   9.221 -0.7217 -1.8748  0.5229
 9871SOL    HW234461   2.248   5.495   9.139 -0.1619 -0.5443 -1.7781
 9872SOL     OW34462   2.622   7.761   0.263 -0.1503 -0.0641 -0.1236
 9872SOL    HW134463   2.578   7.763   0.348 -0.4497 -1.6572 -0.2369
 9872SOL    HW234464   2.628   7.853   0.237 -2.6125  0.2476  0.3174
 9873SOL     OW34465   1.589   5.326   8.556  0.5109  0.2160  0.1876
 9873SOL    HW134466   1.635   5.243   8.570 -1.0121 -0.4720  1.2054
 9873SOL    HW234467   1.496   5.304   8.562  0.0967  2.2242  1.7604
 9874SOL     OW34468   2.197   6.222   9.663 -0.2638  0.3583 -0.3246
 9874SOL    HW134469   2.144   6.181   9.595 -0.7030  0.0546  0.2032
 9874SOL    HW234470   2.149   6.207   9.744  0.6052  0.1110  0.1524
 9875SOL     OW34471   1.927   4.263   9.298 -0.3844  0.6245  0.1044
 9875SOL    HW134472   1.948   4.188   9.353  1.5067  1.8473  1.0855
 9875SOL    HW234473   1.889   4.224   9.219  0.0529 -1.3278  0.8144
 9876SOL     OW34474   1.730   7.496   8.096  0.0232 -0.5429 -0.5268
 9876SOL    HW134475   1.689   7.476   8.179  1.7000  1.1242  0.7593
 9876SOL    HW234476   1.818   7.458   8.103  1.3047  2.3470 -0.2063
 9877SOL     OW34477   2.508   7.839   8.636 -0.3959 -0.0790 -0.2255
 9877SOL    HW134478   2.598   7.821   8.664 -1.3184 -0.1778  2.9100
 9877SOL    HW234479   2.473   7.753   8.611 -0.1411 -0.3293  0.2579
 9878SOL     OW34480   2.570   8.480   0.410  0.0793 -0.2633 -0.1929
 9878SOL    HW134481   2.520   8.422   0.469  0.5458 -0.7546 -0.2759
 9878SOL    HW234482   2.539   8.568   0.432 -3.2899 -0.7653 -2.5600
 9879SOL     OW34483   0.398   6.235   7.914 -0.0086 -0.7270 -0.3144
 9879SOL    HW134484   0.402   6.326   7.944 -0.5987 -0.4625 -1.0377
 9879SOL    HW234485   0.330   6.195   7.969 -0.8079 -0.3434 -1.0108
 9880SOL     OW34486   1.849   7.539   1.417  0.6225  0.5235 -0.0867
 9880SOL    HW134487   1.763   7.548   1.458  0.3899  1.2352 -0.7254
 9880SOL    HW234488   1.861   7.621   1.369  1.0278 -0.1684 -1.1846
 9881SOL     OW34489   2.133   4.465   8.298 -0.4579  0.7709  0.1302
 9881SOL    HW134490   2.136   4.385   8.245 -1.1413  0.2165  0.9266
 9881SOL    HW234491   2.224   4.484   8.318 -0.3788 -0.5093  0.9982
 9882SOL     OW34492   1.639   6.681   8.618  0.1290  0.2111  0.1454
 9882SOL    HW134493   1.652   6.768   8.580 -3.4989  1.7207  2.1527
 9882SOL    HW234494   1.673   6.689   8.707 -2.2877  0.3093  1.0873
 9883SOL     OW34495   0.799   9.800   8.889 -0.6592 -0.1812  0.0411
 9883SOL    HW134496   0.857   9.811   8.964 -0.4634  0.7957 -0.2516
 9883SOL    HW234497   0.840   9.732   8.837 -0.6163 -0.6244  0.6459
 9884SOL     OW34498   2.684   8.133   0.927 -0.3990 -0.1171  0.8527
 9884SOL    HW134499   2.605   8.083   0.945 -0.9321  0.3620 -0.0828
 9884SOL    HW234500   2.689   8.197   0.997 -1.3798  0.4754  0.4023
 9885SOL     OW34501   1.713   6.208   8.069 -0.0783  0.2391  0.2910
 9885SOL    HW134502   1.698   6.212   8.164 -3.2206  0.3935 -0.1514
 9885SOL    HW234503   1.633   6.169   8.034  1.0200  0.2336 -2.3148
 9886SOL     OW34504   3.999   6.478   9.343 -0.2349  0.5034  0.4290
 9886SOL    HW134505   3.954   6.476   9.259 -0.7406  1.4710  0.6694
 9886SOL    HW234506   3.930   6.491   9.408  0.1936  0.1941  0.9533
 9887SOL     OW34507   1.863   5.406   7.654  0.5878 -0.0162 -0.3332
 9887SOL    HW134508   1.868   5.347   7.579  1.0464 -0.7877  0.2959
 9887SOL    HW234509   1.877   5.493   7.617  1.4481 -0.4548 -1.0551
 9888SOL     OW34510   2.127   6.725   7.730  0.5116 -0.0768  0.5871
 9888SOL    HW134511   2.046   6.751   7.688 -0.3023 -1.2612  1.4009
 9888SOL    HW234512   2.195   6.748   7.667 -0.5383 -0.1592 -0.5879
 9889SOL     OW34513   1.803   5.893   8.179 -0.1876 -0.2369 -0.0681
 9889SOL    HW134514   1.846   5.975   8.202  0.0016 -0.8826  1.9858
 9889SOL    HW234515   1.729   5.919   8.125  0.0984  1.2464  0.2366
 9890SOL     OW34516   1.292   7.559   7.649  0.1264 -0.0234  0.0701
 9890SOL    HW134517   1.312   7.614   7.725 -1.7590  0.7598  0.0235
 9890SOL    HW234518   1.359   7.581   7.585  1.7640 -0.7105  1.4962
 9891SOL     OW34519   3.790   8.535   7.843 -0.0632  0.2470  0.2285
 9891SOL    HW134520   3.707   8.583   7.836 -0.9637 -1.1971  0.9078
 9891SOL    HW234521   3.829   8.567   7.924  0.7349  1.9566 -0.7933
 9892SOL     OW34522   2.797   7.571   0.191 -0.5833  0.1288 -0.1443
 9892SOL    HW134523   2.764   7.559   0.102 -1.7339  0.2171  0.2600
 9892SOL    HW234524   2.730   7.624   0.234  0.5626  1.1315  0.4274
 9893SOL     OW34525   0.908   6.371   8.593 -0.1880  0.2958  0.3455
 9893SOL    HW134526   0.877   6.291   8.551  1.8821  0.1690 -0.9996
 9893SOL    HW234527   1.002   6.373   8.574  0.1187  2.0833  1.9587
 9894SOL     OW34528   2.341   7.305   9.064  0.3651 -0.2589 -0.6214
 9894SOL    HW134529   2.321   7.399   9.071 -0.2080 -0.2980 -1.5828
 9894SOL    HW234530   2.264   7.268   9.019  0.9918 -1.0375 -1.0584
 9895SOL     OW34531   1.942   4.648   8.222  0.3111 -0.1078  0.8240
 9895SOL    HW134532   2.009   4.581   8.238 -0.2761 -1.2507 -1.3179
 9895SOL    HW234533   1.873   4.627   8.285  0.1785 -1.4826  0.2435
 9896SOL     OW34534   2.217   7.741   8.268  0.6780 -0.2461 -0.3366
 9896SOL    HW134535   2.167   7.813   8.306  1.2317 -0.5265  0.9457
 9896SOL    HW234536   2.153   7.670   8.258  0.6840 -0.4368  0.8365
 9897SOL     OW34537   7.406   6.894   8.608 -0.4905  0.5190  0.2484
 9897SOL    HW134538   7.376   6.972   8.563  1.9011  0.1654 -2.0781
 9897SOL    HW234539   7.495   6.915   8.637 -0.4728 -0.7169  1.1703
 9898SOL     OW34540   1.498   7.320   8.174  0.2973 -0.4707  0.5450
 9898SOL    HW134541   1.449   7.250   8.219  1.0463 -0.5151  1.3086
 9898SOL    HW234542   1.529   7.376   8.245 -1.7940  1.6650 -0.1600
 9899SOL     OW34543   1.657   8.854   9.515 -0.2679  0.6372  0.6459
 9899SOL    HW134544   1.738   8.832   9.561  0.2799  0.3863 -0.4114
 9899SOL    HW234545   1.655   8.949   9.514  0.2587  0.6480  0.2755
 9900SOL     OW34546   3.916   5.834   8.575  0.3227  0.4501  0.3837
 9900SOL    HW134547   3.982   5.872   8.518 -0.6897  1.4658 -0.1322
 9900SOL    HW234548   3.962   5.764   8.621  1.6510  0.8850 -0.2461
 9901SOL     OW34549   1.593   5.078   6.877 -0.3707  0.5012  0.3490
 9901SOL    HW134550   1.515   5.029   6.906 -0.6058  1.1167  0.7649
 9901SOL    HW234551   1.605   5.052   6.786  0.3213 -1.4020  0.9411
 9902SOL     OW34552   3.119   6.633   8.745  0.1034  0.1288  0.3143
 9902SOL    HW134553   3.025   6.632   8.729 -0.0528 -1.2273  1.1909
 9902SOL    HW234554   3.141   6.541   8.761  1.7237  0.3351 -0.6833
 9903SOL     OW34555   2.993   4.620   8.877 -0.2782  0.5819  0.5482
 9903SOL    HW134556   3.056   4.601   8.807  0.0469  0.6897  0.8068
 9903SOL    HW234557   3.013   4.556   8.944  1.6358  2.5491  1.9455
 9904SOL     OW34558   3.413   7.332   8.326 -0.2063  0.1885 -0.1029
 9904SOL    HW134559   3.461   7.393   8.269 -1.4879 -0.9947 -2.5428
 9904SOL    HW234560   3.387   7.260   8.268 -2.7226 -0.4303  1.6946
 9905SOL     OW34561   2.119   5.256   0.473  0.7503 -0.3088  0.5381
 9905SOL    HW134562   2.140   5.163   0.459  1.6465 -0.1999  1.1143
 9905SOL    HW234563   2.134   5.297   0.388 -0.9507 -0.9216 -0.0711
 9906SOL     OW34564   3.658   7.232   9.215 -0.3850 -0.7013 -0.6069
 9906SOL    HW134565   3.697   7.298   9.272 -0.4663 -0.2703 -1.0506
 9906SOL    HW234566   3.585   7.198   9.267 -0.6650 -0.0748 -0.5791
 9907SOL     OW34567   3.209   4.976   9.929  0.0907  0.7387  0.2992
 9907SOL    HW134568   3.152   4.981   9.853 -0.1542 -1.6973  0.2873
 9907SOL    HW234569   3.159   5.016  10.000 -1.4533 -0.8492  0.1479
 9908SOL     OW34570   2.900   7.399   9.595 -0.1155  0.1430 -0.4869
 9908SOL    HW134571   2.974   7.363   9.547 -0.0442  1.1529 -1.1494
 9908SOL    HW234572   2.879   7.333   9.661  0.7638 -0.5645 -0.9162
 9909SOL     OW34573   0.714   6.269   7.984 -0.0288 -0.1527  0.2591
 9909SOL    HW134574   0.696   6.190   8.034 -0.9465  0.9862  1.7533
 9909SOL    HW234575   0.627   6.299   7.955  0.1131  1.4089  1.4066
 9910SOL     OW34576   3.252   6.532   9.431 -0.5236 -0.1904 -0.2911
 9910SOL    HW134577   3.299   6.584   9.496  0.8763 -0.9979 -0.6272
 9910SOL    HW234578   3.224   6.454   9.479  0.6519 -0.8642 -0.6578
 9911SOL     OW34579   1.676   6.883   7.049 -0.1380 -0.5039 -0.0023
 9911SOL    HW134580   1.755   6.835   7.022  0.4315  1.2065 -1.5459
 9911SOL    HW234581   1.704   6.974   7.052 -2.1187  0.1588 -0.8102
 9912SOL     OW34582   1.831   7.285   8.817  0.3235  0.7965  0.4041
 9912SOL    HW134583   1.768   7.281   8.889  0.9274 -0.6742  0.8593
 9912SOL    HW234584   1.799   7.222   8.753  0.4937  1.1721 -0.0566
 9913SOL     OW34585   4.054   5.981   9.563  0.3343  0.4957  0.1449
 9913SOL    HW134586   3.966   5.976   9.525 -0.2416 -1.3306  1.6467
 9913SOL    HW234587   4.041   6.024   9.648  0.9493  0.6727  0.1495
 9914SOL     OW34588   2.629   7.769   9.410  0.0859  0.3893  0.1065
 9914SOL    HW134589   2.535   7.759   9.422  0.0326 -1.9800 -1.8777
 9914SOL    HW234590   2.639   7.858   9.377 -1.2519  1.2717  1.9829
 9915SOL     OW34591   1.396   6.667   9.379  0.4581  0.7923 -0.3333
 9915SOL    HW134592   1.365   6.740   9.326  1.1621  0.7327 -0.8399
 9915SOL    HW234593   1.445   6.708   9.450  1.7910  0.7965 -1.2250
 9916SOL     OW34594   1.607   9.259   9.191 -0.3790  0.9627  0.3996
 9916SOL    HW134595   1.606   9.210   9.274 -0.9460 -0.7214 -0.5696
 9916SOL    HW234596   1.542   9.329   9.204 -1.1853  0.1135  1.0388
 9917SOL     OW34597   2.834   8.526   9.111  0.1741 -0.9257  0.1045
 9917SOL    HW134598   2.855   8.526   9.204 -3.4516 -0.2749  1.0071
 9917SOL    HW234599   2.806   8.616   9.093 -2.9230 -1.9589 -0.6143
 9918SOL     OW34600   2.903   6.799   7.108 -0.1498  0.5939  0.3762
 9918SOL    HW134601   2.887   6.884   7.067 -0.4606  0.8582  1.0370
 9918SOL    HW234602   2.963   6.818   7.180 -1.7227  0.5660  1.7270
 9919SOL     OW34603   3.381   7.036   9.567  0.1721  0.0641  0.0625
 9919SOL    HW134604   3.298   6.991   9.581  1.0524 -1.8192 -0.6595
 9919SOL    HW234605   3.386   7.100   9.638 -1.9514  0.3050  0.0275
 9920SOL     OW34606   2.624   4.968   0.276 -0.1544 -0.7448 -0.5415
 9920SOL    HW134607   2.692   4.907   0.248 -0.0495 -1.8796  2.0524
 9920SOL    HW234608   2.545   4.915   0.280 -0.0746 -0.7359  1.6710
 9921SOL     OW34609   1.557   6.241   7.679  0.2261  0.6862  0.3233
 9921SOL    HW134610   1.644   6.259   7.716  0.9421  0.4986 -1.2178
 9921SOL    HW234611   1.514   6.186   7.744  1.9484 -0.7197  0.3091
 9922SOL     OW34612   2.049   7.260   0.371  0.0895 -0.1058  0.1401
 9922SOL    HW134613   1.955   7.277   0.366 -0.4196 -2.2822  1.3949
 9922SOL    HW234614   2.058   7.167   0.348  2.0942  0.4011 -1.2878
 9923SOL     OW34615   3.920   4.864   9.851 -0.0756 -0.4850 -0.1109
 9923SOL    HW134616   3.967   4.863   9.767  0.1488 -1.0211  0.0240
 9923SOL    HW234617   3.898   4.957   9.864  0.0401 -0.3731 -0.6758
 9924SOL     OW34618   2.988   6.116   8.478 -0.0689  0.0753  0.2937
 9924SOL    HW134619   2.902   6.090   8.447 -0.4611  0.4369  1.0626
 9924SOL    HW234620   3.013   6.189   8.421  0.6264 -1.3496 -1.2436
 9925SOL     OW34621   3.313   4.724   8.881  0.7900 -0.3129 -0.0219
 9925SOL    HW134622   3.273   4.679   8.955  0.8470 -0.3639 -0.0219
 9925SOL    HW234623   3.252   4.794   8.859 -1.0313 -2.5246 -2.2573
 9926SOL     OW34624   3.041   7.551   0.316  0.2094 -0.0427  0.4915
 9926SOL    HW134625   3.024   7.634   0.359 -0.8594 -0.9346  1.8485
 9926SOL    HW234626   2.960   7.531   0.268  1.0894  0.5319 -1.2993
 9927SOL     OW34627   3.007   7.404   8.905  0.1898  0.0926 -0.1230
 9927SOL    HW134628   2.998   7.496   8.929  0.8537 -0.0881  0.8204
 9927SOL    HW234629   3.084   7.373   8.953 -0.2838 -1.0687 -0.0802
 9928SOL     OW34630   1.715   3.702   7.468  0.4950  0.1965 -0.0610
 9928SOL    HW134631   1.767   3.684   7.546  0.7792 -0.6891 -0.4488
 9928SOL    HW234632   1.779   3.727   7.402  0.2696  0.7581 -0.0711
 9929SOL     OW34633   1.341   7.288   8.468 -0.4535 -0.0726 -0.3588
 9929SOL    HW134634   1.367   7.203   8.433 -0.6531 -0.0498 -0.5628
 9929SOL    HW234635   1.405   7.307   8.537 -1.1471 -0.9756  0.5466
 9930SOL     OW34636   4.062   6.767   8.232 -0.0243  0.2579  0.4202
 9930SOL    HW134637   4.059   6.810   8.318  0.5468  2.1307 -0.4778
 9930SOL    HW234638   4.100   6.832   8.173 -0.4815 -0.9721 -1.2877
 9931SOL     OW34639   3.741   4.212   0.058 -0.1727 -0.2224 -0.3741
 9931SOL    HW134640   3.673   4.207   0.125 -0.2594  2.6965 -0.1601
 9931SOL    HW234641   3.721   4.140  -0.002 -0.7982 -2.1403  2.0674
 9932SOL     OW34642   2.384   4.767   9.602 -0.0815 -0.4933 -0.4107
 9932SOL    HW134643   2.373   4.830   9.531 -1.2660 -0.1904  0.0286
 9932SOL    HW234644   2.294   4.740   9.624  0.4049 -2.2494 -0.5282
 9933SOL     OW34645   2.480   4.208   8.743  0.4590  0.2854  0.2462
 9933SOL    HW134646   2.497   4.301   8.727  1.1901  0.2895  1.0373
 9933SOL    HW234647   2.427   4.207   8.823 -2.6270  0.2229 -1.7030
 9934SOL     OW34648   0.986   5.573   7.212  0.2643 -0.3229 -0.1726
 9934SOL    HW134649   0.904   5.613   7.183  1.0080 -1.1710 -3.7377
 9934SOL    HW234650   0.973   5.479   7.197  1.7012 -0.5109 -0.2602
 9935SOL     OW34651   3.282   8.017   8.015 -0.1477 -0.3878  0.0530
 9935SOL    HW134652   3.247   8.007   7.927 -1.7571 -3.3920  0.9420
 9935SOL    HW234653   3.359   8.073   8.005 -2.1980  2.0766 -2.7313
 9936SOL     OW34654   1.354   6.164   9.304 -0.6339  0.3471 -0.0910
 9936SOL    HW134655   1.307   6.085   9.331 -2.5382 -0.5592 -5.3183
 9936SOL    HW234656   1.434   6.131   9.263  0.3291  1.3816  0.9385
 9937SOL     OW34657   3.146   6.215   9.959  0.3634  0.6788  0.2978
 9937SOL    HW134658   3.118   6.148   9.897  1.3617 -0.2314  0.8091
 9937SOL    HW234659   3.177   6.287   9.904  0.7117  0.1042 -0.2564
 9938SOL     OW34660   1.038   8.962   0.733  0.3713 -0.7813 -0.2281
 9938SOL    HW134661   1.020   9.053   0.754 -1.4152 -1.4083  1.1304
 9938SOL    HW234662   1.110   8.938   0.792  1.0053 -0.1933 -0.7563
 9939SOL     OW34663   2.051   7.771   0.728 -0.0461  0.1248  0.7451
 9939SOL    HW134664   2.073   7.834   0.658  0.1186  1.0961  1.6593
 9939SOL    HW234665   2.128   7.772   0.786  0.2040 -1.3713  0.4578
 9940SOL     OW34666   0.781   5.508   1.501  0.1059 -0.3632 -0.2714
 9940SOL    HW134667   0.752   5.520   1.591 -0.4414 -0.9135 -0.3714
 9940SOL    HW234668   0.755   5.588   1.456  0.2011 -0.1732  0.0111
 9941SOL     OW34669   2.348   7.374   9.540  0.2571 -0.9334 -0.0172
 9941SOL    HW134670   2.281   7.438   9.516  0.1297 -0.8528  0.5523
 9941SOL    HW234671   2.311   7.290   9.515  0.1014 -0.8532 -0.0578
 9942SOL     OW34672   4.194   5.979   8.496  0.7455 -0.2789 -0.6671
 9942SOL    HW134673   4.181   6.066   8.456  0.5713  0.3462  0.7118
 9942SOL    HW234674   4.229   5.998   8.583  0.0107 -1.5786 -0.0833
 9943SOL     OW34675   2.049   7.592   8.972 -0.7885 -0.6442 -0.2023
 9943SOL    HW134676   2.087   7.635   8.896  0.8972 -3.1821 -0.8606
 9943SOL    HW234677   1.978   7.650   9.000  0.5127  1.8195 -1.8546
 9944SOL     OW34678   3.963   7.519   0.073 -0.0282 -0.4316  0.5507
 9944SOL    HW134679   4.000   7.516  -0.015 -0.2888  1.3895  0.3588
 9944SOL    HW234680   3.892   7.455   0.071 -0.1252 -0.3045 -0.6014
 9945SOL     OW34681   3.583   6.951   9.787 -0.1784 -0.2367  0.6636
 9945SOL    HW134682   3.659   7.005   9.763  1.1892 -1.4847  2.0291
 9945SOL    HW234683   3.595   6.871   9.736 -1.7709  0.3980 -0.7482
 9946SOL     OW34684   1.058   4.762   9.988 -0.6520 -0.3261 -0.5587
 9946SOL    HW134685   1.096   4.753  10.076  0.2324  0.8860 -0.7950
 9946SOL    HW234686   0.964   4.761  10.003 -0.5076  0.0040  0.4292
 9947SOL     OW34687   2.078   7.583   0.030 -0.4345  0.3436  0.1442
 9947SOL    HW134688   2.111   7.569  -0.058  0.1580 -0.9210  0.5477
 9947SOL    HW234689   2.149   7.628   0.076  0.0507 -0.7946  0.5229
 9948SOL     OW34690   2.003   7.475   8.633 -0.2298  0.5385 -0.2258
 9948SOL    HW134691   1.958   7.425   8.701  0.8731 -0.4716 -0.2206
 9948SOL    HW234692   2.055   7.540   8.681 -0.2131  0.4706 -0.1510
 9949SOL     OW34693   2.607   8.055   0.176 -0.0916 -0.4702  0.4146
 9949SOL    HW134694   2.588   8.136   0.129  0.4584  0.0815  1.1314
 9949SOL    HW234695   2.558   8.063   0.258 -1.2332 -1.5290 -0.1444
 9950SOL     OW34696   0.424   6.464   9.143  0.2455  0.4705 -0.0814
 9950SOL    HW134697   0.469   6.545   9.166 -0.7631  0.5132  1.7991
 9950SOL    HW234698   0.332   6.488   9.136  0.4161  0.3618 -3.8302
 9951SOL     OW34699   1.438   6.373   0.339  1.2699  0.3745 -0.5748
 9951SOL    HW134700   1.506   6.360   0.404  2.4318  1.7896 -1.4726
 9951SOL    HW234701   1.484   6.377   0.256  0.2074  2.1867 -1.1120
 9952SOL     OW34702   2.449   6.896   9.254 -0.0777  0.0157 -0.4133
 9952SOL    HW134703   2.471   6.956   9.325 -1.8497  0.0238  0.1340
 9952SOL    HW234704   2.442   6.811   9.296  3.1365 -0.7837 -1.2916
 9953SOL     OW34705   3.306   8.386   9.155  0.1447 -0.2846  0.0405
 9953SOL    HW134706   3.380   8.419   9.104 -0.1140  1.4348  0.7302
 9953SOL    HW234707   3.229   8.417   9.108 -0.1939 -2.6851 -1.0800
 9954SOL     OW34708   2.334   5.177   1.469 -0.1682  0.2580  0.5590
 9954SOL    HW134709   2.356   5.093   1.428  0.3635  0.2285  0.8959
 9954SOL    HW234710   2.238   5.181   1.467 -0.1390  0.3931 -0.9398
 9955SOL     OW34711   2.238   7.206   9.782  0.3468  0.4807  0.5247
 9955SOL    HW134712   2.162   7.160   9.747  0.6142 -0.1329  0.7480
 9955SOL    HW234713   2.306   7.196   9.715 -0.1342  2.0745 -0.2316
 9956SOL     OW34714   2.359   9.083   9.946  0.2290 -0.1802 -0.0084
 9956SOL    HW134715   2.445   9.122   9.965 -0.0035 -0.2219  1.1421
 9956SOL    HW234716   2.296   9.143   9.986 -0.2466 -0.5105 -0.2559
 9957SOL     OW34717   3.344   7.007   9.897  0.3092 -0.2898  0.2208
 9957SOL    HW134718   3.432   7.015   9.859 -0.0044  0.2096 -0.3990
 9957SOL    HW234719   3.302   6.939   9.845  0.1615 -0.1789  0.1936
 9958SOL     OW34720   1.655   7.935   9.194  0.2747 -0.2638 -0.3442
 9958SOL    HW134721   1.701   8.011   9.159 -1.1599  0.9176  0.2955
 9958SOL    HW234722   1.579   7.924   9.138  1.2094 -2.1139 -1.2948
 9959SOL     OW34723   2.243   6.446   0.636 -0.8132 -0.1031 -0.0647
 9959SOL    HW134724   2.210   6.371   0.684 -1.2022 -0.0321 -0.2242
 9959SOL    HW234725   2.165   6.492   0.604 -0.5868  0.5442  0.3004
 9960SOL     OW34726   0.962   7.382   0.192  0.3862 -0.0881  0.1408
 9960SOL    HW134727   0.877   7.338   0.196  0.0831  0.3845 -0.8248
 9960SOL    HW234728   0.940   7.473   0.168  1.0513  0.4089  1.3818
 9961SOL     OW34729   2.514   5.806   0.065 -0.7735 -0.5185 -0.0085
 9961SOL    HW134730   2.522   5.794   0.159 -0.3083 -0.0805  0.0106
 9961SOL    HW234731   2.604   5.812   0.034 -0.9172 -0.9966 -0.5253
 9962SOL     OW34732   4.197   8.436   9.503  0.3419  0.0157  0.2090
 9962SOL    HW134733   4.219   8.432   9.596 -1.4917 -0.3167  0.6503
 9962SOL    HW234734   4.102   8.445   9.501  0.4643  1.1181 -1.6207
 9963SOL     OW34735   3.619   7.007   0.069  0.3590  0.3291  0.7781
 9963SOL    HW134736   3.613   6.985  -0.024 -2.0539  0.5991  0.8504
 9963SOL    HW234737   3.712   6.996   0.090  1.4039  2.6638 -2.2616
 9964SOL     OW34738   3.154   8.222   9.869 -0.1389  0.5155  0.4867
 9964SOL    HW134739   3.240   8.180   9.868 -0.5281 -0.3197  1.3956
 9964SOL    HW234740   3.109   8.185   9.793 -0.8253 -1.4829  1.8206
 9965SOL     OW34741   3.563   7.588   8.581  0.2510 -0.3045  0.1558
 9965SOL    HW134742   3.519   7.589   8.496 -0.5758 -0.1271  0.5752
 9965SOL    HW234743   3.550   7.676   8.615  0.4850 -0.4077  0.5122
 9966SOL     OW34744   3.199   4.932   0.808 -0.2968 -0.1229 -0.0266
 9966SOL    HW134745   3.119   4.950   0.857 -1.1171 -0.2182 -1.3039
 9966SOL    HW234746   3.193   4.988   0.731  1.0678  0.1677  0.0733
 9967SOL     OW34747   3.239   6.629   1.928  0.0503 -0.4281 -0.2119
 9967SOL    HW134748   3.329   6.661   1.915 -0.0087  0.5875  1.6953
 9967SOL    HW234749   3.197   6.642   1.843  1.6160 -0.6156 -1.0404
 9968SOL     OW34750   1.324   6.828   8.262 -0.1831  0.4213  0.4251
 9968SOL    HW134751   1.304   6.797   8.351  0.5263 -0.2315  0.3568
 9968SOL    HW234752   1.375   6.758   8.223 -0.9594  0.4653 -0.7002
 9969SOL     OW34753   3.280   6.549   9.163 -0.1870 -0.1353 -0.4559
 9969SOL    HW134754   3.193   6.534   9.125 -0.3671  1.5063 -0.7150
 9969SOL    HW234755   3.266   6.540   9.258 -1.2826  3.0355 -0.2695
 9970SOL     OW34756   2.798   3.957   0.679 -0.3809 -0.2667 -0.1083
 9970SOL    HW134757   2.749   4.026   0.634  0.6304  0.2404 -0.4352
 9970SOL    HW234758   2.838   3.906   0.609  3.4399  2.1377  0.1853
 9971SOL     OW34759   2.135   6.675   0.446  0.1270  0.0454  0.6051
 9971SOL    HW134760   2.126   6.585   0.416 -0.5754 -0.1669  1.4202
 9971SOL    HW234761   2.046   6.702   0.467  0.2307  1.2313 -0.4614
 9972SOL     OW34762   1.489   5.613   8.559 -0.3179  0.1530 -0.3420
 9972SOL    HW134763   1.499   5.519   8.542 -1.3414 -0.0514  0.1346
 9972SOL    HW234764   1.497   5.654   8.473  0.1038 -0.3788 -0.5586
 9973SOL     OW34765   2.876   7.202   9.370 -0.2204 -0.8212  0.2039
 9973SOL    HW134766   2.818   7.278   9.373 -1.5773 -1.8528  0.9577
 9973SOL    HW234767   2.888   7.178   9.462  3.1662  0.6412  0.1995
 9974SOL     OW34768   1.039   6.114   9.981  0.3324 -0.5746  0.2873
 9974SOL    HW134769   0.949   6.146   9.988  0.1944 -0.4927 -1.5347
 9974SOL    HW234770   1.046   6.083   9.890  1.8897 -1.3417  0.6555
 9975SOL     OW34771   3.348   5.765   0.248 -0.1147  0.6805 -0.2683
 9975SOL    HW134772   3.359   5.738   0.340 -0.4496 -0.4294 -0.5487
 9975SOL    HW234773   3.433   5.804   0.225 -0.0480  1.0342  0.5296
 9976SOL     OW34774   2.952   6.015   9.862 -0.6683  0.3344  0.4633
 9976SOL    HW134775   2.946   5.921   9.847 -0.9194  0.8777 -3.2048
 9976SOL    HW234776   2.867   6.049   9.832  0.6165  2.0754 -1.2706
 9977SOL     OW34777   1.011   7.105   7.132 -0.1940 -0.7740  0.3105
 9977SOL    HW134778   0.963   7.038   7.083 -0.3863  0.5558 -1.3462
 9977SOL    HW234779   0.943   7.164   7.165  0.0737 -0.6736  0.6887
 9978SOL     OW34780   2.023   5.931   0.176  0.6647 -0.1114 -0.8687
 9978SOL    HW134781   2.029   5.864   0.244 -0.0433  0.5447 -0.1444
 9978SOL    HW234782   2.112   5.938   0.141  1.1279 -0.1672  0.2743
 9979SOL     OW34783   1.643   5.819   9.958 -0.0053  0.4897 -0.3978
 9979SOL    HW134784   1.609   5.804   9.870  1.4159  0.3586 -0.9384
 9979SOL    HW234785   1.584   5.769  10.015 -2.0917  2.1251 -1.0539
 9980SOL     OW34786   0.593   6.809   8.436  0.1920 -0.8268 -0.2626
 9980SOL    HW134787   0.541   6.786   8.513 -1.4434 -0.6276 -1.2710
 9980SOL    HW234788   0.568   6.744   8.370  0.6669 -0.2687 -0.9997
 9981SOL     OW34789   5.076   5.905   9.611 -0.0099  0.3575 -0.2124
 9981SOL    HW134790   5.132   5.932   9.684  1.3732 -1.4269 -0.5674
 9981SOL    HW234791   4.988   5.904   9.647  0.3779  1.6499  0.8173
 9982SOL     OW34792   3.820   4.957   8.579 -0.6506 -1.0166  0.4889
 9982SOL    HW134793   3.870   5.032   8.611 -0.3765 -1.2052  0.5055
 9982SOL    HW234794   3.772   4.926   8.656 -2.7325  0.6775 -0.0530
 9983SOL     OW34795   2.276   6.442   8.942 -0.3532 -0.1640  0.1277
 9983SOL    HW134796   2.211   6.374   8.962  0.3703 -1.0366 -0.4975
 9983SOL    HW234797   2.321   6.411   8.864  1.2802  0.1108  0.9321
 9984SOL     OW34798   2.906   8.575   8.516  0.4008 -0.1534 -0.0255
 9984SOL    HW134799   2.832   8.636   8.516  0.1693 -0.4163  1.6145
 9984SOL    HW234800   2.983   8.631   8.527  0.2863 -0.0538  0.2666
 9985SOL     OW34801   2.012   7.321   0.001 -0.1083 -0.0611 -0.1300
 9985SOL    HW134802   2.005   7.409   0.038 -1.6804  0.6709 -2.0732
 9985SOL    HW234803   2.016   7.335  -0.094 -0.9158 -2.0953 -0.4963
 9986SOL     OW34804   0.979   6.997   8.548 -0.1831  0.4305  0.2988
 9986SOL    HW134805   1.006   7.084   8.577 -0.6981  1.0706 -1.0639
 9986SOL    HW234806   0.920   7.014   8.474  0.7794 -1.0923 -0.8669
 9987SOL     OW34807   1.783   7.479   9.208  0.3119 -0.0595  0.1954
 9987SOL    HW134808   1.689   7.476   9.187  0.6433 -1.0740 -1.2328
 9987SOL    HW234809   1.814   7.561   9.169 -0.2227  0.8961  1.7578
 9988SOL     OW34810   2.217   8.231   9.963 -0.0689  0.5099  0.0693
 9988SOL    HW134811   2.184   8.156  10.012 -0.2626  1.1981  1.0076
 9988SOL    HW234812   2.140   8.266   9.917  0.2363 -0.5193 -1.2695
 9989SOL     OW34813   1.646   7.015   9.613 -0.0528 -0.7257  0.1133
 9989SOL    HW134814   1.663   6.926   9.643  3.2009 -0.5378 -0.9694
 9989SOL    HW234815   1.637   7.066   9.694  0.1085 -1.6947  0.7529
 9990SOL     OW34816   2.058   7.936   9.388  0.1056  0.2139 -0.0130
 9990SOL    HW134817   2.026   7.849   9.362 -0.9573  0.2422  1.1746
 9990SOL    HW234818   1.982   7.993   9.377  0.9551  1.1073 -1.3118
 9991SOL     OW34819   2.625   7.622   7.558 -0.8069  0.0352 -0.3545
 9991SOL    HW134820   2.568   7.694   7.584 -1.4242 -0.5008 -0.2316
 9991SOL    HW234821   2.630   7.566   7.635 -1.5312 -0.8352 -0.9351
 9992SOL     OW34822   1.960   7.967   8.844 -0.0970  0.5876 -0.2184
 9992SOL    HW134823   1.894   7.899   8.830  0.4890 -0.2259  0.9476
 9992SOL    HW234824   1.911   8.049   8.839 -0.9028  0.0646 -1.0834
 9993SOL     OW34825   1.441   8.071   9.035  0.7251 -0.0394  0.3187
 9993SOL    HW134826   1.444   8.126   8.956 -0.2592  0.1056  0.3757
 9993SOL    HW234827   1.372   8.007   9.016  0.7034 -0.1961  0.9340
 9994SOL     OW34828   3.549   4.761   9.654 -0.1130  0.3547 -0.0221
 9994SOL    HW134829   3.603   4.683   9.671  1.4786  1.8181  1.8763
 9994SOL    HW234830   3.467   4.743   9.701 -0.6859 -1.1641 -1.5501
 9995SOL     OW34831   1.388   6.835   9.728  0.2392  0.2613 -0.6450
 9995SOL    HW134832   1.411   6.887   9.805  3.4924  1.1230 -2.1097
 9995SOL    HW234833   1.352   6.898   9.666  0.0229  0.0081 -0.7773
 9996SOL     OW34834   1.434   7.923   9.413 -0.0045  0.7315  0.1783
 9996SOL    HW134835   1.400   7.981   9.345  0.1661  1.3389  0.6116
 9996SOL    HW234836   1.361   7.912   9.473 -0.8028 -1.3889 -1.1124
 9997SOL     OW34837   1.566   6.405   8.892 -0.3868  0.3287  0.0366
 9997SOL    HW134838   1.490   6.425   8.947  0.8103  3.5338  0.6308
 9997SOL    HW234839   1.529   6.369   8.811 -2.4789  0.8623  0.7375
 9998SOL     OW34840   1.276   6.869   0.582 -0.2046  0.7739  0.3128
 9998SOL    HW134841   1.212   6.904   0.521  0.7371  2.0030 -0.0031
 9998SOL    HW234842   1.237   6.882   0.668 -1.4010 -0.6714 -0.0070
 9999SOL     OW34843   3.453   8.484   1.624 -0.4192  0.3424  0.1683
 9999SOL    HW134844   3.479   8.417   1.687 -1.1163 -0.6294 -0.5632
 9999SOL    HW234845   3.451   8.439   1.540 -0.3584  1.4156 -0.4200
10000SOL     OW34846   3.214   8.336   0.300 -0.1110  0.1903  0.2722
10000SOL    HW134847   3.224   8.355   0.393  1.3595 -0.1118  0.1856
10000SOL    HW234848   3.238   8.243   0.292  0.8873  0.5102 -0.5746
10001SOL     OW34849   2.258   7.713   1.368  0.0408 -0.5373  0.1215
10001SOL    HW134850   2.235   7.644   1.430 -2.9951 -0.1872 -0.5113
10001SOL    HW234851   2.174   7.737   1.328  1.3429  2.1382 -1.0963
10002SOL     OW34852   4.293   0.013   0.477  0.5602  0.0529  0.2052
10002SOL    HW134853   4.213  -0.035   0.494 -0.2010  0.7368 -1.3213
10002SOL    HW234854   4.342  -0.043   0.416  0.7552  0.1176  0.3033
10003SOL     OW34855   1.746   0.041   0.738  0.2613  0.3461  0.1216
10003SOL    HW134856   1.788   0.100   0.676  0.6331 -1.0045 -0.9420
10003SOL    HW234857   1.660   0.023   0.700 -0.2634  1.0264  0.9730
10004SOL     OW34858   2.641   9.061   2.471 -0.6554  0.3138 -0.4072
10004SOL    HW134859   2.576   9.020   2.414 -0.4983  0.2320 -0.5275
10004SOL    HW234860   2.626   9.155   2.461 -2.7564  0.2837  1.8541
10005SOL     OW34861   1.436   7.997   0.416  0.3960  0.0987 -0.4587
10005SOL    HW134862   1.457   8.001   0.323  0.9458 -1.8411 -0.4371
10005SOL    HW234863   1.340   7.989   0.418  0.5205 -1.6918 -0.9348
10006SOL     OW34864   4.195   9.081   0.150 -0.2276  0.2454 -0.5577
10006SOL    HW134865   4.145   9.127   0.083 -0.3890  0.6347 -0.1693
10006SOL    HW234866   4.263   9.034   0.101 -1.4843 -0.9812 -1.1786
10007SOL     OW34867   3.050   9.205   0.772  0.4479  0.2092 -0.1275
10007SOL    HW134868   2.965   9.175   0.738  1.2959 -1.1845 -1.0683
10007SOL    HW234869   3.052   9.174   0.862  0.8523 -1.6547 -0.7610
10008SOL     OW34870   3.754   9.878   2.717 -0.3153 -0.1215 -0.2628
10008SOL    HW134871   3.705   9.866   2.799  1.6792 -0.3951  0.9110
10008SOL    HW234872   3.745   9.971   2.698  2.3492  0.7443  2.3393
10009SOL     OW34873   3.444   7.648   2.891  0.0703 -0.4478 -0.2201
10009SOL    HW134874   3.450   7.643   2.986  0.2980  0.1940 -0.1978
10009SOL    HW234875   3.434   7.741   2.872 -3.4291 -0.8321 -0.6261
10010SOL     OW34876   1.806   8.475   0.129 -0.0217 -0.5980  0.3128
10010SOL    HW134877   1.717   8.508   0.120  0.2793  0.8702  2.4271
10010SOL    HW234878   1.861   8.553   0.134  1.3159 -1.4811 -0.1854
10011SOL     OW34879   4.681   8.313   2.731 -0.5475 -0.0884  0.5926
10011SOL    HW134880   4.632   8.355   2.802 -0.4080  1.8129 -0.4094
10011SOL    HW234881   4.730   8.244   2.774 -2.7143 -0.8568  1.8962
10012SOL     OW34882   2.753   7.358   0.773 -0.6264  0.5436 -0.6506
10012SOL    HW134883   2.780   7.435   0.722 -0.0669  2.1983  2.0415
10012SOL    HW234884   2.751   7.389   0.863  0.1382 -2.7794  0.5704
10013SOL     OW34885   1.931   9.216   0.999  0.5913  0.2107  0.7712
10013SOL    HW134886   1.863   9.221   1.066  0.1625  0.7883  0.3092
10013SOL    HW234887   1.935   9.305   0.964 -0.6811 -0.5420 -1.4160
10014SOL     OW34888   3.284   7.954   9.994 -0.3481  0.2135 -0.3839
10014SOL    HW134889   3.272   7.918  10.082  1.5090  1.8594  0.5735
10014SOL    HW234890   3.194   7.967   9.962 -1.0404 -1.8419  0.6383
10015SOL     OW34891   2.193   9.127   1.862 -0.0123 -0.0897  0.8104
10015SOL    HW134892   2.274   9.092   1.825 -0.8807  1.2500 -2.6285
10015SOL    HW234893   2.216   9.216   1.889  0.2117 -0.5045  2.0049
10016SOL     OW34894   4.111   9.261   9.955 -0.1875  1.0794  0.1607
10016SOL    HW134895   4.204   9.259   9.934  0.2016 -1.4074  1.9693
10016SOL    HW234896   4.071   9.308   9.881  2.2950  0.8662 -1.3698
10017SOL     OW34897   0.620   8.126   9.936 -0.3733  0.5993  0.3766
10017SOL    HW134898   0.660   8.213   9.939  1.9377 -0.4183  0.4690
10017SOL    HW234899   0.568   8.120  10.016 -0.4678  1.8625  0.4159
10018SOL     OW34900   2.521   8.444   9.617  0.6667 -0.2274  0.0333
10018SOL    HW134901   2.508   8.534   9.587 -0.0467 -0.2739  0.1964
10018SOL    HW234902   2.471   8.438   9.698  0.6423 -0.7932 -0.0196
10019SOL     OW34903   3.067   8.902   9.856  0.1113  0.1657 -0.2449
10019SOL    HW134904   3.053   8.919   9.949  2.1077 -1.2071  0.3650
10019SOL    HW234905   3.010   8.828   9.836  0.8760 -0.5953  0.3273
10020SOL     OW34906   2.591   9.029   1.441 -0.1680 -0.1365  0.1986
10020SOL    HW134907   2.551   9.101   1.392  0.6138 -0.2399 -0.6110
10020SOL    HW234908   2.658   9.071   1.495 -0.7769 -0.0711  0.9184
10021SOL     OW34909   2.910   6.946   0.811  0.0990 -0.1547 -0.1848
10021SOL    HW134910   2.975   7.011   0.836  0.3222 -0.9172  1.2990
10021SOL    HW234911   2.826   6.991   0.817  0.2289 -0.0675  1.1120
10022SOL     OW34912   3.367   7.101   8.890 -0.4221 -0.2340  0.5633
10022SOL    HW134913   3.322   7.018   8.902 -1.1419  0.0435 -0.1285
10022SOL    HW234914   3.310   7.166   8.931 -0.2487  0.0112  0.4238
10023SOL     OW34915   3.686   8.965   1.609 -0.3920  0.4737 -0.2974
10023SOL    HW134916   3.677   9.021   1.532 -0.0674  0.8261 -0.0785
10023SOL    HW234917   3.599   8.964   1.648 -1.0179 -1.0964 -1.6194
10024SOL     OW34918   2.314   8.230   1.830 -0.1152 -0.2675  0.0082
10024SOL    HW134919   2.259   8.192   1.762  0.6435 -1.4352  0.0354
10024SOL    HW234920   2.324   8.322   1.805  0.7384 -0.8476 -1.8453
10025SOL     OW34921   2.675   8.797   0.451  0.1569 -0.0031 -0.7725
10025SOL    HW134922   2.590   8.755   0.444 -0.3411  0.8912 -0.1078
10025SOL    HW234923   2.714   8.760   0.530  0.1490  0.0336 -0.7515
10026SOL     OW34924   3.326   8.807   9.749  0.0162 -0.3640  0.4616
10026SOL    HW134925   3.331   8.712   9.737 -0.3272 -0.2745 -0.4469
10026SOL    HW234926   3.234   8.824   9.771 -0.3827 -0.0327 -1.3945
10027SOL     OW34927   2.917   8.380   0.861 -0.5900  0.0002 -0.3844
10027SOL    HW134928   2.912   8.464   0.907 -0.0749  0.1755 -0.6530
10027SOL    HW234929   2.860   8.390   0.785 -1.7253 -0.4102  0.3947
10028SOL     OW34930   5.386   9.603   9.933  0.0607  0.2810 -0.6954
10028SOL    HW134931   5.469   9.610   9.980 -1.0472 -1.0868  1.5761
10028SOL    HW234932   5.325   9.657   9.984 -0.8543 -0.1620 -1.3067
10029SOL     OW34933   3.380   7.886   2.224 -0.0709 -0.5157 -0.2080
10029SOL    HW134934   3.437   7.817   2.189 -0.2971 -0.9446  0.2663
10029SOL    HW234935   3.339   7.925   2.147  1.0746 -0.0118 -0.5783
10030SOL     OW34936   4.158   8.000   0.783 -0.4931 -0.1922  0.4294
10030SOL    HW134937   4.067   8.009   0.812 -1.0685  0.1785 -1.3903
10030SOL    HW234938   4.155   8.023   0.690  1.1565 -1.9520 -0.0904
10031SOL     OW34939   3.015   7.658   2.077 -0.1598  0.5353  0.0449
10031SOL    HW134940   2.958   7.621   2.145 -1.2356 -1.9356 -2.1166
10031SOL    HW234941   2.955   7.706   2.020  0.4849  1.0972 -0.1637
10032SOL     OW34942   2.261   6.825   1.796  0.2492 -0.2601 -0.4094
10032SOL    HW134943   2.171   6.857   1.791 -0.1956 -1.6890 -1.6828
10032SOL    HW234944   2.258   6.736   1.761  2.2383 -0.1836 -0.8608
10033SOL     OW34945   1.740   8.649   9.329 -0.3486 -0.3768 -0.2824
10033SOL    HW134946   1.689   8.705   9.387  3.7659  1.4727  1.7986
10033SOL    HW234947   1.734   8.691   9.243 -0.1430  1.3235  0.5195
10034SOL     OW34948   2.686   8.076   1.324 -0.1571  0.0407 -0.5738
10034SOL    HW134949   2.596   8.045   1.318 -0.2429 -0.2009  1.6718
10034SOL    HW234950   2.686   8.159   1.275 -2.2010  1.3105  1.4695
10035SOL     OW34951   2.483   9.670   1.428  0.1443  0.2789 -0.1090
10035SOL    HW134952   2.548   9.740   1.437  0.3020  0.2630 -1.0722
10035SOL    HW234953   2.400   9.717   1.419 -0.1128  0.2845  2.0054
10036SOL     OW34954   0.960   9.547   9.131  0.0860 -0.1550 -0.1742
10036SOL    HW134955   1.040   9.565   9.179 -0.0537  2.0673 -0.7550
10036SOL    HW234956   0.929   9.632   9.101 -1.7532 -1.1231 -1.1512
10037SOL     OW34957   2.454   7.067   1.310  0.2138 -0.2516  0.1573
10037SOL    HW134958   2.522   7.001   1.302  0.8763  0.3951  0.4212
10037SOL    HW234959   2.410   7.047   1.392 -1.3943 -2.0347 -1.0854
10038SOL     OW34960   1.179   6.206   1.545  0.0068  0.2268  0.2849
10038SOL    HW134961   1.089   6.201   1.577  0.6703  1.8279  2.5112
10038SOL    HW234962   1.233   6.196   1.623  1.7842 -0.8044 -1.0379
10039SOL     OW34963   2.507   6.970   2.449  0.0291 -0.1735 -0.1602
10039SOL    HW134964   2.532   7.058   2.476 -0.2485  0.3062 -1.4187
10039SOL    HW234965   2.586   6.933   2.411  0.1920 -0.5392  0.5231
10040SOL     OW34966   3.565   8.802   0.291  0.0090  0.2250  0.2860
10040SOL    HW134967   3.567   8.799   0.195  1.7195 -0.5744  0.3359
10040SOL    HW234968   3.477   8.834   0.312 -0.5258  0.0108 -1.5403
10041SOL     OW34969   1.274   9.251   1.196 -0.2227  0.1052  0.3657
10041SOL    HW134970   1.182   9.226   1.205 -0.3313 -0.3505 -1.8159
10041SOL    HW234971   1.316   9.214   1.274 -1.2169 -2.9997 -0.4944
10042SOL     OW34972   4.000   9.848   1.855  0.8261 -0.2086  0.2099
10042SOL    HW134973   4.089   9.822   1.831  0.2159 -0.0591 -2.3746
10042SOL    HW234974   3.978   9.792   1.929  3.0061 -0.3342  0.8106
10043SOL     OW34975   3.254   7.568   2.033  0.0210 -0.3157  0.1355
10043SOL    HW134976   3.185   7.633   2.049 -0.3797 -0.3322 -1.4563
10043SOL    HW234977   3.249   7.509   2.108  0.1030  1.2421  1.3971
10044SOL     OW34978   9.513   7.720   0.353  0.1610  0.1302 -0.0366
10044SOL    HW134979   9.558   7.702   0.436 -0.5657  2.0281  0.7858
10044SOL    HW234980   9.512   7.635   0.309 -0.1013 -1.0950  2.2212
10045SOL     OW34981   3.172   9.291   1.241  0.5705 -0.5048 -0.1158
10045SOL    HW134982   3.122   9.344   1.178 -0.3088  0.6784  1.5345
10045SOL    HW234983   3.115   9.216   1.260  0.3384 -0.2713  0.1225
10046SOL     OW34984   2.726   0.204   1.475  0.1683  0.5194 -0.2281
10046SOL    HW134985   2.633   0.223   1.468 -0.2145 -0.1383  2.4826
10046SOL    HW234986   2.734   0.153   1.556  2.3291 -2.9256 -2.4489
10047SOL     OW34987   0.407   7.881   0.892 -0.5258  0.1595 -0.4976
10047SOL    HW134988   0.448   7.823   0.957 -1.2474 -0.4923 -0.6123
10047SOL    HW234989   0.347   7.935   0.943 -0.6346  0.0747 -0.5354
10048SOL     OW34990   3.242   9.524   9.907  0.1085  0.0903 -0.0069
10048SOL    HW134991   3.306   9.572   9.854 -0.0159  0.1977 -0.0614
10048SOL    HW234992   3.221   9.584   9.979 -0.0318  0.1084 -0.0624
10049SOL     OW34993   2.561   7.189   2.627  0.6680 -0.0782 -0.2049
10049SOL    HW134994   2.609   7.272   2.635  1.8707 -0.6411 -1.5615
10049SOL    HW234995   2.491   7.197   2.692  0.4604  2.2110 -0.6415
10050SOL     OW34996   0.739   9.486   1.133  0.5274  0.6865 -0.1542
10050SOL    HW134997   0.719   9.574   1.165  1.4702  1.0584 -0.5737
10050SOL    HW234998   0.766   9.438   1.211  2.4158  1.4708 -0.3081
10051SOL     OW34999   4.903   8.743   1.393  0.2231  0.0737 -0.0945
10051SOL    HW135000   4.815   8.727   1.358  0.1855  0.8068 -0.3565
10051SOL    HW235001   4.897   8.830   1.433  0.3405 -0.6654  1.5314
10052SOL     OW35002   3.148   0.627   1.049  0.1174  0.9199  0.5480
10052SOL    HW135003   3.130   0.619   1.143  0.5678 -0.1985  0.5459
10052SOL    HW235004   3.180   0.716   1.039  0.4606  0.9182  1.5322
10053SOL     OW35005   3.586   5.612   0.034 -0.0841 -0.1428  0.1256
10053SOL    HW135006   3.550   5.565   0.110  0.0883 -1.7276 -0.7382
10053SOL    HW235007   3.598   5.701   0.065  0.0232 -0.7684  1.9872
10054SOL     OW35008   2.532   7.686   2.179 -0.2912  0.0916  0.4644
10054SOL    HW135009   2.443   7.683   2.144 -0.5991  0.5553  1.1827
10054SOL    HW235010   2.541   7.774   2.215  0.7606  0.3242 -0.3627
10055SOL     OW35011   0.948   9.359   1.001  0.3249 -0.0661 -0.1853
10055SOL    HW135012   0.863   9.404   1.001  0.7388  0.8303 -3.4334
10055SOL    HW235013   0.941   9.294   1.071 -2.3425  1.2844  0.8539
10056SOL     OW35014   1.772   8.697   1.200  0.7876 -0.4957  0.0202
10056SOL    HW135015   1.866   8.710   1.209  0.5682 -0.3030  2.2915
10056SOL    HW235016   1.735   8.785   1.207  0.5153 -0.3879 -2.3480
10057SOL     OW35017   1.930   8.291   1.131 -0.5019 -0.7954  0.4999
10057SOL    HW135018   1.940   8.355   1.061 -0.7491 -0.7626  0.4958
10057SOL    HW235019   1.838   8.295   1.155 -0.3103 -0.4484  1.1761
10058SOL     OW35020   1.414   6.673   0.834 -0.0591 -0.6630  0.1167
10058SOL    HW135021   1.353   6.619   0.886  0.1010 -0.9630 -0.0063
10058SOL    HW235022   1.357   6.730   0.782 -0.2457 -1.2320 -0.3075
10059SOL     OW35023   3.885   9.110   2.395 -0.1978 -0.3990  0.1728
10059SOL    HW135024   3.945   9.119   2.321  0.1853 -1.9743  0.2585
10059SOL    HW235025   3.833   9.032   2.374 -0.5487 -0.4576  1.2430
10060SOL     OW35026   4.338   8.173   9.528 -0.3223 -0.1733  0.3035
10060SOL    HW135027   4.433   8.157   9.525 -0.4777 -0.9848 -0.5470
10060SOL    HW235028   4.329   8.265   9.505  0.1877 -0.3942 -0.8376
10061SOL     OW35029   0.707   6.408   9.343  0.1540  0.3662  0.0331
10061SOL    HW135030   0.713   6.354   9.422 -1.2722  0.4230  0.1871
10061SOL    HW235031   0.668   6.350   9.277  0.4733  0.6064 -0.3700
10062SOL     OW35032   1.109   7.755   1.858  0.9317  0.5790 -0.1082
10062SOL    HW135033   1.049   7.683   1.876  1.6965  0.1424  0.6606
10062SOL    HW235034   1.074   7.794   1.777  0.7534 -0.8944 -0.7619
10063SOL     OW35035   1.338   0.164   0.201 -0.2992  0.7380  0.1615
10063SOL    HW135036   1.291   0.089   0.164 -0.2821  0.8930 -0.1815
10063SOL    HW235037   1.430   0.149   0.178 -0.5520  1.8983 -1.7379
10064SOL     OW35038   0.942   8.994   9.484 -0.0679 -0.3638  1.4356
10064SOL    HW135039   0.993   8.966   9.407 -2.5644 -1.5917  0.1805
10064SOL    HW235040   0.959   9.088   9.491  1.6954 -0.5920  0.5463
10065SOL     OW35041   3.983   0.639   9.437  0.3590 -0.0802 -0.1195
10065SOL    HW135042   3.950   0.640   9.347  0.0829  0.4585 -0.0152
10065SOL    HW235043   4.073   0.673   9.430  0.1709  0.4223 -0.1303
10066SOL     OW35044   8.902   7.211   9.360 -0.4618  0.2929 -0.5224
10066SOL    HW135045   8.996   7.195   9.356 -0.1228  1.4618  1.6484
10066SOL    HW235046   8.893   7.306   9.354 -1.4359  0.2375 -0.1485
10067SOL     OW35047   1.993   7.833   1.686 -0.1933  0.4632  0.3864
10067SOL    HW135048   1.940   7.819   1.607 -0.9475  1.7209  0.6510
10067SOL    HW235049   1.930   7.864   1.751  0.4208 -0.5799  1.5029
10068SOL     OW35050   0.503   8.469   1.527  0.1990  0.3876  0.2705
10068SOL    HW135051   0.506   8.538   1.461  1.9081  0.2438  0.1726
10068SOL    HW235052   0.415   8.433   1.521  0.4360  0.1179 -2.2234
10069SOL     OW35053   3.762   5.646   1.262  0.2088  0.2010  0.1104
10069SOL    HW135054   3.687   5.649   1.201  1.1368  1.1764 -0.9971
10069SOL    HW235055   3.756   5.559   1.302 -1.2501  0.0878 -0.3101
10070SOL     OW35056   1.037   7.534   0.806 -0.2703 -0.1600 -0.0588
10070SOL    HW135057   0.972   7.530   0.735  1.6286  0.0196 -1.8488
10070SOL    HW235058   0.988   7.570   0.880 -1.6625  2.2441 -2.0484
10071SOL     OW35059   5.227   8.172   0.581  0.4607  0.0941 -0.3581
10071SOL    HW135060   5.306   8.125   0.554 -0.2243 -0.8704 -0.7236
10071SOL    HW235061   5.156   8.109   0.567 -0.2385  0.5455  1.0566
10072SOL     OW35062   4.197   0.729   0.734  0.0099 -0.2681 -0.2041
10072SOL    HW135063   4.169   0.791   0.801  0.0451 -1.3146  0.7956
10072SOL    HW235064   4.220   0.650   0.783  1.6685 -0.4850 -1.2991
10073SOL     OW35065   3.388   6.591   0.774 -0.6341  0.4579 -0.5720
10073SOL    HW135066   3.372   6.679   0.740 -1.4539 -0.0970 -1.6849
10073SOL    HW235067   3.467   6.562   0.728 -0.7925  0.3347 -0.7684
10074SOL     OW35068   3.334   8.200   2.080 -0.6297  0.4281  0.5181
10074SOL    HW135069   3.282   8.269   2.039  0.8863  2.2476  1.5988
10074SOL    HW235070   3.294   8.118   2.049 -1.9241  1.7724 -1.4416
10075SOL     OW35071   2.016   9.285   9.789 -0.0951  0.5612  0.1008
10075SOL    HW135072   1.924   9.280   9.812  0.2581 -1.2486  1.2205
10075SOL    HW235073   2.024   9.366   9.738 -1.9205  1.7830  1.6852
10076SOL     OW35074   2.565   7.371   9.211  1.0513  0.1799  0.1131
10076SOL    HW135075   2.638   7.372   9.148  2.0162  0.5109  1.2136
10076SOL    HW235076   2.492   7.334   9.162  1.5454  1.2393 -1.4821
10077SOL     OW35077   2.782   9.370   1.348  0.3012  0.2464 -0.1867
10077SOL    HW135078   2.836   9.413   1.282  1.9265  1.0519  1.6121
10077SOL    HW235079   2.724   9.313   1.298  2.1180  0.1248 -2.2596
10078SOL     OW35080   3.786   8.430   1.361  0.6323 -0.6480 -0.5267
10078SOL    HW135081   3.693   8.429   1.339  0.5337 -0.2522 -0.1368
10078SOL    HW235082   3.827   8.481   1.290  0.1686  1.5380  0.7277
10079SOL     OW35083   3.213   8.121   1.348  0.2522  0.1612 -0.7358
10079SOL    HW135084   3.295   8.109   1.301  0.2997 -0.8629 -0.4144
10079SOL    HW235085   3.168   8.191   1.301  1.1725  0.5099 -1.0969
10080SOL     OW35086   3.909   9.964   1.605 -1.1196 -0.0555 -0.4734
10080SOL    HW135087   3.986  10.000   1.560 -0.0032 -2.3841 -0.4634
10080SOL    HW235088   3.944   9.925   1.685 -2.3905 -0.7309 -0.2403
10081SOL     OW35089   2.735   7.517   9.924 -0.1448 -0.1994  0.4480
10081SOL    HW135090   2.787   7.553   9.853  0.6284 -0.4876  0.8651
10081SOL    HW235091   2.644   7.534   9.898  0.1547  0.4235 -0.2112
10082SOL     OW35092   2.851   7.705   1.212 -0.1542  0.4255 -0.0111
10082SOL    HW135093   2.837   7.783   1.158  0.1289  2.1383  2.3315
10082SOL    HW235094   2.946   7.697   1.219 -0.1962  0.5674  0.7386
10083SOL     OW35095   1.727   7.594   0.877  0.0205 -0.2652 -0.1794
10083SOL    HW135096   1.813   7.552   0.871  0.3112  0.4890 -1.5127
10083SOL    HW235097   1.670   7.539   0.823  0.4064  1.0140 -1.9412
10084SOL     OW35098   2.330   6.959   1.531  0.0234  0.6441  0.2570
10084SOL    HW135099   2.343   6.909   1.611 -1.2617 -0.8904 -0.4536
10084SOL    HW235100   2.273   7.032   1.556  1.4934  1.4947  1.1931
10085SOL     OW35101   1.201   7.165   0.897 -0.5700 -0.3158  0.3150
10085SOL    HW135102   1.175   7.182   0.988 -2.1067 -0.6460 -0.0499
10085SOL    HW235103   1.187   7.249   0.853 -0.6677 -0.3952  0.1952
10086SOL     OW35104   3.369   0.040   8.688  0.2045 -0.4295  0.4571
10086SOL    HW135105   3.285   0.049   8.642  0.2453 -1.2504  0.2159
10086SOL    HW235106   3.396   0.130   8.704 -0.2310 -0.1370 -0.3690
10087SOL     OW35107   3.856   0.873   1.536 -0.0406  0.0626 -0.1196
10087SOL    HW135108   3.887   0.924   1.462 -1.0394  0.1926 -0.4653
10087SOL    HW235109   3.825   0.791   1.497 -0.1071 -0.0743  0.2150
10088SOL     OW35110   3.125   7.603   1.364  0.0922  0.1824 -0.3520
10088SOL    HW135111   3.154   7.686   1.325 -1.4061  1.4857  1.2335
10088SOL    HW235112   3.073   7.629   1.440 -0.7412 -2.2125 -0.0569
10089SOL     OW35113   2.918   8.701   9.773 -0.1757 -0.0838 -0.4527
10089SOL    HW135114   2.921   8.608   9.748 -1.6312 -0.4954  0.8099
10089SOL    HW235115   2.886   8.745   9.694 -3.0106 -1.1494  0.0211
10090SOL     OW35116   1.603   8.341   1.646 -0.1351  0.2771 -0.4716
10090SOL    HW135117   1.568   8.291   1.720 -1.1841  1.6236 -0.0473
10090SOL    HW235118   1.625   8.274   1.581 -0.6072 -0.8083  0.4606
10091SOL     OW35119   3.422   8.128   1.188  0.1268  0.3687 -0.0507
10091SOL    HW135120   3.388   8.204   1.141 -0.1958 -0.3176 -0.9328
10091SOL    HW235121   3.438   8.062   1.120 -1.9983 -1.2496  0.9644
10092SOL     OW35122   3.401   8.403   9.993 -0.6206 -0.6805  0.2119
10092SOL    HW135123   3.440   8.318  10.015  1.4801  0.0693 -0.5300
10092SOL    HW235124   3.475   8.464   9.990 -2.2373  1.4393  1.8855
10093SOL     OW35125   1.579   8.185   1.929 -0.0834 -0.0195 -0.1835
10093SOL    HW135126   1.569   8.249   2.000 -1.6704  0.2088 -0.5924
10093SOL    HW235127   1.502   8.199   1.873 -0.9471 -2.9005  0.2040
10094SOL     OW35128   4.555   8.595   0.817 -0.1743 -0.4703  0.0081
10094SOL    HW135129   4.528   8.517   0.865  1.1382 -2.1524 -1.9073
10094SOL    HW235130   4.483   8.610   0.755  1.1725 -2.3445 -2.0844
10095SOL     OW35131   1.998   9.729   2.646 -0.1909  0.1918 -0.2535
10095SOL    HW135132   1.995   9.824   2.656 -0.2382  0.1171  0.4647
10095SOL    HW235133   2.087   9.711   2.616 -0.7627  0.6312 -2.3129
10096SOL     OW35134   3.114   9.064   0.998 -0.0497  0.0695 -0.1212
10096SOL    HW135135   3.050   9.026   1.058 -0.3155 -0.4912 -0.7543
10096SOL    HW235136   3.196   9.064   1.048 -0.9537  2.8350  1.5080
10097SOL     OW35137   4.861   7.148   1.713  0.1678 -0.1205  0.1877
10097SOL    HW135138   4.895   7.119   1.797 -0.7209 -0.7437  0.3477
10097SOL    HW235139   4.824   7.234   1.730 -3.0076 -1.6148  1.2411
10098SOL     OW35140   1.404   6.527   1.275  0.8624 -0.1461 -0.0154
10098SOL    HW135141   1.483   6.474   1.278  0.8957 -0.0591  0.7995
10098SOL    HW235142   1.338   6.471   1.235  0.6125 -1.1839  1.8139
10099SOL     OW35143   3.230   7.814   0.230 -0.2690  0.2201 -0.1081
10099SOL    HW135144   3.272   7.890   0.270 -1.2157  0.3568  0.6396
10099SOL    HW235145   3.195   7.765   0.304  2.4142 -2.2239 -0.3692
10100SOL     OW35146   2.303   9.490   9.213 -0.2280  0.8239  0.7638
10100SOL    HW135147   2.375   9.436   9.247 -0.1924 -0.1702 -0.8175
10100SOL    HW235148   2.233   9.427   9.196 -0.1538  1.2506 -1.1903
10101SOL     OW35149   3.545   8.763   1.907  0.9308 -0.7173 -0.1454
10101SOL    HW135150   3.590   8.703   1.846  0.2052  0.9120 -2.3458
10101SOL    HW235151   3.525   8.840   1.854 -0.6359  0.3465  1.9363
10102SOL     OW35152   2.981   9.243   1.585  0.0990  0.1306  0.5884
10102SOL    HW135153   3.003   9.245   1.678 -0.2323  0.2548  0.6678
10102SOL    HW235154   2.886   9.226   1.584  0.2262 -0.5863  0.2579
10103SOL     OW35155   3.052   7.812   9.963  0.6320  0.6492  0.0473
10103SOL    HW135156   3.023   7.766  10.041  0.8767  0.0533 -0.2081
10103SOL    HW235157   2.994   7.888   9.956  0.3617  0.4907  0.5889
10104SOL     OW35158   2.307   0.548   8.527  0.0428 -0.4744 -0.6248
10104SOL    HW135159   2.274   0.637   8.510 -1.8717 -1.1515 -0.5611
10104SOL    HW235160   2.399   0.561   8.551 -0.2781  1.5226 -0.3852
10105SOL     OW35161   2.859   8.974   0.313 -0.4642 -0.3318 -0.4199
10105SOL    HW135162   2.821   8.942   0.395  0.5857  1.0932  0.6478
10105SOL    HW235163   2.820   9.061   0.302 -0.3482 -0.3841 -1.2642
10106SOL     OW35164   2.923   8.708   1.544  0.2278  0.0729  0.3782
10106SOL    HW135165   2.984   8.718   1.471 -1.3702  0.5007 -0.9380
10106SOL    HW235166   2.845   8.669   1.504 -1.1331  1.4733  1.6394
10107SOL     OW35167   3.510   8.160   0.520 -0.5647  0.3191  0.5811
10107SOL    HW135168   3.453   8.195   0.588 -1.0135  1.0650 -0.1815
10107SOL    HW235169   3.548   8.081   0.559 -1.9444 -0.0623  1.1602
10108SOL     OW35170   3.528   5.611   1.122 -0.0172 -0.6553  0.5920
10108SOL    HW135171   3.467   5.681   1.102  0.1789 -1.4352 -3.0546
10108SOL    HW235172   3.492   5.533   1.079  2.2008 -1.7031  0.5337
10109SOL     OW35173   2.300   8.718   0.903  0.1453 -0.1296  0.1467
10109SOL    HW135174   2.292   8.689   0.994  0.0706 -0.4972  0.0249
10109SOL    HW235175   2.361   8.792   0.907 -1.0733  0.8640  0.6939
10110SOL     OW35176   0.772   8.381   0.238 -0.0972 -0.5285 -0.1826
10110SOL    HW135177   0.779   8.370   0.143  0.2385  0.0175 -0.2246
10110SOL    HW235178   0.813   8.466   0.255  0.9740 -1.1897  0.5949
10111SOL     OW35179   2.478   8.570   0.732  0.3207 -0.1654  0.2911
10111SOL    HW135180   2.443   8.481   0.724  1.2277 -0.3282 -2.0791
10111SOL    HW235181   2.402   8.622   0.759 -0.7855 -1.2434 -0.6584
10112SOL     OW35182   3.665   8.141   2.591 -0.1596 -0.5473  0.4915
10112SOL    HW135183   3.654   8.210   2.525  1.0623 -0.4709  0.3495
10112SOL    HW235184   3.759   8.122   2.590 -0.3430 -1.5210  1.2330
10113SOL     OW35185   1.443   8.772   1.277 -0.1458 -0.0555 -0.1642
10113SOL    HW135186   1.514   8.726   1.232  0.3438  0.7561 -0.2242
10113SOL    HW235187   1.387   8.806   1.207  1.8541  3.1927 -0.2714
10114SOL     OW35188   3.846   8.506   1.094 -0.3989 -0.6218  0.4952
10114SOL    HW135189   3.872   8.565   1.023 -2.7645 -0.0767  0.0501
10114SOL    HW235190   3.902   8.429   1.083 -0.0348 -0.1063 -1.3304
10115SOL     OW35191   2.885   6.819   1.080 -0.2446 -0.3606  0.0049
10115SOL    HW135192   2.970   6.811   1.121 -0.7530 -0.7684  0.9860
10115SOL    HW235193   2.902   6.868   0.999  0.4434  2.2360  1.6454
10116SOL     OW35194   2.567   8.691   1.156 -0.0081  0.1622  0.8039
10116SOL    HW135195   2.487   8.639   1.145  0.7698 -0.9484  0.2566
10116SOL    HW235196   2.593   8.676   1.247 -0.5325  0.6997  1.0482
10117SOL     OW35197   2.851   0.119   0.915 -0.2280 -0.0492  0.3644
10117SOL    HW135198   2.810   0.133   1.000 -1.8586 -1.3181 -0.1880
10117SOL    HW235199   2.795   0.055   0.871  0.0935  1.2132 -1.9983
10118SOL     OW35200   2.307   7.584   1.985  0.2032 -0.4333 -0.4176
10118SOL    HW135201   2.295   7.489   1.995 -1.3078 -0.4197 -1.8365
10118SOL    HW235202   2.269   7.604   1.900  0.8793  1.4014 -0.3116
10119SOL     OW35203   1.552   8.822   0.212  0.3477 -0.3484 -0.3571
10119SOL    HW135204   1.642   8.790   0.218  1.1627  1.9283 -0.0609
10119SOL    HW235205   1.547   8.862   0.125 -0.2522 -0.1008 -0.2085
10120SOL     OW35206   2.678   8.751   9.900  0.8020  0.1372 -0.3722
10120SOL    HW135207   2.615   8.733   9.830  1.4855  2.7688 -1.7085
10120SOL    HW235208   2.761   8.715   9.868  0.1563 -3.0010  1.2322
10121SOL     OW35209   3.228   9.375   0.548 -0.4958  0.5281 -0.2405
10121SOL    HW135210   3.185   9.297   0.514  0.7685  0.0470 -0.7483
10121SOL    HW235211   3.191   9.387   0.636 -0.8602 -0.4922 -0.2536
10122SOL     OW35212   2.906   6.914   2.656  0.1193  0.0802  0.7715
10122SOL    HW135213   2.856   6.948   2.582  0.0125  1.6460  1.5447
10122SOL    HW235214   2.925   6.823   2.633 -0.1773  0.4672 -1.0327
10123SOL     OW35215   1.764   8.957   1.324  0.4347  0.2479  0.2896
10123SOL    HW135216   1.804   9.036   1.361 -0.1381 -0.3418  2.2413
10123SOL    HW235217   1.701   8.928   1.391  0.7445 -1.9517 -0.3239
10124SOL     OW35218   2.790   9.749   2.065  0.2264 -0.2582 -0.5940
10124SOL    HW135219   2.742   9.697   2.001  1.0387  0.0482 -1.4838
10124SOL    HW235220   2.857   9.690   2.099  0.1462 -0.2600 -0.4402
10125SOL     OW35221   1.851   0.741   9.070  0.5894 -0.2155  0.7073
10125SOL    HW135222   1.920   0.790   9.114  1.3654 -0.3036 -0.4122
10125SOL    HW235223   1.815   0.802   9.006  1.8593 -1.2153 -1.0046
10126SOL     OW35224   3.167   8.037   0.523  0.2917 -0.6031  0.4072
10126SOL    HW135225   3.073   8.037   0.507  0.3904 -1.1324 -0.1977
10126SOL    HW235226   3.187   8.126   0.554 -0.5197 -0.7014  1.2405
10127SOL     OW35227   4.518   7.298   8.951  0.3377 -0.5606  0.2063
10127SOL    HW135228   4.567   7.220   8.978  2.6127  0.0262 -2.0222
10127SOL    HW235229   4.527   7.358   9.026 -1.7818 -2.5186  2.1068
10128SOL     OW35230   2.954   8.295   0.276  0.4082  0.2967 -0.1431
10128SOL    HW135231   3.043   8.324   0.255  0.0816  1.4218 -0.0253
10128SOL    HW235232   2.906   8.376   0.292 -0.5776 -0.3193  0.0511
10129SOL     OW35233   1.297   8.084   3.175 -0.0995  0.5660  0.0322
10129SOL    HW135234   1.266   8.036   3.252 -0.4164 -0.9924 -1.0265
10129SOL    HW235235   1.264   8.173   3.187  0.8405  0.6613  2.2534
10130SOL     OW35236   3.061   8.167   1.028 -0.0809 -0.4308  0.9442
10130SOL    HW135237   2.997   8.218   0.978  2.0073  0.1030 -1.2728
10130SOL    HW235238   3.129   8.230   1.053  3.0658 -2.1870 -2.7234
10131SOL     OW35239   3.741   9.051   2.099  0.0639  0.5559  0.4969
10131SOL    HW135240   3.755   8.992   2.025 -0.9764  2.2128 -1.0515
10131SOL    HW235241   3.697   8.997   2.164 -0.6863 -0.4526 -0.8246
10132SOL     OW35242   2.907   8.437   9.719 -0.1765  0.1839 -0.4888
10132SOL    HW135243   2.959   8.425   9.639 -0.6300  0.8567 -0.8955
10132SOL    HW235244   2.862   8.354   9.732 -0.1547  0.0964 -0.9778
10133SOL     OW35245   3.900   9.288   2.060 -0.2306  0.4346 -0.0182
10133SOL    HW135246   3.978   9.249   2.099 -0.3880 -0.1690 -0.2958
10133SOL    HW235247   3.834   9.219   2.064 -0.3801  0.5167 -0.9231
10134SOL     OW35248   4.122   8.764   0.520  0.5063 -0.0064 -0.1807
10134SOL    HW135249   4.114   8.852   0.556 -1.2168  0.0851 -0.7362
10134SOL    HW235250   4.137   8.777   0.427 -1.0264 -0.2793 -0.4880
10135SOL     OW35251   2.303   8.488   1.719 -0.3966 -0.3909  0.4229
10135SOL    HW135252   2.256   8.462   1.639 -1.2551  0.7542  0.5498
10135SOL    HW235253   2.303   8.583   1.717  1.7935 -0.3614  0.5207
10136SOL     OW35254   3.050   7.992   9.418 -0.0518  0.6964 -0.1807
10136SOL    HW135255   3.116   7.922   9.423 -0.1585  0.7204  2.4488
10136SOL    HW235256   3.101   8.073   9.426 -0.2782  0.7440  0.9309
10137SOL     OW35257   1.926   9.718   0.404  0.1676 -0.1238  0.5859
10137SOL    HW135258   1.942   9.701   0.497 -0.5702  1.4239  0.9927
10137SOL    HW235259   2.011   9.701   0.362 -0.2024 -3.7533  1.0831
10138SOL     OW35260   4.112   9.041   0.639 -0.0083 -0.5919  0.4158
10138SOL    HW135261   4.111   9.074   0.550 -0.0652  0.4794  0.8115
10138SOL    HW235262   4.121   9.119   0.694 -0.8204 -1.1549  1.3769
10139SOL     OW35263   3.983   0.518   0.345  0.8703 -0.0323 -0.5472
10139SOL    HW135264   4.048   0.581   0.378 -0.7587  1.0567  0.6778
10139SOL    HW235265   3.991   0.523   0.250  1.7680  0.9653 -0.4313
10140SOL     OW35266   3.453   7.917   3.141  0.4510 -0.1185  0.3272
10140SOL    HW135267   3.416   7.983   3.200  3.1422  1.7002  0.1028
10140SOL    HW235268   3.437   7.951   3.053 -0.5651 -1.1255  0.1288
10141SOL     OW35269   1.843   8.420   1.352  0.5142  0.5193 -0.9239
10141SOL    HW135270   1.905   8.391   1.420  0.3819 -2.0535 -1.8889
10141SOL    HW235271   1.843   8.516   1.361 -0.3801  0.2325  3.4835
10142SOL     OW35272   1.372   8.473   0.645  0.1664 -0.0944 -0.1176
10142SOL    HW135273   1.283   8.485   0.677 -0.0331 -1.7012 -0.0035
10142SOL    HW235274   1.427   8.495   0.720 -0.1558  0.2370  0.0242
10143SOL     OW35275   2.168   8.270   2.133  0.2768  0.0983  0.4419
10143SOL    HW135276   2.243   8.324   2.110  2.1850 -1.5471  2.5116
10143SOL    HW235277   2.117   8.263   2.052  1.8902  1.9731 -0.7718
10144SOL     OW35278   1.029   9.805   9.708 -0.3228 -0.2369  0.2749
10144SOL    HW135279   0.984   9.880   9.748  1.6747  1.6288 -0.8133
10144SOL    HW235280   1.105   9.844   9.664  1.3942 -3.0691  0.6041
10145SOL     OW35281   6.064   8.729   0.785  0.4413  0.6388  0.8174
10145SOL    HW135282   6.108   8.687   0.859  2.0287 -0.9453 -0.9520
10145SOL    HW235283   6.047   8.818   0.814  5.0658  1.3935  1.5959
10146SOL     OW35284   1.644   8.682   0.616  0.4711 -0.7309  0.5988
10146SOL    HW135285   1.616   8.619   0.682  0.1870 -0.5210  0.6794
10146SOL    HW235286   1.566   8.694   0.561  0.1489  0.4657  1.2945
10147SOL     OW35287   2.086   9.726   0.621 -0.5899 -0.3257 -0.1408
10147SOL    HW135288   2.155   9.728   0.554 -1.6951 -0.2304 -1.2903
10147SOL    HW235289   2.092   9.812   0.664 -0.7010  0.1076 -0.9792
10148SOL     OW35290   2.946   7.427   3.236 -0.3114 -0.7071 -0.4535
10148SOL    HW135291   2.965   7.392   3.323 -1.9542  0.1090  0.2457
10148SOL    HW235292   2.887   7.500   3.252  0.7807  0.5740 -2.1335
10149SOL     OW35293   1.287   8.853   9.588 -0.2595  0.2033  0.4325
10149SOL    HW135294   1.223   8.893   9.647  1.5983 -1.3109  3.5828
10149SOL    HW235295   1.322   8.926   9.537 -1.9343  1.5369  1.1539
10150SOL     OW35296   3.601   7.997   0.722 -0.4846 -0.2063 -0.1386
10150SOL    HW135297   3.571   8.017   0.811 -0.4262 -3.4031  0.6329
10150SOL    HW235298   3.580   7.905   0.709  0.7121 -0.1291 -2.9828
10151SOL     OW35299   1.825   8.005   0.713 -0.0008  0.0680 -0.4850
10151SOL    HW135300   1.863   7.983   0.629 -1.2868  0.2125 -1.1199
10151SOL    HW235301   1.853   8.095   0.730  0.8774 -0.2220 -0.4008
10152SOL     OW35302   2.900   8.085   0.447  0.0406 -0.0856  0.1509
10152SOL    HW135303   2.922   8.163   0.396  2.4459  0.0760  1.3562
10152SOL    HW235304   2.807   8.095   0.467 -0.3623  1.0146 -2.1562
10153SOL     OW35305   3.393   9.167   1.130 -0.2905  0.1588 -0.4687
10153SOL    HW135306   3.330   9.214   1.184 -0.5531  0.6985 -1.2326
10153SOL    HW235307   3.398   9.218   1.049 -1.1654 -1.5271 -1.6100
10154SOL     OW35308   3.345   6.052   1.851  0.0373 -0.7521  0.2575
10154SOL    HW135309   3.393   6.130   1.879 -1.5508  0.1332  0.5808
10154SOL    HW235310   3.358   6.049   1.756  0.7499 -0.5345  0.3453
10155SOL     OW35311   9.756   7.944   0.550  0.4097  0.1625  0.5712
10155SOL    HW135312   9.798   7.899   0.477 -2.4557 -1.0094 -0.4196
10155SOL    HW235313   9.757   7.880   0.621 -0.3608 -0.1489  0.3070
10156SOL     OW35314   2.868   0.115   9.511 -0.0971 -0.3342  0.1306
10156SOL    HW135315   2.956   0.150   9.496 -0.1193 -0.5920 -0.6331
10156SOL    HW235316   2.856   0.120   9.606  0.1023  1.2574  0.0905
10157SOL     OW35317   3.425   9.038   9.908  0.4449  0.3716  0.0495
10157SOL    HW135318   3.389   8.974   9.848 -0.4940  0.7280  0.2190
10157SOL    HW235319   3.372   9.029   9.988  3.1619 -1.7412  1.7232
10158SOL     OW35320   3.135   8.974   0.619 -0.1693  0.0706 -0.3306
10158SOL    HW135321   3.082   8.902   0.653 -0.0743  0.1767  0.0518
10158SOL    HW235322   3.132   9.040   0.689 -1.6309  1.1268 -1.3777
10159SOL     OW35323   3.129   9.169   9.709 -1.0862  0.5021 -0.6031
10159SOL    HW135324   3.064   9.237   9.693 -1.5649  1.0244  3.0368
10159SOL    HW235325   3.080   9.097   9.750  0.0454 -0.4924 -0.9501
10160SOL     OW35326   4.502   9.195   1.271 -0.6640  0.2934  0.4318
10160SOL    HW135327   4.462   9.242   1.344 -1.2968  1.1717 -0.4596
10160SOL    HW235328   4.443   9.122   1.253 -1.0897  0.7267  0.0743
10161SOL     OW35329   2.484   8.807   0.085  0.6532 -0.2483  0.9167
10161SOL    HW135330   2.543   8.811   0.010 -0.0662  0.1858  0.3670
10161SOL    HW235331   2.524   8.863   0.151  0.8159  0.0896  0.5274
10162SOL     OW35332   1.305   9.620   9.989 -0.2965 -0.1629  0.1257
10162SOL    HW135333   1.228   9.629  10.045 -0.1716  0.5393  0.1914
10162SOL    HW235334   1.364   9.689  10.018 -0.1574  0.0966 -0.7522
10163SOL     OW35335   3.528   8.459   0.658  1.0746  0.4028  0.4220
10163SOL    HW135336   3.583   8.428   0.586 -0.3779 -0.1898 -0.4554
10163SOL    HW235337   3.573   8.430   0.737  1.2466 -1.3983 -0.3245
10164SOL     OW35338   3.948   6.799   9.126 -0.5478  0.1403 -0.8035
10164SOL    HW135339   3.979   6.717   9.087 -1.8495  0.2501 -2.0850
10164SOL    HW235340   3.877   6.772   9.185 -0.8193  0.3234 -1.0483
10165SOL     OW35341   4.375   8.943   9.977  0.2368 -0.4424 -0.2519
10165SOL    HW135342   4.422   8.960   9.895  0.9973 -1.7400 -0.0997
10165SOL    HW235343   4.428   8.986  10.044  0.3638 -0.5591 -0.2763
10166SOL     OW35344   1.658   8.771   2.069  0.2281 -0.4146  0.4559
10166SOL    HW135345   1.681   8.741   1.982  2.3932  0.1350  0.8165
10166SOL    HW235346   1.642   8.865   2.060 -0.8588 -0.5879  0.4264
10167SOL     OW35347   2.160   7.078   0.083  0.1024 -0.5443 -0.9475
10167SOL    HW135348   2.117   7.160   0.057  0.9114 -0.0263 -0.6473
10167SOL    HW235349   2.178   7.035  -0.000  1.2773  0.3998 -1.1923
10168SOL     OW35350   2.651   8.286   1.157  0.2129  0.3150  0.2143
10168SOL    HW135351   2.735   8.323   1.184  0.6620 -2.4808  2.9713
10168SOL    HW235352   2.590   8.360   1.159  2.2752  2.0818 -0.3853
10169SOL     OW35353   2.314   6.864   9.905 -0.5375 -0.1681 -0.1076
10169SOL    HW135354   2.338   6.912   9.826 -2.9707  0.0612 -0.7307
10169SOL    HW235355   2.304   6.773   9.877  0.9628 -0.5213  0.4418
10170SOL     OW35356   1.300   7.467   1.045 -0.1787 -0.1060  0.4010
10170SOL    HW135357   1.351   7.548   1.051  0.1514 -0.1846 -1.1694
10170SOL    HW235358   1.214   7.489   1.080 -0.1571  0.9863 -0.2412
10171SOL     OW35359   4.428   0.352   8.209  0.0643 -0.3272 -0.3433
10171SOL    HW135360   4.411   0.366   8.302  0.7323  0.2222 -0.2942
10171SOL    HW235361   4.415   0.259   8.195 -2.9536  0.0448 -0.3230
10172SOL     OW35362   2.090   9.150   1.573 -0.0487  0.1671  0.0763
10172SOL    HW135363   2.128   9.084   1.515  2.0628  0.7770  0.7191
10172SOL    HW235364   2.142   9.144   1.653 -1.2060  1.1749  0.9184
10173SOL     OW35365   2.052   9.095   2.256 -0.6546 -0.2231  0.1586
10173SOL    HW135366   2.114   9.043   2.205 -1.3514 -1.9630  1.0453
10173SOL    HW235367   1.997   9.138   2.190  0.0568 -0.4562 -0.5938
10174SOL     OW35368   2.531   7.354   1.339 -0.1353  0.0440 -0.1784
10174SOL    HW135369   2.512   7.406   1.261  3.0621  1.6982  0.0751
10174SOL    HW235370   2.484   7.272   1.325 -2.5388  1.6564 -2.1622
10175SOL     OW35371   3.316   8.720   0.058  0.0649  0.6052  0.0659
10175SOL    HW135372   3.265   8.800   0.067  0.8152  1.2610 -1.4517
10175SOL    HW235373   3.401   8.749   0.025  0.2522 -0.8313 -0.7446
10176SOL     OW35374   2.734   8.734   2.557  0.1855 -0.5583 -0.1944
10176SOL    HW135375   2.704   8.773   2.475 -1.6510 -0.6757  0.4028
10176SOL    HW235376   2.658   8.738   2.615  0.7137 -2.7686  0.6883
10177SOL     OW35377   1.763   7.780   2.316 -0.1171  0.0057  0.2073
10177SOL    HW135378   1.698   7.759   2.249 -0.3628 -1.2869  0.8303
10177SOL    HW235379   1.715   7.832   2.381  0.1929  1.5051 -0.7517
10178SOL     OW35380   3.441   9.048   0.609 -0.0581  0.3025 -0.2571
10178SOL    HW135381   3.523   9.000   0.602 -0.2462  0.1775 -1.9743
10178SOL    HW235382   3.378   8.994   0.560 -0.5814  1.6097 -1.0369
10179SOL     OW35383   1.514   7.536   1.814  0.0983 -0.4700  0.2232
10179SOL    HW135384   1.506   7.520   1.908  0.5364  0.1853  0.3770
10179SOL    HW235385   1.585   7.600   1.807  2.6023 -3.2007 -0.7763
10180SOL     OW35386   1.962   8.819   1.556  0.0044 -0.3328 -0.3083
10180SOL    HW135387   2.016   8.791   1.630  1.6277  1.4852 -0.7749
10180SOL    HW235388   2.004   8.779   1.480 -0.1602 -0.0921 -0.5246
10181SOL     OW35389   3.635   7.659   3.488  0.5778 -0.6863 -0.3145
10181SOL    HW135390   3.588   7.689   3.410  1.4348 -2.3750 -1.5309
10181SOL    HW235391   3.640   7.735   3.545 -2.4719 -0.1308 -0.7186
10182SOL     OW35392   0.755   7.558   3.305  0.1989  0.1034  0.2070
10182SOL    HW135393   0.829   7.552   3.244 -0.2038  1.1381 -0.3917
10182SOL    HW235394   0.743   7.469   3.337  0.3661 -0.4650 -1.2906
10183SOL     OW35395   2.902   9.479   3.277  0.0141  0.1618 -0.0542
10183SOL    HW135396   2.846   9.556   3.275 -0.8261 -0.4552 -0.4582
10183SOL    HW235397   2.870   9.423   3.206  0.9478 -0.3259 -0.1004
10184SOL     OW35398   4.814   7.948   2.217  0.0533  0.0900 -0.0476
10184SOL    HW135399   4.905   7.924   2.233 -0.0699 -0.3052  0.0778
10184SOL    HW235400   4.818   8.031   2.169  0.5253 -0.7238 -1.4645
10185SOL     OW35401   4.136   7.719   1.551 -0.1198 -0.3731  0.4435
10185SOL    HW135402   4.199   7.684   1.487 -0.4241 -1.0767  0.5278
10185SOL    HW235403   4.130   7.652   1.618 -1.1023 -0.3861  0.3450
10186SOL     OW35404   3.569   7.644   2.459 -0.3815 -0.0041 -0.0910
10186SOL    HW135405   3.654   7.663   2.420 -0.9854 -0.3490 -1.6110
10186SOL    HW235406   3.531   7.729   2.477  0.5791  0.1482  1.2633
10187SOL     OW35407   2.867   7.937   3.039  0.1067 -0.7903  0.7416
10187SOL    HW135408   2.815   7.957   2.962  0.2283  2.1565  1.3586
10187SOL    HW235409   2.805   7.941   3.112  0.2351 -2.3711  0.9731
10188SOL     OW35410   3.370   8.329   2.650 -0.4430 -0.1719 -0.8510
10188SOL    HW135411   3.284   8.370   2.643  0.3006  1.0716 -3.2157
10188SOL    HW235412   3.374   8.267   2.578  0.3446 -0.7882 -0.2877
10189SOL     OW35413   1.878   9.453   3.958  0.1442  0.0848  0.1446
10189SOL    HW135414   1.959   9.472   3.911  1.6750  0.0091  2.6720
10189SOL    HW235415   1.841   9.539   3.978 -0.1863  0.1245 -0.6025
10190SOL     OW35416   3.765   6.482   4.517 -0.2738  0.5847  0.2351
10190SOL    HW135417   3.734   6.556   4.464 -2.8089  0.2737  1.1924
10190SOL    HW235418   3.825   6.435   4.460 -1.1453  1.5573 -1.5316
10191SOL     OW35419   4.241   8.551   3.057  0.4773 -0.3835  0.3143
10191SOL    HW135420   4.301   8.522   3.125  0.0064 -2.5141 -0.1322
10191SOL    HW235421   4.154   8.532   3.092  0.1647  0.1291 -0.1660
10192SOL     OW35422   3.120   9.883   2.632 -0.2446 -0.0823  0.5729
10192SOL    HW135423   3.058   9.813   2.655  0.1609 -0.4242  0.6200
10192SOL    HW235424   3.112   9.891   2.537 -0.5008  0.0028  0.6007
10193SOL     OW35425   1.835   8.192   3.144 -0.2994  0.3195  0.0608
10193SOL    HW135426   1.836   8.135   3.221 -0.1939 -2.0195 -1.6273
10193SOL    HW235427   1.921   8.179   3.103 -0.3999  1.4337 -0.5224
10194SOL     OW35428   2.958   8.456   3.049 -0.4052 -0.2293  0.5295
10194SOL    HW135429   3.038   8.488   3.007 -0.2449 -1.5468 -0.2165
10194SOL    HW235430   2.918   8.400   2.983 -1.9121  0.3600  0.9399
10195SOL     OW35431   1.515   8.250   0.523 -0.8146  0.4577  0.8484
10195SOL    HW135432   1.452   8.322   0.527 -1.2722  0.1276 -0.3692
10195SOL    HW235433   1.464   8.175   0.493  0.1718  0.2017 -0.2216
10196SOL     OW35434   3.698   8.629   1.726  0.0287 -0.5580 -0.1783
10196SOL    HW135435   3.643   8.621   1.648  1.4241 -0.7481 -1.1470
10196SOL    HW235436   3.787   8.614   1.695  0.6334 -0.3260  1.3980
10197SOL     OW35437   2.316   7.975   2.179  0.2548  0.0575  0.2096
10197SOL    HW135438   2.405   7.982   2.213  0.0317 -0.7370  0.9917
10197SOL    HW235439   2.326   7.935   2.093  0.5387 -1.7416  1.0526
10198SOL     OW35440   3.153   9.343   3.263 -0.6418 -0.3775  0.1678
10198SOL    HW135441   3.126   9.294   3.186 -1.4212  0.7426 -0.2859
10198SOL    HW235442   3.234   9.387   3.235 -0.6681 -0.3457  0.1429
10199SOL     OW35443   4.076   8.038   3.554 -0.0336  0.4403  0.4713
10199SOL    HW135444   4.036   8.033   3.640 -0.2705  1.4010  0.4220
10199SOL    HW235445   4.088   8.132   3.538  1.2251  0.2200  0.0200
10200SOL     OW35446   3.170   9.998   1.556 -0.1837 -0.2711 -0.0200
10200SOL    HW135447   3.148  10.081   1.514 -0.4686 -0.4708 -0.2674
10200SOL    HW235448   3.086   9.964   1.587 -0.1747 -0.8273 -0.5895
10201SOL     OW35449   1.123   7.391   1.817  0.3789  0.2343 -0.3888
10201SOL    HW135450   1.198   7.448   1.804  1.3254 -0.7852  0.5176
10201SOL    HW235451   1.089   7.376   1.729  0.9267  1.1033 -0.7574
10202SOL     OW35452   3.740   8.345   2.816  0.0264  0.1698 -0.4782
10202SOL    HW135453   3.682   8.288   2.766  1.1477  0.5082 -2.2183
10202SOL    HW235454   3.801   8.286   2.859 -0.1829 -0.0583 -0.4940
10203SOL     OW35455   3.458   9.226   2.521 -0.5339 -0.9506 -0.1442
10203SOL    HW135456   3.473   9.171   2.444 -0.2389  0.4479 -1.0978
10203SOL    HW235457   3.535   9.282   2.526 -0.9004 -0.5197  0.7497
10204SOL     OW35458   4.059   0.002   3.283 -0.1185  0.7826  0.4670
10204SOL    HW135459   4.065   0.033   3.374 -1.0424  2.4400 -0.0177
10204SOL    HW235460   3.975   0.037   3.252 -0.3521 -0.7596 -0.6730
10205SOL     OW35461   4.143   8.364   2.309 -0.2938 -0.3136 -0.1656
10205SOL    HW135462   4.056   8.323   2.315 -0.3854  0.0010  0.7262
10205SOL    HW235463   4.204   8.290   2.313 -0.5534 -0.8809 -4.3348
10206SOL     OW35464   2.782   7.902   3.654 -0.2067 -0.5086 -0.0079
10206SOL    HW135465   2.714   7.893   3.721  0.0839  1.7275  0.6478
10206SOL    HW235466   2.862   7.917   3.705 -0.2164  2.6843 -0.8128
10207SOL     OW35467   0.270   7.748   2.270  0.2112  0.2771 -0.1269
10207SOL    HW135468   0.252   7.811   2.200 -1.3254  1.6809  1.4915
10207SOL    HW235469   0.205   7.679   2.258 -1.2723  1.4507  1.0123
10208SOL     OW35470   4.020   9.091   0.937  0.3240 -0.4212 -0.0097
10208SOL    HW135471   3.977   9.101   1.022  1.4045 -0.6621  0.5762
10208SOL    HW235472   3.968   9.026   0.891 -0.5948  0.1251  0.2506
10209SOL     OW35473   3.882   8.157   4.584  0.3693  0.3059 -0.4454
10209SOL    HW135474   3.975   8.132   4.587  0.3736  0.4586  0.6885
10209SOL    HW235475   3.882   8.239   4.533  0.8282  0.1881 -0.6428
10210SOL     OW35476   2.759   7.288   3.822 -0.2693  0.5769 -0.1130
10210SOL    HW135477   2.693   7.357   3.811  0.3609  1.2913  0.4726
10210SOL    HW235478   2.826   7.329   3.877  0.6785 -0.1306 -0.7384
10211SOL     OW35479   5.064   8.765   3.325  0.2712 -0.5731 -0.0722
10211SOL    HW135480   5.036   8.848   3.365 -1.4023 -0.6151 -1.0951
10211SOL    HW235481   5.033   8.698   3.385 -0.4266 -0.5524 -0.4080
10212SOL     OW35482   4.714   9.783   2.232  0.6692  0.0462 -0.0646
10212SOL    HW135483   4.718   9.713   2.166 -1.6524  0.3658 -0.5942
10212SOL    HW235484   4.799   9.826   2.227  0.8900 -0.5867 -2.1491
10213SOL     OW35485   5.205   7.905   3.541 -0.6518  0.0006  0.1492
10213SOL    HW135486   5.208   7.946   3.627 -1.9031 -0.2808  0.3375
10213SOL    HW235487   5.155   7.824   3.554 -0.4686 -0.2643 -0.7399
10214SOL     OW35488   1.087   8.459   3.572 -0.1677 -0.2298  0.9503
10214SOL    HW135489   1.033   8.395   3.619 -2.6879 -0.1252 -1.6450
10214SOL    HW235490   1.105   8.418   3.487 -0.0007  1.5778  0.0818
10215SOL     OW35491   3.825   0.361   9.801 -0.2379 -0.3291  0.0372
10215SOL    HW135492   3.822   0.411   9.720 -0.8214 -0.4807 -0.0329
10215SOL    HW235493   3.751   0.393   9.853  0.7593  0.5257  0.9527
10216SOL     OW35494   2.286   6.287   3.202 -0.2996 -0.1580 -0.4230
10216SOL    HW135495   2.209   6.283   3.260 -0.0437 -0.6176 -0.1042
10216SOL    HW235496   2.273   6.366   3.150 -1.9406 -1.2500 -1.7120
10217SOL     OW35497   4.928   6.200   1.952  0.6692 -0.2512 -0.1618
10217SOL    HW135498   4.999   6.136   1.945  2.9604  2.1973 -0.1881
10217SOL    HW235499   4.953   6.271   1.892 -2.2284  0.3019 -0.8063
10218SOL     OW35500   2.005   7.290   2.566 -0.1731 -0.3074 -0.1089
10218SOL    HW135501   1.998   7.301   2.661 -0.9761  0.1114 -0.2105
10218SOL    HW235502   1.980   7.199   2.550  0.4601 -0.5224  0.1320
10219SOL     OW35503   2.014   7.569   2.591 -0.3571 -0.4040 -0.1927
10219SOL    HW135504   2.037   7.477   2.574  2.3436  0.6778 -2.7676
10219SOL    HW235505   1.939   7.586   2.534 -0.9922 -1.0539  0.4408
10220SOL     OW35506   3.451   0.316   3.252 -0.2844 -0.4940 -0.1622
10220SOL    HW135507   3.444   0.403   3.214  0.7388  0.3779  1.5790
10220SOL    HW235508   3.450   0.257   3.177  0.2967  1.0851 -1.4393
10221SOL     OW35509   1.698   9.293   2.868  0.2239 -0.2086  0.2406
10221SOL    HW135510   1.732   9.249   2.946 -0.4304 -2.5617 -0.7504
10221SOL    HW235511   1.773   9.342   2.834  0.2485  1.6504  2.8606
10222SOL     OW35512   1.294   9.672   4.510 -0.0062 -0.1096  0.4076
10222SOL    HW135513   1.280   9.621   4.590  0.4403 -0.1491  0.4611
10222SOL    HW235514   1.326   9.757   4.542  0.9656 -0.4129  0.2215
10223SOL     OW35515   1.180   8.724   1.547 -0.1776 -0.1970  0.2158
10223SOL    HW135516   1.174   8.811   1.509  1.1981  0.0605  0.5717
10223SOL    HW235517   1.166   8.737   1.641 -0.1997 -0.3950  0.2416
10224SOL     OW35518   4.082   9.144   2.194 -0.7070 -0.1400  0.2644
10224SOL    HW135519   4.147   9.162   2.126 -1.2377 -0.5626 -0.3527
10224SOL    HW235520   4.087   9.050   2.210 -0.2767  0.0191  1.1309
10225SOL     OW35521   1.942   9.945   2.445 -0.7886 -0.5200 -0.7615
10225SOL    HW135522   2.035   9.935   2.423 -0.7454 -0.5845 -0.5556
10225SOL    HW235523   1.902   9.863   2.418 -0.3709 -1.4367  1.2507
10226SOL     OW35524   1.175   0.355   4.861 -0.4215 -0.0304 -0.2103
10226SOL    HW135525   1.158   0.337   4.953 -1.9551  1.8467 -0.0727
10226SOL    HW235526   1.088   0.373   4.824  0.4378  2.0205 -1.3495
10227SOL     OW35527   4.157   8.042   2.956 -0.0991  0.4027  0.3254
10227SOL    HW135528   4.162   8.001   3.043 -1.7170  1.1854  0.7996
10227SOL    HW235529   4.227   8.107   2.957  1.8984 -1.6672 -0.0997
10228SOL     OW35530   3.266   9.709   2.462 -0.0674 -0.0004 -0.4359
10228SOL    HW135531   3.283   9.740   2.551 -1.9901  0.8247 -0.3332
10228SOL    HW235532   3.277   9.614   2.468  1.7312  0.2409  0.2181
10229SOL     OW35533   2.585   8.146   1.685  0.0025  0.0101 -0.0529
10229SOL    HW135534   2.574   8.225   1.633  0.5154  0.2474  0.2044
10229SOL    HW235535   2.528   8.159   1.761  0.5184  0.3688  0.2681
10230SOL     OW35536   4.960   9.908   2.167  0.2070 -0.1106 -0.5943
10230SOL    HW135537   4.986   9.980   2.224 -3.3337  1.0190 -0.3096
10230SOL    HW235538   4.917   9.950   2.093  1.4656 -1.7576 -2.2970
10231SOL     OW35539   0.717   9.333   3.577  0.0235  0.0397  0.2020
10231SOL    HW135540   0.800   9.288   3.567 -0.3416 -0.6072  0.0530
10231SOL    HW235541   0.736   9.425   3.556  1.0758  0.2247  1.9174
10232SOL     OW35542   2.918   1.035   1.433 -0.0051 -0.1342 -0.5002
10232SOL    HW135543   2.857   0.962   1.433  0.7633 -0.7904  0.3385
10232SOL    HW235544   2.979   1.016   1.505 -1.2315  2.5336  1.3334
10233SOL     OW35545   2.058   8.935   2.838  0.1139 -0.5541  0.5828
10233SOL    HW135546   1.983   8.984   2.871  0.4020 -0.8016  1.6091
10233SOL    HW235547   2.123   8.939   2.908  0.4517 -1.7019  0.3525
10234SOL     OW35548   3.107   9.214   3.040  0.2335 -0.4870  0.5606
10234SOL    HW135549   3.120   9.119   3.049 -4.6342 -1.1802  1.7344
10234SOL    HW235550   3.069   9.225   2.953 -0.2158  0.2371  0.8434
10235SOL     OW35551   2.574   9.626   3.037  0.4259 -0.3548 -0.2491
10235SOL    HW135552   2.545   9.612   2.947  0.0706  0.0037 -0.1924
10235SOL    HW235553   2.656   9.675   3.029 -0.3136  0.8801 -0.3435
10236SOL     OW35554   3.867   7.254   4.215  0.4822  0.2901 -0.2581
10236SOL    HW135555   3.802   7.258   4.285  0.1295  2.1556 -0.6534
10236SOL    HW235556   3.840   7.181   4.160 -1.6447  1.4142 -0.7532
10237SOL     OW35557   1.576   9.644   2.444 -0.2587  0.6068 -0.6025
10237SOL    HW135558   1.586   9.562   2.492  0.8710  0.2589 -1.4168
10237SOL    HW235559   1.526   9.620   2.366  0.8622  0.5186 -1.2932
10238SOL     OW35560   3.343   0.955   2.439  0.8536 -0.2768  0.1699
10238SOL    HW135561   3.287   0.969   2.515  0.5482 -1.6107  0.2124
10238SOL    HW235562   3.308   1.012   2.372  0.2554 -0.1352  0.6043
10239SOL     OW35563   2.616   9.046   2.858  0.2393  0.3308  0.0844
10239SOL    HW135564   2.708   9.034   2.881 -0.0754 -0.9970  0.7539
10239SOL    HW235565   2.607   9.139   2.840  1.5610  0.5953  0.7232
10240SOL     OW35566   2.867   9.831   3.022  0.4762  0.9907 -0.2767
10240SOL    HW135567   2.875   9.924   3.002  2.0349  1.1113  0.7825
10240SOL    HW235568   2.926   9.788   2.960 -0.0302  0.7332 -0.5816
10241SOL     OW35569   3.618   9.094   3.097  0.4481  0.2247 -0.0397
10241SOL    HW135570   3.561   9.065   3.167  0.0587 -1.0159 -0.8623
10241SOL    HW235571   3.568   9.162   3.051  0.1825  0.1139  0.0859
10242SOL     OW35572   1.460   6.771   4.117  0.1296  0.1519  0.2267
10242SOL    HW135573   1.488   6.862   4.128  2.5129 -0.5345  0.2420
10242SOL    HW235574   1.494   6.726   4.194 -1.6952 -0.6165  0.5951
10243SOL     OW35575   3.092   0.088   3.018  0.6616 -0.6167  0.0754
10243SOL    HW135576   3.077   0.168   3.068  0.0957 -0.9066  0.3692
10243SOL    HW235577   3.087   0.116   2.927 -0.6425 -0.5218  0.1713
10244SOL     OW35578   3.776   7.819   2.845 -0.1101 -0.0919  0.4095
10244SOL    HW135579   3.849   7.760   2.828  1.6447  1.6771  1.6391
10244SOL    HW235580   3.755   7.805   2.938  1.1193  2.0800  1.0269
10245SOL     OW35581   1.842   6.706   3.419 -0.5654  0.0724  0.1267
10245SOL    HW135582   1.930   6.697   3.382 -0.8977  1.2374 -0.9616
10245SOL    HW235583   1.821   6.619   3.453  0.5516 -0.4911 -0.6135
10246SOL     OW35584   3.501   8.686   3.489 -0.0316 -0.4369 -0.2534
10246SOL    HW135585   3.580   8.686   3.435 -1.3019  2.1708 -2.2332
10246SOL    HW235586   3.518   8.752   3.556  0.2012 -1.2188  0.4583
10247SOL     OW35587   2.781   9.977   2.304  0.4191  0.8621  0.1475
10247SOL    HW135588   2.796  10.063   2.264  2.4721  0.0418 -0.9005
10247SOL    HW235589   2.727   9.930   2.240  0.9852  0.6825 -0.2038
10248SOL     OW35590   3.898   7.521   2.749  0.4453 -0.0067  0.1340
10248SOL    HW135591   3.876   7.459   2.819  0.4643 -2.1204 -1.7037
10248SOL    HW235592   3.819   7.525   2.695  1.1652 -0.0418 -0.9340
10249SOL     OW35593   0.955   6.681   0.764 -0.0530  0.3189 -0.0359
10249SOL    HW135594   0.867   6.709   0.741 -0.2629 -0.8884 -0.7845
10249SOL    HW235595   0.943   6.596   0.807  0.6456  0.7824  1.1176
10250SOL     OW35596   4.199   7.415   2.928 -0.3613 -0.2349  0.2382
10250SOL    HW135597   4.284   7.444   2.897 -0.9359 -0.2184 -1.3801
10250SOL    HW235598   4.176   7.477   2.998  1.2037 -0.6181  1.1168
10251SOL     OW35599   3.650   0.676   2.057 -0.2301 -0.5632 -0.3360
10251SOL    HW135600   3.675   0.640   1.972 -0.3913 -0.1338 -0.5704
10251SOL    HW235601   3.592   0.749   2.036 -1.0613 -1.0665  0.1749
10252SOL     OW35602   2.360   6.928   9.650  0.1957  0.8216 -0.1786
10252SOL    HW135603   2.334   6.847   9.608  1.2084  0.5875 -0.3650
10252SOL    HW235604   2.442   6.953   9.607  2.2038 -0.3641  2.8129
10253SOL     OW35605   4.673   7.256   2.414 -0.3606  0.7820  0.4834
10253SOL    HW135606   4.733   7.291   2.480  0.5849  1.1763 -0.5666
10253SOL    HW235607   4.693   7.162   2.411  0.5487  0.9886 -0.1955
10254SOL     OW35608   0.817   5.340   4.032  0.2352 -0.5559  0.0612
10254SOL    HW135609   0.755   5.406   4.065  1.8499  0.6017  0.8108
10254SOL    HW235610   0.795   5.260   4.080 -2.1745 -0.7809 -1.3196
10255SOL     OW35611   2.100   7.574   2.177  0.3079  0.2096  0.1643
10255SOL    HW135612   2.140   7.601   2.260  1.4178 -1.7936  0.2951
10255SOL    HW235613   2.170   7.582   2.113 -0.3490  1.0387 -0.4594
10256SOL     OW35614   3.257   6.898   1.680 -0.1159 -0.8129  0.3078
10256SOL    HW135615   3.271   6.984   1.640 -1.1913 -0.5666  0.4501
10256SOL    HW235616   3.339   6.850   1.663  0.5432  0.2867  0.3743
10257SOL     OW35617   3.577   8.119   2.269 -0.4195  0.0971  0.1526
10257SOL    HW135618   3.503   8.122   2.209 -0.1625 -0.6447 -0.2089
10257SOL    HW235619   3.555   8.182   2.338 -0.1819  1.8395 -1.3179
10258SOL     OW35620   5.159   6.159   2.637  0.3566  0.4128 -0.7215
10258SOL    HW135621   5.228   6.151   2.703 -0.2440 -1.0684 -0.2604
10258SOL    HW235622   5.125   6.070   2.626 -3.4447  1.5330  1.1841
10259SOL     OW35623   2.482   7.659   1.160 -0.1726 -0.0268  0.0883
10259SOL    HW135624   2.395   7.691   1.184 -0.2147  0.6720 -0.9490
10259SOL    HW235625   2.535   7.675   1.238 -0.3063  2.2054 -0.2289
10260SOL     OW35626   1.543   8.542   0.834  0.3128 -0.3927  0.0831
10260SOL    HW135627   1.511   8.625   0.869 -1.7826 -0.9640 -0.4128
10260SOL    HW235628   1.597   8.505   0.905 -0.2915  0.4950  1.0196
10261SOL     OW35629   5.296   9.347   2.482  0.0437 -0.1376  0.4002
10261SOL    HW135630   5.294   9.402   2.404  0.2832  0.9263  1.1354
10261SOL    HW235631   5.282   9.258   2.449  1.8885  0.0766 -1.0681
10262SOL     OW35632   1.789   7.815   1.468 -0.0811 -0.7802 -0.5679
10262SOL    HW135633   1.694   7.813   1.483 -0.1560  1.7271 -0.5196
10262SOL    HW235634   1.797   7.820   1.372 -0.0151 -0.6083 -0.5533
10263SOL     OW35635   1.986   6.871   1.527  0.1899 -0.0984  0.2382
10263SOL    HW135636   1.975   6.852   1.621 -0.7625  0.4030  0.2399
10263SOL    HW235637   1.909   6.830   1.486  1.0793 -1.1097 -0.4447
10264SOL     OW35638   1.415   0.304   1.779 -0.3040 -0.5031 -0.3104
10264SOL    HW135639   1.469   0.382   1.762 -2.7907  0.7196 -2.9458
10264SOL    HW235640   1.358   0.298   1.703 -0.7967 -4.4161  0.3021
10265SOL     OW35641   2.800   9.201   2.080 -0.1486 -0.4855  0.0328
10265SOL    HW135642   2.783   9.110   2.104 -0.5494 -0.2519  0.6377
10265SOL    HW235643   2.761   9.211   1.993  0.2081 -0.9858 -0.1836
10266SOL     OW35644   4.330   7.899   3.539  0.7089  0.1578 -0.3742
10266SOL    HW135645   4.244   7.941   3.539  0.4545 -0.3451  0.8491
10266SOL    HW235646   4.380   7.948   3.604  1.7960  1.3164 -2.0448
10267SOL     OW35647   2.022   7.878   2.910  0.0627  0.3642  0.7933
10267SOL    HW135648   1.941   7.879   2.962 -1.5416  0.8301 -1.6156
10267SOL    HW235649   2.035   7.786   2.888 -2.4771  0.7322 -2.6887
10268SOL     OW35650   4.047   9.420   2.716 -0.2974 -0.2951  0.1443
10268SOL    HW135651   3.976   9.442   2.777 -1.1446 -2.1647 -0.1549
10268SOL    HW235652   4.033   9.478   2.641 -0.5395  0.4812  0.7847
10269SOL     OW35653   3.373   6.079   3.945 -0.4375 -0.2172  0.3161
10269SOL    HW135654   3.397   6.147   4.008 -0.0565 -0.3875  0.3553
10269SOL    HW235655   3.386   6.121   3.859 -1.6705  0.2633  0.3419
10270SOL     OW35656   3.678   8.265   1.559 -0.6774  0.2324 -0.0965
10270SOL    HW135657   3.600   8.275   1.504  1.5555 -0.3463 -3.5093
10270SOL    HW235658   3.745   8.317   1.516  1.6194 -1.5831  1.1679
10271SOL     OW35659   2.282   9.137   2.442 -0.7365 -0.1995  0.2599
10271SOL    HW135660   2.196   9.129   2.399 -0.2260 -1.2620 -0.5885
10271SOL    HW235661   2.334   9.066   2.405  0.2414 -0.1156  1.4347
10272SOL     OW35662   1.688   8.076   4.878 -0.0393  0.7787 -0.5931
10272SOL    HW135663   1.711   8.162   4.911 -1.1086  2.0738 -3.0873
10272SOL    HW235664   1.738   8.067   4.796  0.1039 -0.9803 -0.3300
10273SOL     OW35665   1.242   7.264   3.588 -0.1474 -0.3217 -0.4455
10273SOL    HW135666   1.196   7.295   3.510 -0.0865 -1.8554 -1.0935
10273SOL    HW235667   1.228   7.334   3.653 -0.8259  0.6147 -1.5812
10274SOL     OW35668   1.531   9.973   3.517 -0.3663 -0.0041  0.0527
10274SOL    HW135669   1.459   9.909   3.509 -1.2591  0.8703  1.0250
10274SOL    HW235670   1.513  10.037   3.448 -0.3835  0.0868  0.1422
10275SOL     OW35671   1.316   8.562   3.714  0.0339  0.7346  0.6490
10275SOL    HW135672   1.224   8.540   3.730 -0.8651  0.9659 -3.6719
10275SOL    HW235673   1.359   8.477   3.704 -0.4259  0.6441 -0.7125
10276SOL     OW35674   3.006   9.039   3.318  0.2915  0.1526  0.5543
10276SOL    HW135675   3.068   8.980   3.274  0.3865 -0.4386  1.4594
10276SOL    HW235676   3.058   9.117   3.339  0.3178  0.3201 -0.1118
10277SOL     OW35677   3.660   8.449   4.668 -0.1973  0.2640 -0.0708
10277SOL    HW135678   3.718   8.484   4.601 -0.1303 -0.1240 -0.2197
10277SOL    HW235679   3.706   8.465   4.750  0.0361  0.1247 -0.1734
10278SOL     OW35680   4.116   7.920   2.338 -0.4764 -0.1202 -0.3645
10278SOL    HW135681   4.096   7.932   2.431  0.4694 -1.5741  0.0343
10278SOL    HW235682   4.080   7.998   2.296 -1.4106  0.2807  1.1468
10279SOL     OW35683   3.177   8.938   2.942  0.4608  0.1374 -0.4918
10279SOL    HW135684   3.219   8.995   2.878 -0.0014  1.0607  0.0283
10279SOL    HW235685   3.148   8.862   2.891  0.5862  0.6127 -1.2736
10280SOL     OW35686   2.177   7.938   3.454  0.0568  0.6675  0.2530
10280SOL    HW135687   2.265   7.900   3.447  0.3427  1.2853  0.4771
10280SOL    HW235688   2.146   7.941   3.363  0.7383  1.5357  0.0350
10281SOL     OW35689   3.658   8.578   2.614  0.0477  0.2229  0.3790
10281SOL    HW135690   3.728   8.634   2.647  2.2322 -1.4508 -1.2929
10281SOL    HW235691   3.689   8.489   2.631 -1.6598 -0.5490 -0.4590
10282SOL     OW35692   3.189   6.362   3.717 -0.7958 -0.2439  0.2775
10282SOL    HW135693   3.267   6.341   3.769 -0.2167 -2.5385 -1.4456
10282SOL    HW235694   3.116   6.337   3.773 -0.2224 -1.2004  0.6079
10283SOL     OW35695   1.016   6.050   3.249  0.6304  0.4316 -0.7627
10283SOL    HW135696   0.972   6.132   3.227  1.3820  1.7223  2.3099
10283SOL    HW235697   0.972   6.019   3.328  1.2358 -1.4510 -1.1268
10284SOL     OW35698   2.471   8.245   3.811  0.0328 -1.2173  0.3256
10284SOL    HW135699   2.478   8.299   3.733 -1.2978 -1.6674 -0.1171
10284SOL    HW235700   2.473   8.308   3.884  1.7431 -0.8342 -0.0229
10285SOL     OW35701   5.611   7.318   3.391 -0.3105  0.2435 -0.1273
10285SOL    HW135702   5.676   7.258   3.355 -0.7136 -0.3751  0.1572
10285SOL    HW235703   5.590   7.282   3.478 -1.3914  0.1556 -0.4143
10286SOL     OW35704   3.220   6.968   2.992  0.2117 -0.2026  0.2826
10286SOL    HW135705   3.149   6.999   2.936  1.5481  1.8135 -0.3747
10286SOL    HW235706   3.248   6.885   2.954 -0.2559  0.1485 -0.8329
10287SOL     OW35707   1.212   8.961   1.898  0.6725 -0.3551  0.3154
10287SOL    HW135708   1.258   9.039   1.868 -0.3498  0.2321  0.2291
10287SOL    HW235709   1.137   8.954   1.839  1.4891 -2.1767 -0.5163
10288SOL     OW35710   0.679   9.605   4.249 -0.3733 -0.6462 -0.1728
10288SOL    HW135711   0.631   9.607   4.166  2.4574 -0.3257 -1.8570
10288SOL    HW235712   0.669   9.693   4.285 -2.5061 -1.0993  0.3734
10289SOL     OW35713   4.694   6.720   2.337 -0.9180 -0.1568 -0.1456
10289SOL    HW135714   4.673   6.771   2.259  1.5762  1.2853  0.0726
10289SOL    HW235715   4.642   6.640   2.328  0.7512 -0.9055 -4.2844
10290SOL     OW35716   3.037   9.713   2.278 -0.1555  0.0955 -0.3801
10290SOL    HW135717   3.121   9.737   2.317 -0.6246  0.8727  0.1747
10290SOL    HW235718   2.994   9.659   2.345  0.7072 -1.9380 -1.4466
10291SOL     OW35719   4.128   7.423   2.668  0.3449 -0.5211  0.0310
10291SOL    HW135720   4.050   7.466   2.702 -0.0878 -2.1397  1.1568
10291SOL    HW235721   4.182   7.407   2.745  0.2585 -2.4494 -0.2870
10292SOL     OW35722   1.870   8.410   2.086 -0.2524  0.1059 -0.7609
10292SOL    HW135723   1.831   8.327   2.112 -0.4915  0.1734 -0.9102
10292SOL    HW235724   1.934   8.387   2.019 -0.1803  0.0202 -0.6632
10293SOL     OW35725   2.130   7.510   1.142  0.1619 -0.5890 -0.0518
10293SOL    HW135726   2.122   7.441   1.207  0.3997 -1.5047 -0.9821
10293SOL    HW235727   2.145   7.590   1.193  2.0837 -1.5535  0.9354
10294SOL     OW35728   2.681   2.609   3.879 -0.9172  0.1052 -0.4786
10294SOL    HW135729   2.653   2.522   3.907 -1.0980  0.1503 -0.5251
10294SOL    HW235730   2.706   2.598   3.787 -2.8643  0.5544 -1.0660
10295SOL     OW35731   5.095   8.740   4.581  0.0541  0.8664  0.8071
10295SOL    HW135732   5.110   8.816   4.637  1.5238  0.4737  0.9596
10295SOL    HW235733   5.083   8.777   4.493  0.9452  1.2701  0.8505
10296SOL     OW35734   2.507   6.629   3.208  0.1012 -0.5512 -0.0012
10296SOL    HW135735   2.448   6.620   3.133  0.0708 -0.4894  0.0150
10296SOL    HW235736   2.556   6.709   3.190 -2.3513  1.4019  1.7371
10297SOL     OW35737   2.450   7.264   9.978  0.8234  0.6189 -0.3554
10297SOL    HW135738   2.369   7.224   9.947  0.8725  0.1333  0.1468
10297SOL    HW235739   2.435   7.358   9.970  0.2632  0.5236 -0.4028
10298SOL     OW35740   3.612   7.853   3.727 -0.1805  0.5182  0.3369
10298SOL    HW135741   3.531   7.903   3.733 -0.2725  0.4339 -0.2501
10298SOL    HW235742   3.681   7.920   3.725 -0.3525  0.6599 -1.4527
10299SOL     OW35743   1.885   9.224   1.754 -0.3781  0.0076 -0.4270
10299SOL    HW135744   1.966   9.224   1.703  0.6989  0.3894  1.2538
10299SOL    HW235745   1.835   9.150   1.718  0.8586 -0.4694 -1.2261
10300SOL     OW35746   3.083   8.386   2.212 -0.2411 -0.1002  0.1215
10300SOL    HW135747   3.113   8.357   2.126  1.2583  0.0216  0.5917
10300SOL    HW235748   3.118   8.474   2.222 -0.6327 -0.0092  0.7402
10301SOL     OW35749   3.114   7.010   2.390  0.4387  0.3371 -0.0144
10301SOL    HW135750   3.057   7.076   2.430  1.0634 -0.5826  2.4516
10301SOL    HW235751   3.171   7.061   2.331 -1.3146  1.5441 -0.7031
10302SOL     OW35752   2.962   8.254   3.505  0.4300  0.0744 -0.1205
10302SOL    HW135753   2.917   8.326   3.549  2.0633  1.2566 -0.3760
10302SOL    HW235754   2.934   8.260   3.414  0.0897  0.0016 -0.0216
10303SOL     OW35755   3.441   6.231   3.730  0.3543  0.1261  0.2142
10303SOL    HW135756   3.485   6.307   3.692 -2.0394  0.8245 -1.2983
10303SOL    HW235757   3.431   6.170   3.656  1.1013 -1.1136  1.1227
10304SOL     OW35758   0.899   8.174   4.309  0.6533  0.2764  0.3981
10304SOL    HW135759   0.969   8.178   4.374  0.1127  2.8943  0.8913
10304SOL    HW235760   0.934   8.224   4.234 -0.0500  0.1853  0.0071
10305SOL     OW35761   2.086   8.776   3.239  0.8794  0.1962 -0.4389
10305SOL    HW135762   2.050   8.856   3.278  1.5220  0.2759  0.0045
10305SOL    HW235763   2.024   8.752   3.171  0.2043  0.5622  0.0455
10306SOL     OW35764   1.436   9.182   2.995  0.3806 -0.2749  0.0640
10306SOL    HW135765   1.521   9.205   2.957  0.7762  0.2969  1.2851
10306SOL    HW235766   1.426   9.241   3.069 -0.4723 -1.2633  0.7456
10307SOL     OW35767   3.403   8.318   3.412 -0.9365  0.0192 -0.2177
10307SOL    HW135768   3.462   8.351   3.479 -0.8792  0.9032 -0.6998
10307SOL    HW235769   3.316   8.347   3.439 -0.7561  1.5433 -1.2218
10308SOL     OW35770   2.003   7.620   3.111  0.7167 -0.5736  0.1682
10308SOL    HW135771   1.975   7.618   3.019 -0.9154  2.4100  0.5260
10308SOL    HW235772   1.951   7.552   3.154 -1.6596  0.8667 -0.3477
10309SOL     OW35773   2.784   9.786   2.487  0.3605  0.1802 -0.0199
10309SOL    HW135774   2.860   9.744   2.527 -0.8069 -2.4121 -0.4717
10309SOL    HW235775   2.816   9.815   2.401  1.1783  0.2848  0.3103
10310SOL     OW35776   3.735   8.000   5.211 -0.3045 -0.8610  0.0161
10310SOL    HW135777   3.827   7.984   5.235 -0.1191  0.6178  0.3575
10310SOL    HW235778   3.701   8.054   5.282 -1.0563 -0.2777 -0.7748
10311SOL     OW35779   3.030   7.803   3.516  0.3328 -0.0137 -0.0298
10311SOL    HW135780   2.962   7.742   3.545  0.9045 -0.1285  1.1065
10311SOL    HW235781   3.056   7.849   3.596  0.0670  1.5692 -0.8400
10312SOL     OW35782   5.048   7.658   3.578 -0.2728  0.4592  0.3782
10312SOL    HW135783   4.958   7.628   3.580  0.4138 -1.6975  0.4057
10312SOL    HW235784   5.070   7.674   3.670 -0.4505  0.4816  0.4171
10313SOL     OW35785   1.597   8.989   3.453  0.0186 -0.1954  0.3919
10313SOL    HW135786   1.515   9.022   3.488 -0.6358 -0.1439 -1.1450
10313SOL    HW235787   1.665   9.029   3.507 -0.9312  0.4887  1.0849
10314SOL     OW35788   2.159   6.380   2.730  0.6569 -0.5673  0.0431
10314SOL    HW135789   2.087   6.346   2.678  0.0973 -0.0779  0.4985
10314SOL    HW235790   2.178   6.466   2.691 -0.4423  0.2573  1.2725
10315SOL     OW35791   2.070   0.011   1.894  0.0400  0.0273  0.3021
10315SOL    HW135792   2.107   0.074   1.956  0.2383  1.6611 -1.4336
10315SOL    HW235793   1.976   0.013   1.912  0.1386  0.1978  0.8073
10316SOL     OW35794   2.844   6.792   3.193  0.2638 -0.3051  0.1983
10316SOL    HW135795   2.862   6.743   3.274 -0.3811 -2.2751 -0.8169
10316SOL    HW235796   2.776   6.854   3.217  1.5577  0.5904  1.6830
10317SOL     OW35797   2.687   7.663   1.470  0.8237  0.2586 -0.3052
10317SOL    HW135798   2.741   7.727   1.423  1.9493 -0.0463  0.5433
10317SOL    HW235799   2.747   7.623   1.532 -0.4483  0.0223  0.7811
10318SOL     OW35800   2.077   8.529   2.305 -0.1141  0.3665  0.2123
10318SOL    HW135801   2.023   8.588   2.252  1.4622  0.9409 -0.7781
10318SOL    HW235802   2.026   8.448   2.309 -0.6295  0.5814 -1.5031
10319SOL     OW35803   3.515   7.920   2.476  0.2813  0.1906  0.2736
10319SOL    HW135804   3.566   8.000   2.491  1.1186 -0.3854  0.5890
10319SOL    HW235805   3.509   7.913   2.381 -0.5104  1.0684  0.2560
10320SOL     OW35806   4.989   0.467   2.941  0.3631 -0.0063 -0.2974
10320SOL    HW135807   4.932   0.398   2.976 -1.6916  1.7153 -0.1472
10320SOL    HW235808   4.943   0.499   2.864  2.4889 -0.4081 -1.7780
10321SOL     OW35809   2.388   9.193   2.958 -0.6934  0.7408 -0.1306
10321SOL    HW135810   2.438   9.204   2.878  1.3402  1.4198  1.2013
10321SOL    HW235811   2.307   9.242   2.943 -1.4056 -1.1037 -2.6293
10322SOL     OW35812   1.319   9.000   2.708 -0.2604 -0.5355 -0.2920
10322SOL    HW135813   1.240   8.947   2.698 -0.6916  0.3254 -1.7598
10322SOL    HW235814   1.294   9.067   2.772 -0.3214 -0.9888  0.1640
10323SOL     OW35815   1.618   0.010   2.392 -0.0193  0.3971  0.4550
10323SOL    HW135816   1.544   0.070   2.390  0.4470  1.0017  1.1191
10323SOL    HW235817   1.676   0.042   2.322 -1.6445 -1.7458 -1.9762
10324SOL     OW35818   6.216   6.622   2.746  0.7604  0.0371 -0.1397
10324SOL    HW135819   6.304   6.585   2.735  0.2556 -1.4155  0.6765
10324SOL    HW235820   6.184   6.585   2.827 -0.5138  0.7888 -0.2901
10325SOL     OW35821   2.548   9.319   2.408 -0.2780  0.2801 -0.6986
10325SOL    HW135822   2.456   9.298   2.427  0.1773  0.3995  1.7578
10325SOL    HW235823   2.545   9.410   2.378 -0.7831  0.8813  1.0987
10326SOL     OW35824   1.732   9.643   4.360  0.0734 -0.2715 -0.4248
10326SOL    HW135825   1.680   9.723   4.352 -1.5380 -1.1558  0.8702
10326SOL    HW235826   1.706   9.606   4.444  1.0440 -1.9948 -0.8581
10327SOL     OW35827   3.034   8.311   1.698 -0.4201 -0.3611 -0.0800
10327SOL    HW135828   2.955   8.358   1.722 -1.1638 -0.4354 -2.3101
10327SOL    HW235829   3.064   8.352   1.617  2.8381  0.8291  1.6325
10328SOL     OW35830   2.509   9.199   3.211 -0.6499 -0.2281 -0.5399
10328SOL    HW135831   2.469   9.195   3.124  0.3629 -1.3279 -0.9587
10328SOL    HW235832   2.599   9.171   3.198 -0.2718  0.3435  0.7421
10329SOL     OW35833   2.084   9.667   1.986  0.5220  0.0832 -0.1193
10329SOL    HW135834   1.991   9.672   2.008  0.5830 -0.8662  0.3809
10329SOL    HW235835   2.112   9.759   1.979 -0.1779  0.3866  0.8869
10330SOL     OW35836   4.987   9.014   3.448  0.4466 -0.0071 -0.5929
10330SOL    HW135837   4.972   9.063   3.529 -0.5419 -0.4027 -0.5251
10330SOL    HW235838   4.934   9.059   3.382  0.4756 -0.2723 -0.7976
10331SOL     OW35839   4.358   6.895   3.592 -0.0395 -0.6003 -0.3390
10331SOL    HW135840   4.434   6.928   3.544 -0.7538 -0.7720 -1.6114
10331SOL    HW235841   4.332   6.816   3.544 -0.8253 -0.7273  0.2862
10332SOL     OW35842   3.857   7.480   1.570  0.3249 -0.6960  0.4883
10332SOL    HW135843   3.762   7.481   1.559  0.3256 -1.7870  0.2763
10332SOL    HW235844   3.887   7.560   1.526 -0.3826 -1.0164 -0.6042
10333SOL     OW35845   3.681   8.936   2.355  0.4064  0.2001  0.2355
10333SOL    HW135846   3.681   8.858   2.299 -0.0703  0.5269 -0.2197
10333SOL    HW235847   3.659   8.903   2.442  3.0315 -0.5934  0.6457
10334SOL     OW35848   3.375   7.049   2.298  0.4359 -0.1252 -0.6338
10334SOL    HW135849   3.359   7.088   2.212  1.1789 -1.5254 -1.4190
10334SOL    HW235850   3.468   7.028   2.298  0.1815 -1.2697  0.0335
10335SOL     OW35851   3.799   8.573   3.526 -0.3555 -0.2767 -0.0402
10335SOL    HW135852   3.781   8.640   3.460 -1.3670  0.1503  0.6567
10335SOL    HW235853   3.837   8.500   3.477  0.9118  0.8555 -0.7820
10336SOL     OW35854   3.342   8.057   0.330  0.3822 -0.4476 -0.0500
10336SOL    HW135855   3.419   8.090   0.377  1.1387 -1.6510 -0.3961
10336SOL    HW235856   3.275   8.046   0.397  0.2948  1.2223  0.1548
10337SOL     OW35857   1.308   8.187   2.647  0.4096  0.5911  0.5689
10337SOL    HW135858   1.219   8.202   2.614  0.6436  3.4326  1.0916
10337SOL    HW235859   1.302   8.207   2.740  0.8558 -2.6074  1.3226
10338SOL     OW35860   1.679   9.956   2.941  0.1424 -0.0431  0.0169
10338SOL    HW135861   1.672   9.918   3.029 -2.1577 -0.8038 -0.4536
10338SOL    HW235862   1.652  10.047   2.952  1.2847  0.2577  0.3555
10339SOL     OW35863   3.424   8.365   3.122 -0.5803 -0.2584 -0.4841
10339SOL    HW135864   3.413   8.288   3.066 -0.0623 -0.2680 -0.5681
10339SOL    HW235865   3.367   8.347   3.198 -0.4766 -0.7118 -0.5145
10340SOL     OW35866   4.562   6.208   2.334  0.2849  0.2332  0.3997
10340SOL    HW135867   4.606   6.236   2.254  1.8716  1.1044  1.5674
10340SOL    HW235868   4.577   6.278   2.397  0.4480 -1.1798  1.9763
10341SOL     OW35869   2.225   9.412   1.941 -0.1708  0.4402 -0.7166
10341SOL    HW135870   2.316   9.433   1.963  0.3627  0.0585 -2.4525
10341SOL    HW235871   2.179   9.496   1.949  0.6130  0.9226 -1.1604
10342SOL     OW35872   2.171   8.062   2.751  0.6097 -0.7368 -0.2201
10342SOL    HW135873   2.099   8.011   2.789  0.2985 -0.1366  0.0159
10342SOL    HW235874   2.239   8.062   2.818 -0.3760  1.2575  0.8236
10343SOL     OW35875   0.392   6.822   3.016 -0.0439 -0.0861  0.3027
10343SOL    HW135876   0.449   6.884   2.971  0.6703 -2.3199 -1.9435
10343SOL    HW235877   0.334   6.788   2.948  1.0749 -3.5519  0.9769
10344SOL     OW35878   2.601   7.178   3.597  0.4659  0.1626  0.5456
10344SOL    HW135879   2.666   7.222   3.652  0.7264  2.0921 -1.2485
10344SOL    HW235880   2.628   7.196   3.507 -1.1343 -1.1625 -0.2480
10345SOL     OW35881   1.226   6.494   1.556  0.0093  0.0821  0.1447
10345SOL    HW135882   1.151   6.447   1.520  1.1642 -2.4523  0.9184
10345SOL    HW235883   1.280   6.516   1.480 -1.2277  1.3891 -0.3553
10346SOL     OW35884   3.105   8.761   2.730  0.8510 -0.8584  0.2757
10346SOL    HW135885   3.177   8.759   2.666  2.1446 -0.0117  1.6470
10346SOL    HW235886   3.035   8.710   2.689  1.6723 -0.4300 -1.7628
10347SOL     OW35887   3.880   7.790   1.987  0.1669 -0.1126  0.3066
10347SOL    HW135888   3.844   7.864   2.035 -0.0691  0.2332 -0.3921
10347SOL    HW235889   3.975   7.798   1.997  0.2234  1.2378 -1.1357
10348SOL     OW35890   2.883   0.361   2.903 -1.0002  0.4923  0.0165
10348SOL    HW135891   2.803   0.397   2.865 -1.8462 -1.5024 -0.1158
10348SOL    HW235892   2.947   0.366   2.832 -1.2054  1.3815 -0.1149
10349SOL     OW35893   3.261   7.456   2.765  0.1745  0.5060  0.2764
10349SOL    HW135894   3.303   7.532   2.805 -0.6807  1.2602 -0.2265
10349SOL    HW235895   3.210   7.416   2.835  2.4711 -0.9937  1.1507
10350SOL     OW35896   1.360   9.163   1.461  0.0520  0.1513 -0.0511
10350SOL    HW135897   1.420   9.238   1.460  1.9092 -1.3176 -0.5456
10350SOL    HW235898   1.411   9.092   1.500 -2.2704 -0.4173  2.0878
10351SOL     OW35899   3.559   8.362   3.614 -0.2684  0.3266 -0.2678
10351SOL    HW135900   3.497   8.319   3.673  0.6971  0.1029  0.6073
10351SOL    HW235901   3.604   8.427   3.670  0.8334 -0.0597 -0.6879
10352SOL     OW35902   3.308   9.998   3.250 -0.3997 -0.0200  0.4427
10352SOL    HW135903   3.277  10.063   3.313 -0.2858 -0.1811  0.6645
10352SOL    HW235904   3.381   9.954   3.294  1.6566  1.9026 -0.9225
10353SOL     OW35905   2.590   9.316   2.802  0.0667  0.5035 -0.3404
10353SOL    HW135906   2.633   9.383   2.748 -0.1073  0.8716 -0.0222
10353SOL    HW235907   2.499   9.345   2.808 -0.0075  0.2402 -0.1937
10354SOL     OW35908   3.765   8.006   4.372 -0.6355  0.1198 -0.2155
10354SOL    HW135909   3.803   8.064   4.438 -1.8516  0.1361  0.4721
10354SOL    HW235910   3.681   8.045   4.351 -1.0419 -0.8655 -0.4628
10355SOL     OW35911   3.961   9.053   3.060  0.7303 -0.0996 -0.0027
10355SOL    HW135912   4.046   9.090   3.084 -0.1182  1.0098  1.3735
10355SOL    HW235913   3.912   9.050   3.143 -0.4505 -1.0491 -0.7154
10356SOL     OW35914   2.182   9.590   1.068 -0.3258 -0.8192  0.4864
10356SOL    HW135915   2.091   9.605   1.094  0.4114  0.1493  2.5722
10356SOL    HW235916   2.199   9.655   0.999 -1.2305 -1.0903  0.0023
10357SOL     OW35917   2.915   8.444   4.037 -0.0713  0.2919  0.2398
10357SOL    HW135918   2.830   8.415   4.005  0.4027 -0.0207 -0.7437
10357SOL    HW235919   2.899   8.533   4.069 -0.7866  0.1981  0.1537
10358SOL     OW35920   1.812   9.361   2.230 -0.5200 -0.0698 -0.4113
10358SOL    HW135921   1.883   9.409   2.273  0.8946 -1.9657 -0.5945
10358SOL    HW235922   1.850   9.332   2.147 -2.6080  1.8637 -2.1099
10359SOL     OW35923   4.655   9.926   3.408  0.0700  0.0004 -0.5728
10359SOL    HW135924   4.700  10.010   3.423  1.8055 -0.7833 -1.2772
10359SOL    HW235925   4.569   9.951   3.375 -0.2619  1.5514  1.3966
10360SOL     OW35926   3.081   0.224   4.168  0.0324  0.0465 -0.2327
10360SOL    HW135927   3.049   0.263   4.250  0.9619 -2.9037  1.5801
10360SOL    HW235928   3.174   0.208   4.184 -0.0092 -1.4954 -1.5047
10361SOL     OW35929   1.980   9.925   2.944  0.1006 -0.2120 -0.0299
10361SOL    HW135930   1.973   9.830   2.940 -0.8320 -0.1238 -0.7578
10361SOL    HW235931   1.889   9.956   2.934  0.0333  0.6761  2.9013
10362SOL     OW35932   3.953   7.410   0.983 -0.3058 -0.9582 -0.0721
10362SOL    HW135933   3.890   7.451   1.043 -1.0113 -2.3929  0.1850
10362SOL    HW235934   3.902   7.389   0.905  0.2351 -0.6385 -0.5169
10363SOL     OW35935   5.165   1.043   2.042  0.0453 -0.7011 -0.2481
10363SOL    HW135936   5.182   0.950   2.058 -0.7102 -0.6894  0.6988
10363SOL    HW235937   5.237   1.088   2.087 -0.1864 -0.7940  0.2215
10364SOL     OW35938   3.819   9.260   2.950  0.2292  0.1301 -0.0851
10364SOL    HW135939   3.768   9.255   3.030 -1.2402 -0.8667 -1.0564
10364SOL    HW235940   3.891   9.197   2.963 -0.5502 -0.7403  0.0814
10365SOL     OW35941   2.699   8.963   2.188 -0.6504  0.7477 -0.0547
10365SOL    HW135942   2.667   8.961   2.278  0.5285  0.5782  0.3624
10365SOL    HW235943   2.690   8.872   2.158  0.4557  0.4719  0.4261
10366SOL     OW35944   2.350   8.043   2.954  0.6532  0.1595  0.1815
10366SOL    HW135945   2.379   8.079   3.038  1.6175 -0.5625  0.1697
10366SOL    HW235946   2.390   7.957   2.950  0.7940  0.2760 -1.1294
10367SOL     OW35947   3.779   6.727   0.740  0.7269 -0.4647 -0.1362
10367SOL    HW135948   3.729   6.760   0.815  0.7537  0.6863 -0.6104
10367SOL    HW235949   3.838   6.799   0.718  0.9923 -0.9510 -1.0146
10368SOL     OW35950   2.885   7.949   2.299  0.2979  0.3229 -0.5038
10368SOL    HW135951   2.968   7.902   2.312 -0.4176 -0.3037  2.0336
10368SOL    HW235952   2.892   7.986   2.211  1.7989 -2.7037 -1.7221
10369SOL     OW35953   2.932   7.739   4.130 -0.3502  0.0790  0.1258
10369SOL    HW135954   2.839   7.730   4.149  0.0572  2.5026  3.4629
10369SOL    HW235955   2.942   7.828   4.098  0.9617  0.0926  0.5534
10370SOL     OW35956   3.011   6.702   0.756  0.3666  0.0557 -0.0197
10370SOL    HW135957   3.043   6.661   0.836  0.4816  1.7712  0.8510
10370SOL    HW235958   2.988   6.791   0.783  0.3044  0.6210 -1.8741
10371SOL     OW35959   2.370   9.286   1.467  0.3522 -0.4949  0.0133
10371SOL    HW135960   2.327   9.205   1.439  0.8240  0.2923 -3.1634
10371SOL    HW235961   2.305   9.354   1.452  0.7837  0.0109  0.4190
10372SOL     OW35962   3.984   8.697   2.409  0.3592  0.7724 -0.1520
10372SOL    HW135963   3.893   8.670   2.395  0.5386  1.1004 -2.2264
10372SOL    HW235964   4.034   8.616   2.409 -0.2683  0.2450  4.6341
10373SOL     OW35965   2.728   8.468   3.679  0.3142  0.2371 -0.1291
10373SOL    HW135966   2.641   8.494   3.650 -0.1838 -0.3074  0.8602
10373SOL    HW235967   2.716   8.436   3.769  1.3215 -0.9998 -0.4061
10374SOL     OW35968   2.388   8.359   2.348  0.2485 -0.0999 -0.2211
10374SOL    HW135969   2.359   8.320   2.266  1.6685 -2.0985  0.1902
10374SOL    HW235970   2.472   8.400   2.326 -1.5277  3.3837 -0.8050
10375SOL     OW35971   3.307   8.652   3.312 -0.1319 -0.5090  0.2621
10375SOL    HW135972   3.390   8.646   3.358 -0.0031 -1.1783 -0.0512
10375SOL    HW235973   3.256   8.577   3.344 -0.3061 -0.5714 -0.1419
10376SOL     OW35974   2.972   5.776   1.126 -0.4875 -0.2993  0.3716
10376SOL    HW135975   3.026   5.699   1.112 -1.3783 -0.7522 -0.6423
10376SOL    HW235976   2.942   5.768   1.217  0.4803 -0.4602  0.6811
10377SOL     OW35977   4.001   9.717   2.699  0.0452  0.5763  0.6352
10377SOL    HW135978   3.952   9.678   2.771 -1.0321  0.2358 -0.2721
10377SOL    HW235979   3.947   9.790   2.669  0.1456  0.2697 -0.2989
10378SOL     OW35980   2.813   7.037   2.426 -0.2351 -0.2286  0.3743
10378SOL    HW135981   2.847   7.015   2.339  0.7540 -1.0390  0.9605
10378SOL    HW235982   2.813   7.133   2.428  1.4977 -0.1961  0.1329
10379SOL     OW35983   1.716   7.501   2.857  0.6309 -0.2993  0.2114
10379SOL    HW135984   1.677   7.562   2.919 -2.3693 -1.3493 -0.5870
10379SOL    HW235985   1.723   7.419   2.905  1.2237 -0.3071  0.1195
10380SOL     OW35986   2.699   8.591   1.426  0.3545 -0.0965 -0.0178
10380SOL    HW135987   2.648   8.518   1.462 -0.5479 -0.1273 -1.3434
10380SOL    HW235988   2.713   8.568   1.334 -0.2074  1.5550 -0.5185
10381SOL     OW35989   1.661   8.697   2.880 -0.0963  0.5369 -0.1519
10381SOL    HW135990   1.691   8.755   2.949  0.5761  1.0375 -0.8552
10381SOL    HW235991   1.609   8.631   2.925  1.0275  0.3724  0.9332
10382SOL     OW35992   1.331   7.719   5.321  0.3825 -1.0638 -0.2575
10382SOL    HW135993   1.252   7.696   5.273  0.5099  0.4666 -1.2467
10382SOL    HW235994   1.304   7.721   5.413 -0.5580 -1.2384 -0.5328
10383SOL     OW35995   2.293   8.501   5.571  0.7080 -0.1280  0.7672
10383SOL    HW135996   2.201   8.501   5.595 -0.3843 -0.1007 -3.0888
10383SOL    HW235997   2.314   8.409   5.553  0.4932  0.2292 -1.4788
10384SOL     OW35998   2.700   9.262   5.322  1.0399  0.0726  0.0984
10384SOL    HW135999   2.649   9.260   5.403  1.2735 -0.8135  0.2248
10384SOL    HW236000   2.706   9.171   5.294  2.6162  0.1475  0.1309
10385SOL     OW36001   2.712   0.341   4.698  0.0738 -0.0020 -0.3213
10385SOL    HW136002   2.623   0.323   4.667 -0.6885 -0.1884  1.9049
10385SOL    HW236003   2.767   0.280   4.649 -1.3678 -1.8544  0.2814
10386SOL     OW36004   1.561   9.475   3.948  0.3154  0.1008  0.2827
10386SOL    HW136005   1.483   9.528   3.932 -0.3991  0.1292  3.4375
10386SOL    HW236006   1.612   9.526   4.011  1.7790 -0.9451 -0.0264
10387SOL     OW36007   5.355   9.289   3.351  0.6085  0.3010 -0.3672
10387SOL    HW136008   5.361   9.363   3.411 -0.4049  0.9058 -0.9843
10387SOL    HW236009   5.353   9.329   3.264  1.4485 -0.5321 -0.7776
10388SOL     OW36010   2.192   8.420   3.711 -0.6248 -0.4960 -0.0423
10388SOL    HW136011   2.161   8.342   3.666  0.1855 -0.7767 -0.1333
10388SOL    HW236012   2.196   8.396   3.803  0.5885 -0.8976 -0.1904
10389SOL     OW36013   3.015   9.630   4.692  0.1226  0.2829 -0.1386
10389SOL    HW136014   3.102   9.668   4.701  0.5664 -0.7022 -0.2204
10389SOL    HW236015   2.984   9.661   4.607  0.4971  0.4107 -0.2289
10390SOL     OW36016   3.713   8.759   5.187  0.3195 -0.2120 -0.3440
10390SOL    HW136017   3.760   8.678   5.205 -0.9139 -1.1651 -1.3093
10390SOL    HW236018   3.636   8.732   5.136 -0.2293  1.5304 -0.4946
10391SOL     OW36019   3.376   8.125   2.973 -0.2182  0.3412 -0.1774
10391SOL    HW136020   3.308   8.119   2.906 -1.0650 -0.3568  0.7088
10391SOL    HW236021   3.455   8.092   2.931 -0.7903 -0.2908 -0.7728
10392SOL     OW36022   0.548   9.173   2.977 -0.5650  0.6320 -0.1796
10392SOL    HW136023   0.553   9.267   2.958 -0.0479  0.4398 -1.0423
10392SOL    HW236024   0.604   9.161   3.054 -0.4098  0.9868 -0.2365
10393SOL     OW36025   2.477   9.287   4.658  0.4274 -0.1654  0.0820
10393SOL    HW136026   2.556   9.339   4.671 -0.4200  1.5765 -1.4827
10393SOL    HW236027   2.425   9.303   4.737 -0.7208  3.0715 -1.2551
10394SOL     OW36028   1.483   7.271   5.293  0.0320 -0.3160 -0.0607
10394SOL    HW136029   1.435   7.218   5.357  1.2649  0.1891  1.3014
10394SOL    HW236030   1.415   7.319   5.246 -0.8300  0.3754  1.8310
10395SOL     OW36031   4.614   9.107   2.835  0.0809  0.2334  0.0357
10395SOL    HW136032   4.708   9.120   2.851 -0.5665  2.0940  2.5480
10395SOL    HW236033   4.595   9.163   2.759  0.6673  1.0937  0.5153
10396SOL     OW36034   2.213   0.041   3.667 -0.5824 -0.0373  0.4540
10396SOL    HW136035   2.263  -0.025   3.620 -1.7972 -1.1377  0.6981
10396SOL    HW236036   2.173   0.094   3.598 -0.1345  0.0539  0.2616
10397SOL     OW36037   2.544   0.052   5.627  0.1837  0.0317 -0.1318
10397SOL    HW136038   2.471   0.034   5.568 -1.0781  0.6295  1.2003
10397SOL    HW236039   2.571  -0.034   5.659 -0.7657 -0.1215  0.3013
10398SOL     OW36040   2.349   9.208   4.049 -0.8274 -0.0469  0.4819
10398SOL    HW136041   2.279   9.265   4.081  0.4265  1.5348  0.4816
10398SOL    HW236042   2.375   9.247   3.966  0.3566 -0.3780  0.6981
10399SOL     OW36043   1.863   7.347   4.765 -0.2505  0.2451  0.0422
10399SOL    HW136044   1.884   7.272   4.710 -2.3987 -2.2252  2.4313
10399SOL    HW236045   1.768   7.345   4.774 -0.1984  2.2888  1.4340
10400SOL     OW36046   2.649   7.557   6.060  0.4142 -0.2692 -0.3218
10400SOL    HW136047   2.606   7.474   6.044  0.5873 -0.7697  1.7050
10400SOL    HW236048   2.579   7.617   6.085  0.5885 -0.4674  0.6619
10401SOL     OW36049   2.122   7.349   4.459 -0.3215  0.4011 -0.5776
10401SOL    HW136050   2.031   7.360   4.432  0.3629  0.4301 -3.0081
10401SOL    HW236051   2.151   7.272   4.410  1.1641  0.8365 -0.3861
10402SOL     OW36052   4.721   9.035   6.128 -0.3179 -0.0676  0.8397
10402SOL    HW136053   4.660   9.022   6.055 -2.3671  0.5661  2.3982
10402SOL    HW236054   4.743   9.128   6.124 -0.6592  0.0309  1.1807
10403SOL     OW36055   2.975   9.886   3.273  0.1420  0.2153  0.4851
10403SOL    HW136056   2.920   9.847   3.205 -1.0798 -1.3494  2.3097
10403SOL    HW236057   3.048   9.925   3.225 -0.9388 -0.4006 -1.7556
10404SOL     OW36058   3.782   0.063   4.700 -0.3846 -0.1249 -0.2004
10404SOL    HW136059   3.738   0.134   4.747 -1.4185  0.6576 -2.2810
10404SOL    HW236060   3.853   0.037   4.758 -1.0609  1.4261  1.3870
10405SOL     OW36061   4.225   7.960   4.344  0.2150  0.5874  0.1450
10405SOL    HW136062   4.277   7.914   4.278 -0.4095 -0.2089  0.1903
10405SOL    HW236063   4.220   8.050   4.313 -2.4854 -0.3484 -2.4586
10406SOL     OW36064   2.544   9.593   4.731 -0.1026 -0.2684 -0.4199
10406SOL    HW136065   2.461   9.589   4.683 -0.7586 -0.8742  0.7440
10406SOL    HW236066   2.531   9.665   4.793  0.8213  0.6491 -1.2668
10407SOL     OW36067   3.916   8.143   6.169 -0.4523 -0.0866  0.0449
10407SOL    HW136068   3.934   8.176   6.081 -0.6313  0.0284  0.0510
10407SOL    HW236069   3.972   8.195   6.226  0.2997 -0.7404 -0.0840
10408SOL     OW36070   1.712   8.003   6.098 -0.2005 -0.2304  0.4854
10408SOL    HW136071   1.650   7.989   6.026  0.5032  2.4794 -0.7424
10408SOL    HW236072   1.658   8.037   6.170 -0.7402 -1.8879  0.8747
10409SOL     OW36073   2.351   9.063   3.743  0.1364 -0.6803 -0.4648
10409SOL    HW136074   2.309   9.080   3.658 -1.1078  1.6056  0.5591
10409SOL    HW236075   2.390   9.147   3.768  0.7603 -1.4126  1.0836
10410SOL     OW36076   3.962   8.824   6.312  0.0072 -0.1499 -0.7649
10410SOL    HW136077   3.898   8.805   6.381  1.1710  0.7501  0.5896
10410SOL    HW236078   3.959   8.919   6.302 -1.3498 -0.3807 -3.1786
10411SOL     OW36079   2.385   6.587   4.858 -0.3546 -0.4279  0.4187
10411SOL    HW136080   2.426   6.672   4.878 -0.7741 -0.5078  1.6507
10411SOL    HW236081   2.302   6.589   4.906  0.0249 -1.8923  1.1436
10412SOL     OW36082   4.134   8.061   4.616  0.5088  0.6171 -0.3482
10412SOL    HW136083   4.188   8.124   4.568  1.8205  0.1247  0.4533
10412SOL    HW236084   4.194   7.989   4.635  0.0206  0.7953  2.0173
10413SOL     OW36085   3.753   9.867   3.400 -0.3365 -0.3447  0.2979
10413SOL    HW136086   3.768   9.870   3.495 -1.2237 -0.6925  0.4582
10413SOL    HW236087   3.822   9.922   3.363  0.5736 -0.9371  1.0776
10414SOL     OW36088   2.385   9.047   2.683 -0.2528  0.3430 -0.0670
10414SOL    HW136089   2.471   9.011   2.662 -0.6060 -1.1945  1.0078
10414SOL    HW236090   2.348   9.072   2.598  0.5938 -0.5329 -0.7064
10415SOL     OW36091   2.602   8.521   5.377 -0.3972  0.3489  0.7051
10415SOL    HW136092   2.607   8.535   5.471  2.0378 -0.7439  0.7899
10415SOL    HW236093   2.660   8.587   5.339 -1.3945  0.8101 -0.0495
10416SOL     OW36094   4.244   9.746   3.459  0.5707  0.3903 -0.5293
10416SOL    HW136095   4.180   9.779   3.522  1.1516 -0.8657  0.7523
10416SOL    HW236096   4.207   9.769   3.374 -1.4784 -0.1035  0.1878
10417SOL     OW36097   2.907   8.374   7.061  0.7287 -0.0548  0.2320
10417SOL    HW136098   2.930   8.332   7.144  1.5320 -0.6302 -0.2730
10417SOL    HW236099   2.966   8.334   6.997 -0.1339  0.1198 -0.6839
10418SOL     OW36100   5.066   8.106   5.186  0.6812  0.2856 -0.4218
10418SOL    HW136101   5.008   8.037   5.155  0.3563  0.6595 -0.6473
10418SOL    HW236102   5.029   8.186   5.150  1.1990  0.5519 -0.3682
10419SOL     OW36103   2.322   8.939   4.007 -1.0727 -0.6669  0.6515
10419SOL    HW136104   2.258   8.928   4.077  0.0136 -0.9122  1.6198
10419SOL    HW236105   2.318   9.033   3.986 -1.9550 -0.7326  0.4837
10420SOL     OW36106   2.736   8.757   4.454 -0.6151 -0.0932 -0.2166
10420SOL    HW136107   2.708   8.848   4.462 -2.6707 -0.8844  1.7038
10420SOL    HW236108   2.659   8.710   4.422  0.1444 -1.3508 -0.2483
10421SOL     OW36109   2.714   8.451   4.281  0.2035 -0.6715  0.1911
10421SOL    HW136110   2.637   8.447   4.225  0.2329  1.4180 -0.0499
10421SOL    HW236111   2.766   8.523   4.245  0.1829  0.7612  2.9051
10422SOL     OW36112   1.105   9.515   1.814 -0.0995 -0.2365  0.2110
10422SOL    HW136113   1.085   9.541   1.725  2.3313 -0.8371 -0.5525
10422SOL    HW236114   1.052   9.573   1.869 -0.1560  1.4574 -1.5787
10423SOL     OW36115   1.495   8.853   3.718  0.4473  0.6400 -0.6175
10423SOL    HW136116   1.552   8.805   3.658 -0.2610 -1.1984  0.1519
10423SOL    HW236117   1.544   8.858   3.800  0.8200  1.8889 -0.9069
10424SOL     OW36118   1.833   6.561   3.714  0.1987  0.3895  0.0616
10424SOL    HW136119   1.813   6.468   3.698  1.3009  0.1816 -0.1478
10424SOL    HW236120   1.927   6.562   3.730  0.1726  1.4735  0.1297
10425SOL     OW36121   4.418   8.925   7.687 -0.2916 -0.5432  0.0575
10425SOL    HW136122   4.358   8.901   7.617  0.9520 -0.7405 -0.9470
10425SOL    HW236123   4.482   8.983   7.645  1.5291 -2.1243  0.5993
10426SOL     OW36124   3.390   8.965   3.938 -0.1819 -0.4746  0.2216
10426SOL    HW136125   3.404   8.892   3.998 -2.6626 -1.1172  0.0802
10426SOL    HW236126   3.319   9.015   3.977  0.1796  0.7641 -0.6834
10427SOL     OW36127   3.344   7.465   4.020 -0.2487  0.2498  0.4592
10427SOL    HW136128   3.424   7.420   3.992 -1.7939 -0.4696 -3.0284
10427SOL    HW236129   3.305   7.405   4.083  0.0412 -1.2068 -0.7020
10428SOL     OW36130   3.389   8.343   3.832  0.2859 -0.0531  0.1085
10428SOL    HW136131   3.314   8.300   3.872  0.5678 -1.2306 -0.5951
10428SOL    HW236132   3.355   8.427   3.800 -0.6108 -0.3663  0.2385
10429SOL     OW36133   2.352   8.648   5.020  0.1059  0.1776  0.4940
10429SOL    HW136134   2.325   8.739   5.010 -0.1462 -0.0835 -1.5998
10429SOL    HW236135   2.284   8.598   4.975  2.4388 -0.6900 -2.3071
10430SOL     OW36136   4.998   9.480   3.877  0.4913  0.5067 -0.1825
10430SOL    HW136137   5.023   9.518   3.961  0.2479 -0.0881  0.1649
10430SOL    HW236138   4.966   9.554   3.826  0.0434  0.7845  0.4824
10431SOL     OW36139   2.139   7.479   6.471  0.0974 -0.1011 -0.3350
10431SOL    HW136140   2.216   7.521   6.433  0.8117  0.0287  1.2296
10431SOL    HW236141   2.134   7.394   6.426  3.1864 -1.5746  1.9107
10432SOL     OW36142   3.623   8.578   4.241  0.2105  0.7085 -0.1353
10432SOL    HW136143   3.661   8.597   4.326 -0.4779 -0.3921  0.4359
10432SOL    HW236144   3.535   8.613   4.245 -0.8195 -1.8350  0.6734
10433SOL     OW36145   5.067   8.455   3.771  0.3276  0.0492  0.8254
10433SOL    HW136146   5.040   8.542   3.800 -0.9093 -0.3708  0.9943
10433SOL    HW236147   5.046   8.453   3.677  0.5150  0.0025  0.7857
10434SOL     OW36148   4.478   7.547   6.448  0.0267 -0.4941 -0.3840
10434SOL    HW136149   4.460   7.457   6.420 -0.3506 -0.3084 -0.7408
10434SOL    HW236150   4.452   7.548   6.540 -0.8564 -0.5010 -0.6268
10435SOL     OW36151   2.729   9.690   3.316 -0.1857 -0.0820 -0.0684
10435SOL    HW136152   2.683   9.757   3.265  1.2022  0.0806 -1.1382
10435SOL    HW236153   2.762   9.737   3.393  0.6699  0.4573 -0.7497
10436SOL     OW36154   2.843   7.103   5.132 -0.6612 -0.1321 -0.2293
10436SOL    HW136155   2.881   7.146   5.055  1.5934 -0.8983  0.4214
10436SOL    HW236156   2.816   7.175   5.189 -1.2401  0.4311 -1.2010
10437SOL     OW36157   3.670   8.889   3.853 -0.4827 -0.1930  0.0812
10437SOL    HW136158   3.580   8.919   3.864 -0.5628 -0.9567  1.7145
10437SOL    HW236159   3.707   8.889   3.942  0.8934 -0.5928 -0.4666
10438SOL     OW36160   2.286   9.266   4.473  0.5666  0.0595 -0.3011
10438SOL    HW136161   2.333   9.300   4.549  0.4337  2.8119 -1.3682
10438SOL    HW236162   2.335   9.300   4.398 -0.6283 -0.6873 -1.4336
10439SOL     OW36163   2.003   7.386   3.589 -0.1248  0.3543 -0.3304
10439SOL    HW136164   1.982   7.325   3.660 -1.2143  0.5331 -0.4894
10439SOL    HW236165   1.934   7.372   3.524  0.8233  0.2493 -1.3303
10440SOL     OW36166   2.736   9.081   6.291  0.0518  0.0913 -0.8769
10440SOL    HW136167   2.644   9.068   6.313 -0.1647  0.2803 -1.6360
10440SOL    HW236168   2.735   9.144   6.218  0.8013  0.3989 -0.6335
10441SOL     OW36169   2.877   9.841   4.997  0.3553  0.0444  0.2523
10441SOL    HW136170   2.969   9.817   4.982  0.3316 -0.2233  0.5162
10441SOL    HW236171   2.846   9.872   4.912  0.7003  0.1685  0.1704
10442SOL     OW36172   4.116   8.975   2.777  0.4894 -0.1009 -0.8161
10442SOL    HW136173   4.132   8.893   2.731 -0.8458 -0.0182 -1.4522
10442SOL    HW236174   4.027   9.000   2.752  0.8279  1.4683 -0.5277
10443SOL     OW36175   2.979   7.420   5.731  0.7256 -0.0458  0.7819
10443SOL    HW136176   3.052   7.475   5.760  1.6928 -0.9059  0.0196
10443SOL    HW236177   3.020   7.336   5.710 -0.6508 -0.8668  1.3577
10444SOL     OW36178   2.297   6.508   4.286 -0.3600 -0.5429 -0.1975
10444SOL    HW136179   2.318   6.537   4.198 -3.4852  0.4902 -0.6808
10444SOL    HW236180   2.256   6.423   4.274  0.3884 -0.9947  0.3931
10445SOL     OW36181   3.053   8.631   6.023  0.0837  0.1611 -0.7709
10445SOL    HW136182   3.078   8.631   6.115  1.9614  0.6656 -1.2520
10445SOL    HW236183   2.957   8.632   6.024  0.0816  2.0366  1.1676
10446SOL     OW36184   2.165   9.938   4.407 -0.1440  0.1732  0.0189
10446SOL    HW136185   2.200   9.992   4.478 -0.7809 -1.2216  1.4239
10446SOL    HW236186   2.078   9.973   4.390 -0.4490 -0.2348  0.7410
10447SOL     OW36187   3.158   0.037   4.975 -0.4630 -0.4098 -0.1989
10447SOL    HW136188   3.178  -0.052   4.949 -1.8854 -1.1400  1.1308
10447SOL    HW236189   3.164   0.036   5.071  1.3280  1.3736 -0.2662
10448SOL     OW36190   3.466   8.932   5.114 -0.1737  0.0007  0.0442
10448SOL    HW136191   3.406   8.916   5.041 -0.1451 -0.2244  0.0682
10448SOL    HW236192   3.422   8.891   5.189  1.7451 -3.5875 -0.6391
10449SOL     OW36193   3.199   0.151   2.196  0.3671  0.1952  0.2637
10449SOL    HW136194   3.194   0.225   2.256  0.9290  0.7639 -0.3778
10449SOL    HW236195   3.283   0.162   2.151  1.7273 -2.3227  2.0856
10450SOL     OW36196   4.403   8.483   4.308  0.0731 -0.0583  0.2098
10450SOL    HW136197   4.336   8.481   4.239 -0.6245 -0.1265  0.8792
10450SOL    HW236198   4.463   8.412   4.284 -1.2182 -1.3483  0.6913
10451SOL     OW36199   3.414   9.242   4.677 -0.2426 -0.5872  0.1309
10451SOL    HW136200   3.427   9.334   4.698  3.3220 -0.8462 -0.6516
10451SOL    HW236201   3.361   9.242   4.598  0.1123  0.7934 -0.1050
10452SOL     OW36202   2.192   6.448   5.183  0.5030 -0.3230  0.2542
10452SOL    HW136203   2.228   6.507   5.116  0.0385 -1.7755 -1.3107
10452SOL    HW236204   2.102   6.480   5.197 -0.0147 -1.1097 -1.1686
10453SOL     OW36205   1.829   5.691   4.514 -0.0405 -0.3572  0.5638
10453SOL    HW136206   1.781   5.644   4.582  0.4462 -1.7251 -0.0204
10453SOL    HW236207   1.778   5.771   4.500 -0.6194 -0.4747  1.9100
10454SOL     OW36208   2.801   8.073   4.840  0.1234 -0.5893 -0.5838
10454SOL    HW136209   2.861   8.045   4.771  1.8070 -0.6641  0.8471
10454SOL    HW236210   2.725   8.107   4.794  0.5409 -2.0839 -2.4337
10455SOL     OW36211   2.241   7.140   6.123  0.2982  0.4353 -0.1369
10455SOL    HW136212   2.273   7.146   6.033  2.2005 -0.6399  0.4383
10455SOL    HW236213   2.243   7.047   6.143 -1.0773  0.5750  0.6890
10456SOL     OW36214   2.519   8.863   4.817  0.4561  0.4531  0.0549
10456SOL    HW136215   2.454   8.929   4.842  0.4668  1.0398 -1.3858
10456SOL    HW236216   2.554   8.895   4.733 -0.1683 -1.8221 -1.1206
10457SOL     OW36217   3.421   8.501   5.363 -0.4350  0.1598  0.3816
10457SOL    HW136218   3.447   8.439   5.294  0.5638  0.2646  0.6474
10457SOL    HW236219   3.326   8.508   5.354 -0.2408  0.7483 -1.4812
10458SOL     OW36220   2.241   8.242   3.940  0.2021 -0.3614  0.0189
10458SOL    HW136221   2.316   8.219   3.884 -0.7701  0.2633 -1.5807
10458SOL    HW236222   2.267   8.214   4.028  2.4753  0.2163 -0.4430
10459SOL     OW36223   0.873   8.273   5.501 -0.0654 -0.6523 -0.1953
10459SOL    HW136224   0.800   8.289   5.560  0.1165  1.5587 -0.5385
10459SOL    HW236225   0.920   8.199   5.540 -0.9212 -0.3343  1.4700
10460SOL     OW36226   1.889   8.955   3.294 -0.3955 -0.1181  0.1496
10460SOL    HW136227   1.896   9.050   3.297  2.4224 -0.2334 -1.0816
10460SOL    HW236228   1.816   8.938   3.235 -1.0907  1.2621  0.5917
10461SOL     OW36229   4.452   8.035   3.722 -0.1826 -0.1043 -0.1603
10461SOL    HW136230   4.409   8.110   3.681 -3.0099 -1.6716 -0.1276
10461SOL    HW236231   4.422   8.036   3.813  1.6260  0.0574  0.4595
10462SOL     OW36232   3.476   8.747   5.782 -0.3028 -0.1380  0.4780
10462SOL    HW136233   3.541   8.817   5.773 -1.8647  1.3302  0.4208
10462SOL    HW236234   3.472   8.731   5.876  1.2761 -1.3553  0.3647
10463SOL     OW36235   3.156   9.678   3.356  0.6373  0.2522  0.2462
10463SOL    HW136236   3.082   9.736   3.337  1.1538  0.2097 -1.9895
10463SOL    HW236237   3.216   9.733   3.407  0.2795  1.1150 -0.2530
10464SOL     OW36238   4.639   8.427   3.560  0.5566 -0.1645 -0.0726
10464SOL    HW136239   4.679   8.491   3.620 -0.4832  0.2913  0.1499
10464SOL    HW236240   4.711   8.398   3.505  0.7696  2.2942 -1.1533
10465SOL     OW36241   2.461   9.604   2.470  0.2242  0.1862  0.0310
10465SOL    HW136242   2.506   9.597   2.386  2.4757 -1.6672  1.3347
10465SOL    HW236243   2.453   9.698   2.486  2.6177  0.5407 -0.7708
10466SOL     OW36244   1.827   8.128   4.261 -0.6342  0.2850 -0.1963
10466SOL    HW136245   1.776   8.124   4.342 -0.3650  0.5425 -0.0149
10466SOL    HW236246   1.901   8.185   4.282 -0.2730 -0.0857 -0.4634
10467SOL     OW36247   1.891   9.567   3.493  0.1533  0.5946  0.0813
10467SOL    HW136248   1.796   9.566   3.502  0.1908 -0.1955  0.4919
10467SOL    HW236249   1.911   9.650   3.451 -0.8660  0.0045 -1.6339
10468SOL     OW36250   3.774   8.329   6.565 -0.3721 -0.5296 -0.1653
10468SOL    HW136251   3.841   8.295   6.624 -1.7315  0.7998  2.2641
10468SOL    HW236252   3.700   8.269   6.575 -0.8693  0.1111  0.0892
10469SOL     OW36253   3.055   8.341   5.897  0.1410  0.0865 -0.0050
10469SOL    HW136254   2.989   8.277   5.923  0.0389 -0.3917 -1.3936
10469SOL    HW236255   3.035   8.419   5.949 -0.9994 -0.3404  0.2041
10470SOL     OW36256   3.521   8.445   5.683 -0.5139  0.5205 -0.4241
10470SOL    HW136257   3.552   8.354   5.677 -0.0074  0.5862  1.0817
10470SOL    HW236258   3.464   8.446   5.760  0.6436  1.8156  0.4376
10471SOL     OW36259   2.999   9.006   4.606  0.9193  0.4149  0.6094
10471SOL    HW136260   2.980   9.079   4.665 -0.4015  1.3419 -0.9187
10471SOL    HW236261   2.926   8.946   4.618 -0.5653  1.6743 -1.6857
10472SOL     OW36262   3.533   7.600   5.165 -0.3911 -0.1467 -0.7603
10472SOL    HW136263   3.499   7.689   5.176 -0.5036 -0.2352 -0.3705
10472SOL    HW236264   3.489   7.549   5.233  1.8130  0.1026  0.9289
10473SOL     OW36265   0.674   7.226   5.290 -0.1138  0.3184  0.0966
10473SOL    HW136266   0.601   7.170   5.318  0.6721 -0.3929  0.7339
10473SOL    HW236267   0.669   7.302   5.348 -0.9452  0.7364 -0.5133
10474SOL     OW36268   3.316   9.131   4.909  0.6132  0.2293 -0.3854
10474SOL    HW136269   3.347   9.165   4.825 -1.7495  1.3800 -0.8276
10474SOL    HW236270   3.325   9.036   4.902  0.9489  0.3501 -1.7075
10475SOL     OW36271   2.242   8.255   4.255 -0.4082  0.4204 -0.1620
10475SOL    HW136272   2.279   8.211   4.332  1.1605  1.5577 -0.2261
10475SOL    HW236273   2.162   8.296   4.287 -0.5124 -0.3014  0.5219
10476SOL     OW36274   3.027   8.870   4.905  0.5769 -0.2708  0.0262
10476SOL    HW136275   3.023   8.964   4.925  1.0323 -0.5145  1.3246
10476SOL    HW236276   2.945   8.852   4.858  0.6637  0.8486 -0.5814
10477SOL     OW36277   1.743   8.722   3.431  0.5370 -0.2016  0.6099
10477SOL    HW136278   1.737   8.815   3.410 -0.8467  0.1734  2.5729
10477SOL    HW236279   1.836   8.706   3.445  0.7647  0.9135  0.3453
10478SOL     OW36280   2.099   7.528   3.942 -0.1681 -0.4772  0.0397
10478SOL    HW136281   2.055   7.613   3.945  0.4817 -0.1831  1.8950
10478SOL    HW236282   2.040   7.469   3.988 -0.9097 -1.1923 -1.7927
10479SOL     OW36283   2.275   8.609   3.360  0.3069  0.4753  0.5258
10479SOL    HW136284   2.367   8.622   3.336  0.6654  0.2352  1.7627
10479SOL    HW236285   2.227   8.671   3.304  1.4780  2.8426  2.0388
10480SOL     OW36286   3.931   9.705   5.087  0.4067  0.4979  0.0271
10480SOL    HW136287   4.021   9.705   5.118  0.0728  1.4604  1.0432
10480SOL    HW236288   3.879   9.678   5.163 -0.0557 -1.4410 -0.9461
10481SOL     OW36289   4.327   9.422   3.944 -0.0746  0.3653 -0.1907
10481SOL    HW136290   4.384   9.478   3.891 -2.2408  2.8843  0.0147
10481SOL    HW236291   4.326   9.463   4.030  1.9376 -2.6555  1.3395
10482SOL     OW36292   2.554   8.993   4.573  0.2211 -0.5949 -0.5742
10482SOL    HW136293   2.559   9.088   4.561 -1.5930 -0.1004  2.0331
10482SOL    HW236294   2.495   8.963   4.505  0.6094  0.1728 -1.2647
10483SOL     OW36295   2.745   8.581   5.635  0.1562 -0.4386  0.2217
10483SOL    HW136296   2.831   8.616   5.612 -1.0334  3.0453  0.7047
10483SOL    HW236297   2.762   8.523   5.710  1.9822  0.8009  0.8009
10484SOL     OW36298   2.668   9.211   3.904  0.7156  0.0840 -0.2883
10484SOL    HW136299   2.685   9.250   3.819 -0.2670 -0.4101 -0.7144
10484SOL    HW236300   2.627   9.281   3.955  0.5452  0.1255 -0.4836
10485SOL     OW36301   0.357   7.871   5.457  0.1907  0.4196  0.1072
10485SOL    HW136302   0.393   7.783   5.443  1.5793  1.0228 -0.2429
10485SOL    HW236303   0.358   7.911   5.370  0.9100  1.2655  0.4907
10486SOL     OW36304   2.880   5.591   5.204 -0.1381 -0.2328 -0.1711
10486SOL    HW136305   2.963   5.633   5.185 -0.1120  0.0284  0.4948
10486SOL    HW236306   2.894   5.498   5.184  0.2403 -0.1489 -0.2840
10487SOL     OW36307   1.876   7.760   3.411  0.0082  0.4182  0.1912
10487SOL    HW136308   1.943   7.729   3.472  0.4311  0.0111 -0.4742
10487SOL    HW236309   1.817   7.686   3.401 -1.1782  1.1487  1.6456
10488SOL     OW36310   2.771   7.817   4.500  0.4751  0.4224 -0.1963
10488SOL    HW136311   2.712   7.836   4.427 -0.2145 -1.6266 -0.2165
10488SOL    HW236312   2.714   7.782   4.569  1.2240  1.6453  1.0618
10489SOL     OW36313   3.160   7.114   4.718  0.4025 -0.0686  0.1040
10489SOL    HW136314   3.105   7.135   4.794 -0.4341 -0.8946 -0.2619
10489SOL    HW236315   3.227   7.056   4.754  0.1342 -0.2894  0.2518
10490SOL     OW36316   1.510   8.582   3.419 -0.2779  0.6288  0.2741
10490SOL    HW136317   1.601   8.610   3.414 -0.1005  0.3679  1.6567
10490SOL    HW236318   1.510   8.494   3.380 -0.4613  1.6884 -2.2058
10491SOL     OW36319   1.540   8.698   5.633 -0.0546 -0.0022  0.5182
10491SOL    HW136320   1.533   8.704   5.729  1.3599 -1.4391  0.7491
10491SOL    HW236321   1.471   8.755   5.600 -0.9901  0.0120  2.4039
10492SOL     OW36322   1.334   9.268   3.937  0.4702  0.3142  0.4200
10492SOL    HW136323   1.316   9.352   3.980  0.0611  0.8747 -0.8215
10492SOL    HW236324   1.373   9.292   3.853 -0.2380 -0.7133 -0.2179
10493SOL     OW36325   3.313   0.696   6.152  0.0100 -1.0022 -0.3351
10493SOL    HW136326   3.354   0.730   6.073  0.1737  1.3689  0.7145
10493SOL    HW236327   3.220   0.712   6.140  0.1751  0.7504  0.5566
10494SOL     OW36328   1.120   6.211   5.222 -0.4154  0.6140  0.5558
10494SOL    HW136329   1.200   6.170   5.254 -0.4984 -0.1730 -0.2161
10494SOL    HW236330   1.057   6.201   5.294  0.2775  1.5506  1.2952
10495SOL     OW36331   1.748   8.325   4.674  0.2165 -0.0486 -0.0040
10495SOL    HW136332   1.724   8.405   4.627  0.0004 -0.5975 -0.8393
10495SOL    HW236333   1.757   8.353   4.765  2.1670  1.3485 -0.5874
10496SOL     OW36334   2.096   6.940   4.888 -0.2715  0.0094  0.2342
10496SOL    HW136335   2.024   6.878   4.903 -1.1429  1.2585  1.3736
10496SOL    HW236336   2.076   6.978   4.802  0.7963 -1.9684 -0.9089
10497SOL     OW36337   3.190   8.810   6.464 -0.2600 -0.6629 -0.6019
10497SOL    HW136338   3.278   8.839   6.486  0.1588 -2.8132  0.7503
10497SOL    HW236339   3.133   8.855   6.526  0.0243 -0.2386 -0.6493
10498SOL     OW36340   3.162   8.897   5.314  0.5038 -0.0203 -0.1788
10498SOL    HW136341   3.072   8.901   5.346  0.8392 -3.1135  1.2643
10498SOL    HW236342   3.170   8.974   5.257 -2.8287  0.6541  0.1584
10499SOL     OW36343   2.572   6.547   3.923 -0.5544 -0.1205  0.3163
10499SOL    HW136344   2.583   6.452   3.926  1.1984  0.1034  1.9228
10499SOL    HW236345   2.652   6.582   3.962 -0.9878  2.0392 -0.6520
10500SOL     OW36346   3.180   9.705   3.085  0.7811  0.1683 -0.6150
10500SOL    HW136347   3.208   9.680   3.173 -0.2337 -1.5606 -0.7569
10500SOL    HW236348   3.217   9.793   3.072  1.6417  0.1009  1.1981
10501SOL     OW36349   3.867   8.234   4.131 -0.1767  0.2499  0.3087
10501SOL    HW136350   3.798   8.178   4.095  0.6428  0.2999 -1.3615
10501SOL    HW236351   3.868   8.311   4.075  0.9396  0.4563  0.5974
10502SOL     OW36352   2.668   7.361   5.697 -0.6900 -0.6134  0.2607
10502SOL    HW136353   2.757   7.327   5.710 -1.0855 -2.2666 -1.1148
10502SOL    HW236354   2.680   7.452   5.671  0.5229 -0.4292  1.3850
10503SOL     OW36355   2.436   8.139   3.188 -0.3754  0.4748  0.2592
10503SOL    HW136356   2.377   8.212   3.207  0.0723  0.8901  0.0692
10503SOL    HW236357   2.523   8.179   3.191 -0.2484  0.3857 -1.9622
10504SOL     OW36358   2.775   7.297   6.328  0.3142 -0.1390  0.2465
10504SOL    HW136359   2.754   7.225   6.269  0.7264  0.5506 -0.7616
10504SOL    HW236360   2.813   7.255   6.405 -0.2435 -1.0532  0.0330
10505SOL     OW36361   1.575   8.232   6.291 -0.2012 -0.0095 -0.0044
10505SOL    HW136362   1.629   8.247   6.214  0.6544 -1.4791  0.3036
10505SOL    HW236363   1.631   8.258   6.365  0.2335 -1.8647  0.3383
10506SOL     OW36364   3.504   9.762   3.329 -0.3571  0.2561  0.2566
10506SOL    HW136365   3.588   9.809   3.333  0.0947 -0.5709  0.6251
10506SOL    HW236366   3.452   9.800   3.399  0.3644 -0.4480  1.2002
10507SOL     OW36367   1.705   9.604   4.629 -0.4343 -0.0059  0.0059
10507SOL    HW136368   1.644   9.612   4.702  0.3041 -0.2527  0.6581
10507SOL    HW236369   1.741   9.515   4.637  1.0786  0.6321  0.4775
10508SOL     OW36370   1.773   8.359   4.948  0.1852  0.6484  0.3316
10508SOL    HW136371   1.704   8.426   4.945 -1.2953 -0.8782 -0.3835
10508SOL    HW236372   1.844   8.401   4.997 -0.9243  2.5443  0.3933
10509SOL     OW36373   1.693   9.406   2.506  0.3538 -0.1401  0.0360
10509SOL    HW136374   1.622   9.374   2.563  1.7707 -1.2203  1.2301
10509SOL    HW236375   1.687   9.351   2.428 -1.9326  1.6956 -1.1504
10510SOL     OW36376   3.926   7.407   4.784  0.4813  0.2284  0.1381
10510SOL    HW136377   3.989   7.358   4.838 -0.5424  0.3231  1.4551
10510SOL    HW236378   3.856   7.344   4.767  0.4589  0.4235 -0.4924
10511SOL     OW36379   3.689   8.679   6.832  0.0740 -0.1266 -0.4688
10511SOL    HW136380   3.600   8.715   6.826 -0.1021 -0.8357 -2.5569
10511SOL    HW236381   3.745   8.756   6.843 -0.7799  0.3345  0.7589
10512SOL     OW36382   3.009   7.601   4.386  1.0605 -0.2000 -0.5780
10512SOL    HW136383   2.983   7.527   4.330  1.3401  0.4249 -1.5476
10512SOL    HW236384   3.001   7.677   4.329 -1.5294  0.8403  1.0632
10513SOL     OW36385   2.865   9.969   4.733  0.6361  0.0437  0.4852
10513SOL    HW136386   2.879  10.039   4.669  1.0327  0.1358  0.6696
10513SOL    HW236387   2.851   9.891   4.680 -0.7702  0.4275  0.2585
10514SOL     OW36388   0.791   9.111   5.924  0.2333  0.3163 -0.1639
10514SOL    HW136389   0.828   9.023   5.919 -0.6423 -0.0080 -1.1835
10514SOL    HW236390   0.733   9.117   5.848 -0.4928  1.4114  0.4570
10515SOL     OW36391   3.634   8.965   5.675  0.3540 -0.3294  0.3387
10515SOL    HW136392   3.649   9.055   5.706 -0.7399 -0.2653  0.6896
10515SOL    HW236393   3.711   8.946   5.622 -0.2510  1.5066 -1.2918
10516SOL     OW36394   2.530   7.982   6.392 -0.2080  0.2089  0.2551
10516SOL    HW136395   2.475   8.055   6.422 -0.2064  1.2494 -2.1954
10516SOL    HW236396   2.619   8.015   6.399 -0.1556  0.1245 -0.0312
10517SOL     OW36397   1.568   6.626   3.659 -0.3899  0.0058  0.0715
10517SOL    HW136398   1.541   6.570   3.731  0.5038 -2.2611 -1.3010
10517SOL    HW236399   1.663   6.628   3.663 -0.4160  1.6241  0.2348
10518SOL     OW36400   2.396   8.892   4.370  0.7771  0.0303 -0.1185
10518SOL    HW136401   2.424   8.803   4.348 -1.2955 -0.5769 -0.4196
10518SOL    HW236402   2.302   8.892   4.353  0.1464  1.3135  3.0389
10519SOL     OW36403   2.531   9.177   3.496  0.4114  0.3968  0.3118
10519SOL    HW136404   2.436   9.178   3.511  0.5477 -1.4621  1.5197
10519SOL    HW236405   2.541   9.143   3.407 -0.0548 -0.1344  0.4535
10520SOL     OW36406   2.207   9.470   2.566  0.2458 -0.4111  0.1684
10520SOL    HW136407   2.171   9.393   2.523 -0.8955  0.4241 -0.4068
10520SOL    HW236408   2.269   9.506   2.502 -1.2983  0.7134 -0.7406
10521SOL     OW36409   2.942   9.316   6.268  0.2916 -0.0880  0.0623
10521SOL    HW136410   3.026   9.361   6.282  0.4323 -0.5165  0.6184
10521SOL    HW236411   2.890   9.339   6.345 -0.0715  0.1102 -0.2462
10522SOL     OW36412   4.549   9.670   4.857 -0.0201 -0.7498 -0.2848
10522SOL    HW136413   4.479   9.722   4.897 -1.0694 -1.2687 -1.4139
10522SOL    HW236414   4.590   9.731   4.795 -1.0105 -1.1238 -1.3371
10523SOL     OW36415   1.962   7.967   5.061 -0.4269 -0.2110 -0.0176
10523SOL    HW136416   2.019   7.892   5.045 -0.8599 -0.9391  1.7132
10523SOL    HW236417   2.003   8.014   5.133 -1.2161  0.0948  0.2406
10524SOL     OW36418   3.583   0.766   4.557  0.0784 -0.2879 -0.1201
10524SOL    HW136419   3.619   0.810   4.634 -1.0701  0.7084 -0.1428
10524SOL    HW236420   3.659   0.727   4.514  0.6150 -1.7488  2.0800
10525SOL     OW36421   2.880   1.038   3.589  0.0489 -0.5050  0.2025
10525SOL    HW136422   2.809   1.018   3.651  0.5866 -0.4528  0.8446
10525SOL    HW236423   2.849   1.114   3.541  0.4515  0.6958  1.7908
10526SOL     OW36424   0.417   0.298   7.214  0.0001 -0.4661  0.5638
10526SOL    HW136425   0.379   0.288   7.302 -0.1560 -1.8861  0.3530
10526SOL    HW236426   0.370   0.371   7.175 -0.3901 -0.2527  1.4255
10527SOL     OW36427   2.977   8.675   5.131  0.0105 -0.2878 -0.4575
10527SOL    HW136428   3.010   8.726   5.057 -0.0869  0.8561  0.2847
10527SOL    HW236429   3.050   8.617   5.155 -0.1877 -1.1434 -1.8633
10528SOL     OW36430   3.378   7.462   6.108  0.6451 -0.8837 -0.2618
10528SOL    HW136431   3.288   7.494   6.109  0.1495 -2.1808 -1.5555
10528SOL    HW236432   3.410   7.486   6.021  0.9098 -2.1299 -0.5155
10529SOL     OW36433   4.966   8.684   4.970 -0.1481 -0.2366  0.4950
10529SOL    HW136434   4.955   8.773   5.002  0.9423  0.7413 -1.7348
10529SOL    HW236435   5.060   8.666   4.980  0.3593  0.3708 -2.7559
10530SOL     OW36436   3.017   7.991   5.868  0.3863  0.3626  0.3454
10530SOL    HW136437   3.076   7.993   5.944 -0.5358 -0.3499  1.0891
10530SOL    HW236438   2.980   7.902   5.868 -0.3146  0.6440 -0.4062
10531SOL     OW36439   1.418   9.285   5.400  0.0010  0.0577 -0.0344
10531SOL    HW136440   1.354   9.236   5.348 -0.5441 -0.0258  0.7044
10531SOL    HW236441   1.366   9.351   5.447  0.2164 -1.0483  1.8174
10532SOL     OW36442   4.423   1.131   2.414  0.0590 -0.0690 -0.6059
10532SOL    HW136443   4.396   1.205   2.469  2.5056  0.6114 -0.2884
10532SOL    HW236444   4.342   1.104   2.370 -1.7665 -0.0004  2.5387
10533SOL     OW36445   2.868   0.103   5.118 -0.3053  0.4412  0.7371
10533SOL    HW136446   2.821   0.136   5.041 -1.0349  2.7543  2.1118
10533SOL    HW236447   2.886   0.011   5.098 -4.0372 -0.1182 -0.5296
10534SOL     OW36448   3.962   7.057   1.939  0.1653  0.2095 -0.0426
10534SOL    HW136449   3.991   6.969   1.914  0.4566  0.2544  0.1278
10534SOL    HW236450   3.904   7.084   1.868  1.2804  0.4875 -0.8713
10535SOL     OW36451   1.613   7.665   3.945 -0.0041 -0.0992 -0.1010
10535SOL    HW136452   1.525   7.665   3.906  1.1934 -1.0958 -2.9894
10535SOL    HW236453   1.621   7.578   3.984  0.0965 -0.4195 -0.8252
10536SOL     OW36454   2.727   0.170   4.906 -0.1540 -0.0978 -0.0960
10536SOL    HW136455   2.728   0.236   4.837  0.2576  0.3171  0.3107
10536SOL    HW236456   2.771   0.094   4.867  2.4493  1.0106  0.5701
10537SOL     OW36457   3.486   9.545   3.168 -0.8972  0.5065 -0.1909
10537SOL    HW136458   3.479   9.616   3.232  0.4599 -0.4458  1.0502
10537SOL    HW236459   3.548   9.484   3.207 -0.1706 -0.1883 -2.3436
10538SOL     OW36460   2.007   9.011   3.972 -0.6109  0.7016 -0.3341
10538SOL    HW136461   1.963   9.093   3.994 -2.3369 -0.2426 -0.1914
10538SOL    HW236462   1.986   8.953   4.046 -0.7109 -0.3448 -1.1792
10539SOL     OW36463   2.017   8.611   3.536 -0.5131  0.3895 -0.0631
10539SOL    HW136464   2.081   8.619   3.465  1.1878  3.0560  1.6812
10539SOL    HW236465   2.057   8.550   3.598 -0.9120 -0.0740 -0.2599
10540SOL     OW36466   3.391   8.369   4.167 -0.1671  0.0132  0.2102
10540SOL    HW136467   3.471   8.408   4.203 -0.0786  0.5260 -0.5385
10540SOL    HW236468   3.329   8.442   4.161  0.5638  0.4316 -2.8570
10541SOL     OW36469   3.308   8.296   5.820 -0.3563  0.2735 -0.2504
10541SOL    HW136470   3.275   8.248   5.744  0.5286 -1.4342  0.4038
10541SOL    HW236471   3.232   8.307   5.877 -0.4044 -1.2248  0.0096
10542SOL     OW36472   3.414   8.657   2.784  0.0654  0.4103  0.1481
10542SOL    HW136473   3.425   8.665   2.879 -1.4065 -1.9872  0.5522
10542SOL    HW236474   3.467   8.581   2.760  0.0124  0.6909 -0.8875
10543SOL     OW36475   1.110   7.706   5.751 -0.4382  0.6967  0.2587
10543SOL    HW136476   1.199   7.741   5.758 -0.0505  0.2660 -1.9906
10543SOL    HW236477   1.060   7.777   5.710 -0.5529  0.0762 -0.7029
10544SOL     OW36478   1.421   6.890   6.433  0.1153  0.3556  0.2760
10544SOL    HW136479   1.328   6.900   6.413 -0.3366 -0.9803  1.5543
10544SOL    HW236480   1.437   6.949   6.507 -0.2836 -1.0544  1.5319
10545SOL     OW36481   2.794   7.893   3.315 -0.6443 -0.1654 -0.1834
10545SOL    HW136482   2.865   7.833   3.338  2.0601  3.1100  0.5383
10545SOL    HW236483   2.754   7.916   3.399 -1.0916 -0.2999 -0.3610
10546SOL     OW36484   3.463   9.132   4.351 -0.2966  0.1875  0.4936
10546SOL    HW136485   3.520   9.198   4.312  0.2081  0.7828  2.2060
10546SOL    HW236486   3.393   9.181   4.394  0.2056 -0.3584  1.9710
10547SOL     OW36487   1.691   5.457   3.598  0.2916 -0.2968 -0.4065
10547SOL    HW136488   1.779   5.445   3.562 -0.1648 -1.2894 -1.1960
10547SOL    HW236489   1.632   5.442   3.523 -0.5690 -0.1144  0.2301
10548SOL     OW36490   4.267   8.796   4.112  0.6480 -0.2424 -0.0606
10548SOL    HW136491   4.286   8.794   4.205  1.0856  0.4955 -0.1238
10548SOL    HW236492   4.348   8.828   4.072  0.1408  0.3929 -0.5905
10549SOL     OW36493   2.032   7.662   3.612  0.0772  0.4271  0.1082
10549SOL    HW136494   2.036   7.567   3.620 -1.2388  0.3902  0.4410
10549SOL    HW236495   1.997   7.692   3.696 -0.9802  1.0814 -0.5507
10550SOL     OW36496   4.336   7.799   4.152  0.0734 -0.3565  0.1023
10550SOL    HW136497   4.424   7.766   4.170 -0.1190  0.5026  2.7958
10550SOL    HW236498   4.285   7.720   4.132  1.1281 -1.0107 -0.0180
10551SOL     OW36499   0.592   6.802   5.317 -0.4513 -0.2842 -0.3937
10551SOL    HW136500   0.553   6.734   5.262 -1.1278 -0.5027  0.3438
10551SOL    HW236501   0.627   6.754   5.393 -3.9807  0.4957  1.8405
10552SOL     OW36502   3.472   8.260   4.747 -0.3111  0.2778  0.1078
10552SOL    HW136503   3.554   8.211   4.748 -0.8882 -0.7825 -2.1780
10552SOL    HW236504   3.496   8.348   4.718  0.3761  0.7470  1.9925
10553SOL     OW36505   2.980   9.141   4.906  0.8436  0.4130  0.3442
10553SOL    HW136506   2.890   9.174   4.914  0.7263  0.0830  0.4335
10553SOL    HW236507   3.033   9.218   4.886  0.4413  0.5037 -0.3909
10554SOL     OW36508   3.026   9.360   4.670  0.4212 -0.2677 -0.6498
10554SOL    HW136509   2.943   9.350   4.623  0.6171 -0.5037 -0.9458
10554SOL    HW236510   3.034   9.455   4.684  1.4160  0.0456 -3.0372
10555SOL     OW36511   4.339   8.856   4.892  0.1611 -0.3191 -0.0212
10555SOL    HW136512   4.422   8.836   4.935 -0.2760  0.3523  1.1603
10555SOL    HW236513   4.296   8.918   4.951  0.1303  1.6492 -2.0780
10556SOL     OW36514   3.069   8.860   5.817  0.1436  0.8407  0.3719
10556SOL    HW136515   3.023   8.931   5.863  0.1134  0.1656  1.4151
10556SOL    HW236516   3.037   8.780   5.860 -0.5807  0.1272 -1.4587
10557SOL     OW36517   2.222   9.117   3.520  0.3382  0.1478  0.3512
10557SOL    HW136518   2.139   9.091   3.480  0.5322  0.0269  0.0244
10557SOL    HW236519   2.238   9.205   3.485  0.2167  0.2766  0.6198
10558SOL     OW36520   2.502   9.956   3.817 -0.0236  0.4701  0.2217
10558SOL    HW136521   2.590   9.939   3.782  0.5279  1.8734  0.8976
10558SOL    HW236522   2.444   9.908   3.758  1.3723 -3.2001  1.6330
10559SOL     OW36523   2.402   9.091   5.478 -0.4072  0.0392 -0.3554
10559SOL    HW136524   2.357   9.089   5.563  2.9217  0.4380  1.5281
10559SOL    HW236525   2.398   9.182   5.451 -0.3015  0.1631  0.0418
10560SOL     OW36526   2.825   8.230   6.667 -0.1254 -0.3113  0.3329
10560SOL    HW136527   2.876   8.235   6.748  1.0435  0.9402 -0.4554
10560SOL    HW236528   2.811   8.322   6.642 -0.3285 -0.6811 -0.9501
10561SOL     OW36529   2.059   9.824   3.976 -0.7982 -0.1260 -0.0772
10561SOL    HW136530   2.103   9.755   3.925 -0.6641  0.7535 -1.1755
10561SOL    HW236531   1.983   9.847   3.924 -2.2015 -1.1488  1.4844
10562SOL     OW36532   3.326   8.289   5.011 -0.2940 -0.0850  0.5402
10562SOL    HW136533   3.257   8.239   5.053 -1.6520 -0.3795 -1.9469
10562SOL    HW236534   3.311   8.277   4.917  0.7181  3.1254 -0.1054
10563SOL     OW36535   1.469   8.412   6.935  0.1285  0.2422 -0.3757
10563SOL    HW136536   1.480   8.409   6.840 -1.1831  0.1749 -0.5279
10563SOL    HW236537   1.409   8.485   6.951  0.8783  0.6951  0.4571
10564SOL     OW36538   1.919   9.429   5.388 -0.3822 -0.3310 -0.8654
10564SOL    HW136539   1.919   9.357   5.325  0.3305 -1.6041  0.5445
10564SOL    HW236540   2.010   9.458   5.391 -0.6757  0.6768 -1.4609
10565SOL     OW36541   4.231   7.762   4.666 -0.5655 -0.1379  0.1797
10565SOL    HW136542   4.222   7.713   4.748 -0.6346  0.6069  0.6154
10565SOL    HW236543   4.314   7.808   4.674  0.0824 -1.1173 -0.7350
10566SOL     OW36544   3.430   8.866   3.675 -0.0067 -0.4789 -0.2149
10566SOL    HW136545   3.420   8.932   3.607 -1.5956 -0.0641  0.4046
10566SOL    HW236546   3.405   8.910   3.756 -0.4214 -1.6406  0.3002
10567SOL     OW36547   2.709   8.008   2.822 -0.1958  0.0831  0.1203
10567SOL    HW136548   2.673   8.091   2.791 -0.5647 -0.3154 -0.5184
10567SOL    HW236549   2.633   7.957   2.848  0.0621  0.1278  0.9758
10568SOL     OW36550   4.061   8.307   3.451 -0.6458  0.1534 -0.4123
10568SOL    HW136551   4.086   8.399   3.453 -0.2478  0.0671 -1.2909
10568SOL    HW236552   4.075   8.280   3.360  0.1114 -1.0129  0.0368
10569SOL     OW36553   1.928   7.332   6.607 -0.0092 -0.4449  0.1138
10569SOL    HW136554   1.987   7.401   6.577  0.4731 -1.8780 -2.3733
10569SOL    HW236555   1.840   7.367   6.592  0.1893  0.8315  1.7964
10570SOL     OW36556   3.286   9.792   4.684 -0.1243  0.2062 -0.9025
10570SOL    HW136557   3.258   9.880   4.659 -0.3173 -0.0652 -1.6623
10570SOL    HW236558   3.311   9.751   4.602 -1.7195 -1.0518 -0.7865
10571SOL     OW36559   3.058   8.737   4.200 -0.2936 -0.2027  0.0369
10571SOL    HW136560   2.968   8.739   4.167 -0.1061  1.2550 -0.4133
10571SOL    HW236561   3.081   8.829   4.213  0.3377 -0.6461  2.3395
10572SOL     OW36562   1.446   8.100   5.010 -0.4634  0.4675 -0.3513
10572SOL    HW136563   1.399   8.184   5.008  0.2740  0.8629 -1.0217
10572SOL    HW236564   1.525   8.116   4.960  0.3485 -0.2344  0.6968
10573SOL     OW36565   1.708   9.313   6.257  0.0618 -0.1844 -0.1490
10573SOL    HW136566   1.778   9.319   6.192  1.0912  2.4865  1.1115
10573SOL    HW236567   1.729   9.381   6.321 -2.4361 -0.8890  1.5084
10574SOL     OW36568   2.356   7.340   3.476 -0.1861  0.1736  0.0602
10574SOL    HW136569   2.283   7.402   3.478  0.1544  0.5655  0.2734
10574SOL    HW236570   2.365   7.316   3.384 -1.6907 -1.1806  0.2209
10575SOL     OW36571   3.754   7.397   1.856 -0.4319 -0.6704 -0.2187
10575SOL    HW136572   3.756   7.485   1.819 -1.5156 -0.5048  0.0936
10575SOL    HW236573   3.682   7.399   1.920 -0.5877 -1.8253 -0.3383
10576SOL     OW36574   2.636   7.466   6.468  0.1003 -0.0091  0.1951
10576SOL    HW136575   2.678   7.426   6.393 -0.4857 -0.3989  0.0683
10576SOL    HW236576   2.658   7.409   6.542  1.1473  0.6820  0.4313
10577SOL     OW36577   0.910   6.710   4.573 -0.0366  0.3132  0.4301
10577SOL    HW136578   0.892   6.803   4.590 -0.5039  0.2654  0.1908
10577SOL    HW236579   0.826   6.666   4.586 -0.4753  0.2989 -2.1628
10578SOL     OW36580   2.366   7.725   7.439 -0.6339 -0.0491 -0.2906
10578SOL    HW136581   2.453   7.750   7.472 -0.1868  0.2452 -1.6507
10578SOL    HW236582   2.305   7.776   7.493  0.1065  0.8983 -0.3224
10579SOL     OW36583   2.355   8.154   6.753  0.4955  0.3315  0.4156
10579SOL    HW136584   2.310   8.226   6.797  1.5057  2.9016 -2.5970
10579SOL    HW236585   2.441   8.151   6.793  0.2532  0.4397  0.9459
10580SOL     OW36586   0.684   8.482   6.102 -0.9994 -0.1917 -0.1576
10580SOL    HW136587   0.708   8.553   6.161  2.1361 -1.5066  0.2379
10580SOL    HW236588   0.658   8.526   6.021 -0.2275  1.4577  0.4715
10581SOL     OW36589   3.193   8.045   6.104  0.3362  0.6866  0.0001
10581SOL    HW136590   3.234   7.983   6.164  1.1039 -1.7248 -2.9022
10581SOL    HW236591   3.192   8.128   6.152  0.0336 -1.3258  3.6813
10582SOL     OW36592   4.001   9.625   5.996 -0.7590  0.7256 -0.2498
10582SOL    HW136593   4.096   9.622   5.984 -0.8268 -0.7523 -0.4857
10582SOL    HW236594   3.990   9.646   6.089 -0.2050  0.7048 -0.1767
10583SOL     OW36595   2.098   6.568   6.322  0.7416  0.0457  0.1348
10583SOL    HW136596   2.132   6.485   6.355  1.9116  0.1030 -0.9083
10583SOL    HW236597   2.104   6.560   6.227  0.3569  1.1185  0.0175
10584SOL     OW36598   1.770   8.283   7.622 -0.3573 -0.3393 -0.1635
10584SOL    HW136599   1.748   8.376   7.610 -2.2123 -0.6653  0.5663
10584SOL    HW236600   1.799   8.277   7.713 -0.9485 -0.6036  0.0079
10585SOL     OW36601   2.160   7.451   6.937  0.8966  0.2218 -0.8702
10585SOL    HW136602   2.090   7.462   6.873 -1.3488  0.9321  1.6124
10585SOL    HW236603   2.201   7.537   6.942  0.4620  0.4219 -0.6909
10586SOL     OW36604   2.707   0.149   6.359  0.1299  0.3776 -0.3424
10586SOL    HW136605   2.702   0.117   6.449  0.2741  0.1716 -0.4064
10586SOL    HW236606   2.673   0.238   6.363 -1.7480 -0.3177 -0.4217
10587SOL     OW36607   4.125   0.071   6.932  0.5599 -0.1355  0.0432
10587SOL    HW136608   4.073   0.135   6.884 -0.7710 -1.0990  0.1751
10587SOL    HW236609   4.061   0.021   6.982  1.7541 -0.4580  1.2584
10588SOL     OW36610   0.906   9.592   8.034 -0.3194 -0.1777  0.7344
10588SOL    HW136611   0.986   9.558   8.074 -0.0438 -0.4309 -0.0315
10588SOL    HW236612   0.855   9.514   8.013  0.3876 -0.1498 -1.1885
10589SOL     OW36613   3.622   9.232   6.240 -0.1544 -1.0620 -0.1075
10589SOL    HW136614   3.570   9.179   6.179  0.5469 -1.0682 -0.7200
10589SOL    HW236615   3.659   9.301   6.185 -0.1593 -0.5906  0.4752
10590SOL     OW36616   1.250   8.674   6.323  0.1461 -0.0603  0.5909
10590SOL    HW136617   1.171   8.624   6.302  1.1333 -0.9879 -1.0098
10590SOL    HW236618   1.289   8.693   6.238 -0.5703  4.1059  1.0807
10591SOL     OW36619   2.645   6.132   7.408 -0.4468  0.3043 -0.7511
10591SOL    HW136620   2.680   6.050   7.374  1.2365  0.5773  0.2677
10591SOL    HW236621   2.671   6.133   7.500 -0.5472  1.9219 -0.7276
10592SOL     OW36622   3.342   8.776   5.479  0.1671 -0.3392  0.4303
10592SOL    HW136623   3.299   8.816   5.404 -0.8724 -2.0674  0.0832
10592SOL    HW236624   3.273   8.766   5.544  0.9032  0.4693  1.3593
10593SOL     OW36625   1.890   9.511   7.091 -0.1194 -0.0955  0.2041
10593SOL    HW136626   1.941   9.574   7.040  1.6634 -1.1417  0.6432
10593SOL    HW236627   1.814   9.492   7.037 -0.7478  2.5076  0.1079
10594SOL     OW36628   1.525   9.506   7.104 -0.6887 -0.0010  0.2768
10594SOL    HW136629   1.586   9.510   7.177 -0.7019  0.6743  0.2501
10594SOL    HW236630   1.448   9.553   7.133 -1.1768 -0.7914  0.2801
10595SOL     OW36631   4.144   8.689   5.334 -0.3673  1.1812 -0.0782
10595SOL    HW136632   4.173   8.745   5.406 -1.0292 -0.5607  1.5921
10595SOL    HW236633   4.224   8.650   5.300 -0.2175  0.4905  1.0302
10596SOL     OW36634   2.222   8.980   6.815  0.4964 -0.0275  0.2841
10596SOL    HW136635   2.158   9.043   6.780  1.6014  0.6687 -0.5409
10596SOL    HW236636   2.242   9.013   6.902 -0.9529 -0.7658  0.9058
10597SOL     OW36637   1.652   7.076   5.171  0.1049 -0.2834 -0.0143
10597SOL    HW136638   1.695   7.152   5.133 -1.9905  0.5144 -0.9109
10597SOL    HW236639   1.589   7.113   5.233  0.7205 -1.4072  1.3114
10598SOL     OW36640   0.698   8.811   6.288  0.6367  0.1893  0.4347
10598SOL    HW136641   0.646   8.857   6.353  0.4114  0.8219 -0.1916
10598SOL    HW236642   0.645   8.815   6.208  1.4135  0.3760 -0.0675
10599SOL     OW36643   3.111   9.976   6.136  0.3047 -0.5129  0.6284
10599SOL    HW136644   3.052   9.952   6.065  0.5654  2.2662 -0.5955
10599SOL    HW236645   3.053  10.013   6.203  0.3756 -0.1549  0.4950
10600SOL     OW36646   2.696   7.990   5.530 -0.4822 -0.5201  0.0351
10600SOL    HW136647   2.603   7.993   5.552 -0.3010  0.0915  0.7464
10600SOL    HW236648   2.737   8.048   5.594  0.4062 -0.9037 -0.1887
10601SOL     OW36649   3.020   0.335   6.398  0.2388  0.3172  0.6356
10601SOL    HW136650   2.977   0.363   6.317 -0.3686  0.4285  0.9986
10601SOL    HW236651   3.016   0.239   6.395  0.3307  0.3169  0.4772
10602SOL     OW36652   1.291   8.618   6.629 -0.2445  0.3046 -0.2040
10602SOL    HW136653   1.278   8.621   6.534  0.9339  0.8505 -0.3511
10602SOL    HW236654   1.212   8.574   6.662 -0.7860  0.3492 -1.4034
10603SOL     OW36655   3.575   8.975   7.199  0.5090 -0.1611 -0.0818
10603SOL    HW136656   3.501   8.974   7.139 -0.3427  2.3550  0.8410
10603SOL    HW236657   3.535   8.971   7.286  1.6409 -1.9397  0.3961
10604SOL     OW36658   2.348   8.485   7.201 -0.1027 -0.1755  0.5439
10604SOL    HW136659   2.278   8.419   7.208  0.6257 -1.1411 -1.1063
10604SOL    HW236660   2.314   8.549   7.139  1.2033 -1.6342 -1.7471
10605SOL     OW36661   3.109   8.504   9.008  0.1989 -0.0318 -0.0314
10605SOL    HW136662   3.014   8.488   9.008  0.5714 -2.5452 -1.7210
10605SOL    HW236663   3.122   8.568   8.937 -0.0961 -0.7995 -0.7928
10606SOL     OW36664   1.558   6.981   8.037 -0.0702  0.3129 -0.5691
10606SOL    HW136665   1.569   7.073   8.014 -1.3617  0.6394  0.0983
10606SOL    HW236666   1.467   6.974   8.067 -0.3943 -1.4288 -1.8362
10607SOL     OW36667   3.796   9.770   8.411 -0.2651  0.1947  0.0845
10607SOL    HW136668   3.760   9.830   8.346  0.9916 -0.7363 -1.5142
10607SOL    HW236669   3.726   9.707   8.426 -0.7604  0.7318  0.0456
10608SOL     OW36670   3.246   7.000   7.983 -0.4757 -0.3875  0.8088
10608SOL    HW136671   3.174   7.023   7.924  1.3122  1.0875 -0.8836
10608SOL    HW236672   3.261   6.907   7.969 -0.0780 -0.0529 -1.0917
10609SOL     OW36673   3.379   8.662   7.423 -0.2772  0.0328 -0.1177
10609SOL    HW136674   3.461   8.708   7.441 -0.8919  0.7210  1.0274
10609SOL    HW236675   3.311   8.722   7.454 -1.1436 -1.1506  0.3128
10610SOL     OW36676   4.733   8.290   7.171  0.0493  0.2537  0.6208
10610SOL    HW136677   4.721   8.354   7.101  1.2116  0.5516  0.6753
10610SOL    HW236678   4.827   8.273   7.171 -0.2756 -1.6781  0.4202
10611SOL     OW36679   1.747   9.095   6.452  0.0780  0.5453  0.0900
10611SOL    HW136680   1.704   9.140   6.525  0.6758  2.3949 -0.6811
10611SOL    HW236681   1.738   9.155   6.378  1.3195 -0.3993 -0.8378
10612SOL     OW36682   1.012   9.391   5.504  0.3197 -0.7656 -0.1521
10612SOL    HW136683   1.059   9.474   5.499  1.2244 -1.2827 -0.3617
10612SOL    HW236684   0.950   9.393   5.430  0.6608 -0.4773 -0.4267
10613SOL     OW36685   4.343   8.809   6.007 -0.6822 -0.9256  0.8091
10613SOL    HW136686   4.368   8.893   6.045  0.9421 -0.9074 -0.2692
10613SOL    HW236687   4.260   8.826   5.964  0.9766  0.8642 -1.7953
10614SOL     OW36688   4.248   9.238   6.631  0.0734  0.2353  0.4681
10614SOL    HW136689   4.299   9.200   6.559  0.2314 -1.2837  1.3572
10614SOL    HW236690   4.285   9.198   6.710 -1.0317  0.8089  1.2916
10615SOL     OW36691   1.655   8.544   7.486 -0.7363 -0.6392 -0.3390
10615SOL    HW136692   1.634   8.637   7.475 -3.4461 -1.3148 -1.2268
10615SOL    HW236693   1.604   8.516   7.562 -0.0578 -1.4617 -0.1668
10616SOL     OW36694   2.643   8.027   6.747  0.0431  0.1952 -0.1908
10616SOL    HW136695   2.669   8.061   6.833  0.6878  1.0633 -0.7255
10616SOL    HW236696   2.697   8.075   6.685  0.2104 -1.0689 -1.0349
10617SOL     OW36697   2.290   7.675   3.485  0.1406  0.4682  0.3269
10617SOL    HW136698   2.199   7.686   3.512 -0.1522  0.2624 -0.5580
10617SOL    HW236699   2.337   7.656   3.567 -1.1785 -3.0318  0.3578
10618SOL     OW36700   3.455   7.703   7.116 -0.1636  0.2810 -0.3798
10618SOL    HW136701   3.530   7.675   7.168  0.6943  1.8653 -0.7408
10618SOL    HW236702   3.492   7.737   7.035 -1.2671  0.9582 -0.6231
10619SOL     OW36703   1.925   8.537   6.170  0.1340  0.8699 -0.2631
10619SOL    HW136704   1.838   8.562   6.141 -0.3422  0.4159  0.7394
10619SOL    HW236705   1.985   8.590   6.117 -0.6640 -0.5649 -2.6823
10620SOL     OW36706   4.580   8.337   6.429 -0.7740 -0.5530  0.4595
10620SOL    HW136707   4.518   8.406   6.450 -0.1504  0.2583 -0.2879
10620SOL    HW236708   4.528   8.270   6.386 -0.9188  0.7589 -1.4944
10621SOL     OW36709   2.860   7.951   5.081  0.2520 -0.0699 -0.2093
10621SOL    HW136710   2.810   7.982   5.005 -1.5673 -2.0092  0.1618
10621SOL    HW236711   2.850   7.856   5.079  1.5795 -0.2663  1.5307
10622SOL     OW36712   2.181   8.628   7.810 -0.6912 -0.2432  0.1178
10622SOL    HW136713   2.266   8.630   7.766 -1.8225 -1.2340 -2.2024
10622SOL    HW236714   2.190   8.557   7.875  0.4987  0.1886  0.4316
10623SOL     OW36715   1.331   7.428   6.235 -0.9401  0.1313 -0.6684
10623SOL    HW136716   1.346   7.519   6.261 -0.0983  0.7568 -3.1631
10623SOL    HW236717   1.247   7.430   6.189 -1.6535 -0.6507  0.5835
10624SOL     OW36718   3.101   1.210   5.537  0.0225  0.2561  0.1422
10624SOL    HW136719   3.068   1.131   5.579 -0.9563  0.1479 -0.7985
10624SOL    HW236720   3.159   1.249   5.602  2.9504 -2.7928 -0.5031
10625SOL     OW36721   4.267   8.977   6.437 -0.3559 -0.2303  0.2718
10625SOL    HW136722   4.219   8.962   6.356 -0.9801  2.2870  0.1435
10625SOL    HW236723   4.209   8.943   6.505 -0.5333 -0.8782 -0.1945
10626SOL     OW36724   2.167   6.860   5.213 -0.0979  0.3171 -0.5771
10626SOL    HW136725   2.127   6.932   5.262 -1.4527 -1.1286  0.4918
10626SOL    HW236726   2.212   6.808   5.280  0.4260 -0.1311 -1.2715
10627SOL     OW36727   2.473   8.614   5.794 -0.1226  0.1748 -0.1623
10627SOL    HW136728   2.421   8.691   5.770 -0.3918  0.0999  0.1818
10627SOL    HW236729   2.497   8.574   5.710  0.2395  0.7817 -0.3495
10628SOL     OW36730   1.978   8.807   7.968 -0.0004  0.1472  0.3080
10628SOL    HW136731   2.064   8.802   8.009 -0.4182 -0.2791  1.1473
10628SOL    HW236732   1.917   8.811   8.042 -0.8571 -2.2211 -0.2387
10629SOL     OW36733   2.222   1.396   5.949  0.2270  0.3125  0.3850
10629SOL    HW136734   2.144   1.361   5.992 -0.7332  1.3725 -0.4734
10629SOL    HW236735   2.294   1.369   6.006 -0.8887  0.4603  1.9153
10630SOL     OW36736   1.732   9.554   7.304 -0.2329 -0.9027  0.1031
10630SOL    HW136737   1.787   9.492   7.256 -1.1624 -1.4241 -0.3100
10630SOL    HW236738   1.780   9.637   7.301  0.3546 -1.2601 -0.5667
10631SOL     OW36739   4.270   1.321   5.157  0.9302 -0.0044 -0.2890
10631SOL    HW136740   4.213   1.256   5.199  0.0603  0.4989 -0.6650
10631SOL    HW236741   4.260   1.304   5.063  0.0354  1.2160 -0.4232
10632SOL     OW36742   2.373   0.757   5.774  0.0949 -0.4495 -0.0874
10632SOL    HW136743   2.338   0.773   5.861 -2.0397 -1.5312 -0.7083
10632SOL    HW236744   2.432   0.682   5.786 -1.7781 -1.9340  0.0990
10633SOL     OW36745   2.775   5.910   5.672 -0.4058  0.0944 -0.2383
10633SOL    HW136746   2.705   5.912   5.737 -1.8973 -2.3691 -1.6871
10633SOL    HW236747   2.834   5.841   5.701  0.2998  0.7029 -0.1801
10634SOL     OW36748   2.014   0.041   6.414 -0.1416 -0.7289 -0.0783
10634SOL    HW136749   2.088   0.016   6.359 -1.8931 -1.7517 -2.0618
10634SOL    HW236750   1.973   0.115   6.368 -0.9421 -0.8365  0.4488
10635SOL     OW36751   3.143   0.263   5.910  0.4218  0.3743 -0.4793
10635SOL    HW136752   3.085   0.259   5.834 -0.6106 -0.1622  0.3229
10635SOL    HW236753   3.097   0.214   5.978  1.9240 -0.2544  0.1088
10636SOL     OW36754   2.978   7.306   7.190  0.2523  0.7317 -0.0458
10636SOL    HW136755   2.991   7.393   7.154 -0.7726  0.7031 -0.5011
10636SOL    HW236756   2.910   7.267   7.134  0.1405 -0.0633  0.6391
10637SOL     OW36757   2.256   7.509   7.719  0.0106  0.2629  0.1577
10637SOL    HW136758   2.228   7.598   7.696  0.2841  0.5197  0.8223
10637SOL    HW236759   2.208   7.488   7.799  1.0434  0.3661  0.8044
10638SOL     OW36760   2.533   7.879   5.068 -0.1694  0.0985  0.0526
10638SOL    HW136761   2.548   7.796   5.113  2.1429  0.7231  0.5342
10638SOL    HW236762   2.517   7.942   5.138 -0.8611  0.2562 -0.2475
10639SOL     OW36763   2.045   7.011   7.501 -0.6561 -0.0808  0.7340
10639SOL    HW136764   2.077   7.051   7.420 -0.5427  0.1978  0.9147
10639SOL    HW236765   2.036   7.084   7.562  4.3460 -0.8195  2.6750
10640SOL     OW36766   2.013   9.453   7.387  0.2873  0.2384 -0.0551
10640SOL    HW136767   1.985   9.526   7.442  0.7207 -0.6117  1.3114
10640SOL    HW236768   2.014   9.489   7.298 -1.0847  1.4307  0.4008
10641SOL     OW36769   3.362   9.472   5.808 -0.2333  0.3613  0.3338
10641SOL    HW136770   3.339   9.560   5.779 -1.0610  0.5495  1.5213
10641SOL    HW236771   3.281   9.422   5.797  0.1435 -0.1775 -0.0169
10642SOL     OW36772   2.967   7.039   7.997  0.1431  0.9035 -0.2012
10642SOL    HW136773   2.965   6.993   8.081  0.3362 -0.1731 -0.7754
10642SOL    HW236774   2.875   7.060   7.978  0.1046  1.1691  0.2961
10643SOL     OW36775   1.817   8.251   6.445 -0.1868 -0.3548  0.0322
10643SOL    HW136776   1.843   8.229   6.535 -1.0515 -1.5109  0.0039
10643SOL    HW236777   1.830   8.171   6.396 -1.1153 -0.1417 -0.5735
10644SOL     OW36778   3.651   9.534   5.377  0.2423 -0.3522  0.3487
10644SOL    HW136779   3.667   9.607   5.438  1.5344 -0.0017 -0.4014
10644SOL    HW236780   3.729   9.479   5.384  0.4248 -0.2773 -1.0396
10645SOL     OW36781   1.896   8.095   7.383  0.3300 -0.2515  0.5840
10645SOL    HW136782   1.912   8.010   7.343 -0.6092 -0.2192  0.1415
10645SOL    HW236783   1.982   8.138   7.383  0.4790 -0.5486 -0.6887
10646SOL     OW36784   3.311   7.862   6.588  0.6519  0.0545  0.6959
10646SOL    HW136785   3.251   7.788   6.580  1.0440 -0.1140 -0.8266
10646SOL    HW236786   3.254   7.940   6.583  0.3700 -0.1257  1.0903
10647SOL     OW36787   3.181   0.821   7.371  0.3687  1.4968 -0.5713
10647SOL    HW136788   3.176   0.766   7.292  1.5448 -0.5336  0.7359
10647SOL    HW236789   3.110   0.788   7.427  1.5533  0.7987  0.5279
10648SOL     OW36790   3.508   9.513   8.092 -0.0559 -0.5669 -0.1756
10648SOL    HW136791   3.433   9.454   8.098 -0.0630 -0.5779 -0.3668
10648SOL    HW236792   3.471   9.601   8.097  0.0317 -0.5900  0.9583
10649SOL     OW36793   3.234   7.315   5.247  0.3716  0.0537 -0.8264
10649SOL    HW136794   3.216   7.267   5.328  1.2575 -1.1084 -1.3038
10649SOL    HW236795   3.284   7.392   5.275 -0.1203  0.1436 -0.1774
10650SOL     OW36796   1.629   7.977   6.746 -0.6561 -0.3351  0.0927
10650SOL    HW136797   1.567   8.035   6.703  0.6926  2.1790  1.4099
10650SOL    HW236798   1.636   8.011   6.835 -0.6064 -3.1862  1.2583
10651SOL     OW36799   2.320   7.441   8.690  0.1703 -0.4361 -0.3010
10651SOL    HW136800   2.327   7.513   8.627  1.1784  0.9176  1.3430
10651SOL    HW236801   2.402   7.394   8.682  0.4010 -0.1159  0.1766
10652SOL     OW36802   1.741   9.242   6.695 -0.5410 -0.3727  0.1271
10652SOL    HW136803   1.717   9.270   6.784  0.9323 -0.7290  0.6534
10652SOL    HW236804   1.739   9.322   6.643  0.6149  0.2021  0.9462
10653SOL     OW36805   1.441   8.833   6.690  0.1785  0.5912 -0.1976
10653SOL    HW136806   1.516   8.827   6.630  0.6762 -0.2352  0.4962
10653SOL    HW236807   1.390   8.754   6.673 -1.3189  1.8165 -1.6560
10654SOL     OW36808   1.815   5.630   8.050 -0.5459 -0.4041 -0.0283
10654SOL    HW136809   1.721   5.624   8.033 -0.2915  0.7166 -1.8642
10654SOL    HW236810   1.824   5.707   8.105 -0.3854  1.3530 -2.4525
10655SOL     OW36811   3.107   8.587   6.319 -0.1922 -0.3479 -0.0559
10655SOL    HW136812   3.157   8.653   6.367 -1.9540  1.5306 -0.7384
10655SOL    HW236813   3.019   8.590   6.356 -0.3881 -2.1177 -0.3072
10656SOL     OW36814   2.339   8.981   5.213  0.3010 -0.1079 -1.1062
10656SOL    HW136815   2.369   9.024   5.294 -1.0757 -0.9409 -0.1265
10656SOL    HW236816   2.316   9.054   5.155  0.2277  0.5043 -0.3254
10657SOL     OW36817   4.604   8.599   5.481  1.0798  0.1695 -0.5687
10657SOL    HW136818   4.672   8.666   5.475 -0.8796  2.3479  0.8074
10657SOL    HW236819   4.537   8.637   5.538 -1.9903 -1.3013 -3.0250
10658SOL     OW36820   3.245   8.546   5.618 -0.1510  0.1022  0.4661
10658SOL    HW136821   3.240   8.479   5.686  0.3066  1.1102  1.5090
10658SOL    HW236822   3.158   8.587   5.618  0.1174  0.6907  1.0730
10659SOL     OW36823   4.871   7.910   7.993 -0.2434  0.3993  0.1633
10659SOL    HW136824   4.904   7.885   7.907 -1.2641 -0.4987  0.0208
10659SOL    HW236825   4.950   7.933   8.043  0.5890 -1.4705 -0.2344
10660SOL     OW36826   2.500   7.167   6.427 -0.1125  0.0932  0.1012
10660SOL    HW136827   2.442   7.104   6.384 -0.0404  1.0609 -1.4687
10660SOL    HW236828   2.579   7.167   6.373  0.3541  0.6360  0.7832
10661SOL     OW36829   0.657   6.650   7.565  0.2794  0.4164  0.4785
10661SOL    HW136830   0.592   6.581   7.574  1.6221 -0.8134  1.0138
10661SOL    HW236831   0.629   6.700   7.489  0.4023 -1.9995 -1.2241
10662SOL     OW36832   2.625   8.954   7.968  0.4495  0.0401 -0.5936
10662SOL    HW136833   2.661   8.888   7.908  0.4006 -0.0978 -0.4722
10662SOL    HW236834   2.628   9.036   7.919  0.9974  0.0429 -0.5562
10663SOL     OW36835   3.156   9.122   6.511  0.3519 -0.4019 -0.3219
10663SOL    HW136836   3.181   9.130   6.603 -0.2309 -0.9442 -0.1163
10663SOL    HW236837   3.217   9.181   6.465  0.2917  0.2868  0.4623
10664SOL     OW36838   3.959   9.469   7.520 -0.2051  0.0834 -0.7837
10664SOL    HW136839   3.969   9.564   7.514 -1.2298  0.3959  1.6853
10664SOL    HW236840   3.898   9.447   7.450 -0.2901  1.3138 -1.1129
10665SOL     OW36841   3.195   9.450   6.358 -0.1641  0.2309  0.2275
10665SOL    HW136842   3.173   9.504   6.434  1.6675  0.6509  0.4692
10665SOL    HW236843   3.201   9.513   6.286  1.2577  0.2789  0.3704
10666SOL     OW36844   4.224   9.318   6.944  0.1314  0.3940  0.1714
10666SOL    HW136845   4.318   9.315   6.924 -0.2918 -0.6954 -1.8471
10666SOL    HW236846   4.195   9.402   6.909  0.0851  0.0575 -0.6254
10667SOL     OW36847   2.442   8.154   7.482  0.2271 -0.0974 -0.4707
10667SOL    HW136848   2.463   8.237   7.524  1.6043  0.0736 -1.4536
10667SOL    HW236849   2.460   8.088   7.549  0.7934  0.2868 -0.2433
10668SOL     OW36850   2.715   7.695   9.145  0.6220  0.2851 -0.6717
10668SOL    HW136851   2.672   7.685   9.230  1.5484  1.0517 -0.0965
10668SOL    HW236852   2.686   7.781   9.114 -1.5192 -0.9561 -2.2027
10669SOL     OW36853   1.313   8.556   7.629  0.4684 -0.8124 -0.5865
10669SOL    HW136854   1.269   8.595   7.705  0.9351  0.9390 -1.1815
10669SOL    HW236855   1.335   8.468   7.657 -1.6370 -1.0606  0.4239
10670SOL     OW36856   2.158   7.099   6.506 -0.7519  0.3075 -0.0743
10670SOL    HW136857   2.179   7.120   6.597 -1.0099  1.5314 -0.2973
10670SOL    HW236858   2.234   7.049   6.475 -0.3958  0.4119  0.6181
10671SOL     OW36859   1.046   7.386   6.228 -0.0232 -0.2905  0.0007
10671SOL    HW136860   1.003   7.346   6.304 -0.9996 -1.1496 -0.9794
10671SOL    HW236861   0.991   7.460   6.205 -0.4066 -0.7635 -0.6142
10672SOL     OW36862   2.528   8.827   6.648  0.3642  0.3441  0.0432
10672SOL    HW136863   2.591   8.764   6.613 -1.3128 -1.5233  0.2857
10672SOL    HW236864   2.475   8.851   6.572  1.7437  2.4415 -0.3076
10673SOL     OW36865   1.390   8.931   5.533  1.1517  0.3961  0.4606
10673SOL    HW136866   1.427   8.892   5.454  0.1351  1.3394 -0.5079
10673SOL    HW236867   1.308   8.972   5.504  0.3434  0.0556  2.1612
10674SOL     OW36868   2.646   0.445   2.816 -0.7821 -0.0092 -0.3524
10674SOL    HW136869   2.636   0.445   2.720 -1.6295 -0.8584 -0.2780
10674SOL    HW236870   2.558   0.428   2.849 -0.1021 -1.9800  0.5231
10675SOL     OW36871   3.630   0.491   5.263  0.7160  0.0693  0.5728
10675SOL    HW136872   3.677   0.472   5.344  1.6630 -3.4719 -0.7045
10675SOL    HW236873   3.610   0.405   5.226 -3.0965  1.5372 -1.0719
10676SOL     OW36874   2.052   9.114   6.384  0.4374 -0.0505 -0.0708
10676SOL    HW136875   2.134   9.162   6.391 -0.0020  0.5244  1.4027
10676SOL    HW236876   1.984   9.182   6.381  0.1091 -0.4474 -3.5289
10677SOL     OW36877   1.805   8.003   7.082  0.1739 -0.3421 -0.2470
10677SOL    HW136878   1.800   8.072   7.016  0.9470 -0.6627 -0.6502
10677SOL    HW236879   1.899   7.994   7.100  0.1523 -1.8638 -0.8150
10678SOL     OW36880   1.944   8.888   5.650 -0.3900  0.8460  0.2330
10678SOL    HW136881   1.893   8.878   5.570 -1.2615  0.4054  0.8333
10678SOL    HW236882   1.881   8.922   5.715 -0.2457 -0.9016  1.3230
10679SOL     OW36883   2.925   7.052   8.592  0.2976  0.1575  0.3250
10679SOL    HW136884   2.961   7.140   8.601  0.7864  0.0848 -0.7434
10679SOL    HW236885   3.001   6.994   8.597  0.3952  0.0057 -2.0832
10680SOL     OW36886   4.147   7.757   7.307  0.1019  0.2079 -0.1701
10680SOL    HW136887   4.100   7.832   7.344  1.7930  0.8950  0.6338
10680SOL    HW236888   4.226   7.796   7.270  0.6350 -1.1050 -0.4028
10681SOL     OW36889   2.670   8.953   7.053  0.1352 -0.4698  0.0341
10681SOL    HW136890   2.659   9.022   7.119 -1.1555 -0.6359 -0.0019
10681SOL    HW236891   2.727   8.889   7.094  0.4524  0.0910  0.4763
10682SOL     OW36892   1.891   9.039   5.298 -0.1113 -0.0511 -0.0043
10682SOL    HW136893   1.868   9.098   5.226 -0.0745 -3.2196 -2.7322
10682SOL    HW236894   1.973   9.075   5.332  0.7051  0.6457 -2.5784
10683SOL     OW36895   2.243   8.489   5.294  0.2289  0.3098  1.0786
10683SOL    HW136896   2.166   8.433   5.296  1.6875 -1.7668  0.5293
10683SOL    HW236897   2.251   8.523   5.383 -1.8450  1.2924  0.9068
10684SOL     OW36898   2.385   5.515   6.082 -0.4680 -0.5295 -0.8357
10684SOL    HW136899   2.341   5.599   6.095  0.1678 -0.0172 -1.9073
10684SOL    HW236900   2.381   5.472   6.167 -2.6037 -0.2795 -0.7829
10685SOL     OW36901   0.686   6.596   7.869  0.5859  0.1574  0.0232
10685SOL    HW136902   0.752   6.529   7.850 -0.6124 -0.4515 -2.1216
10685SOL    HW236903   0.703   6.665   7.805 -0.4669  0.2781 -0.1270
10686SOL     OW36904   2.781   7.665   6.604  0.4055 -0.6537 -0.0530
10686SOL    HW136905   2.848   7.728   6.576  0.8216 -0.5788  1.1141
10686SOL    HW236906   2.757   7.619   6.524 -1.2340  2.2533 -1.3325
10687SOL     OW36907   2.336   9.026   4.893  0.5065 -0.0810  0.2950
10687SOL    HW136908   2.329   9.113   4.933  0.6184  0.7082 -1.3398
10687SOL    HW236909   2.249   8.989   4.900  0.2812  0.4585  0.3993
10688SOL     OW36910   4.543   6.659   8.634  0.3042  0.3519 -0.0577
10688SOL    HW136911   4.559   6.587   8.695  0.4981  1.1161  0.8139
10688SOL    HW236912   4.609   6.648   8.566  0.5909 -0.0668  0.2854
10689SOL     OW36913   2.502   8.183   7.030 -0.2643 -0.2202  0.3982
10689SOL    HW136914   2.444   8.134   7.087 -0.8259 -1.0052 -0.8238
10689SOL    HW236915   2.507   8.270   7.069  0.1074 -1.0221  2.1407
10690SOL     OW36916   3.188   9.120   6.810 -0.0045 -0.0511 -0.4933
10690SOL    HW136917   3.127   9.169   6.864 -0.6432 -1.4162  0.0621
10690SOL    HW236918   3.272   9.127   6.856 -0.7394 -1.9821  1.2209
10691SOL     OW36919   1.686   9.184   7.301 -0.4050  0.7845 -0.6562
10691SOL    HW136920   1.591   9.183   7.316 -0.1725 -1.7880  0.9276
10691SOL    HW236921   1.720   9.244   7.368 -0.7147 -0.1514  0.3666
10692SOL     OW36922   3.156   8.705   8.579  0.4183 -0.1024  0.4508
10692SOL    HW136923   3.205   8.645   8.635  1.1816 -0.6017 -0.7414
10692SOL    HW236924   3.220   8.738   8.516 -0.5437  0.0516 -0.4624
10693SOL     OW36925   4.806   1.724   7.185 -0.3506  0.6244  0.8565
10693SOL    HW136926   4.830   1.644   7.232  0.8671  1.1930  1.2276
10693SOL    HW236927   4.799   1.791   7.254 -2.3496  0.6390  0.6747
10694SOL     OW36928   1.381   8.099   7.121  0.1314 -0.4708  0.5058
10694SOL    HW136929   1.424   8.129   7.041 -1.0368  0.7604  0.3351
10694SOL    HW236930   1.312   8.040   7.091 -0.6008  0.3458  0.5757
10695SOL     OW36931   3.911   8.280   7.179 -0.4383 -0.0221 -0.0202
10695SOL    HW136932   3.991   8.238   7.211 -1.3810  0.0908  2.6227
10695SOL    HW236933   3.867   8.212   7.128  1.2009 -0.1595 -1.2989
10696SOL     OW36934   3.544   9.444   6.052 -0.2825  0.0263 -0.2678
10696SOL    HW136935   3.472   9.432   5.991 -0.6624  2.6715 -0.4062
10696SOL    HW236936   3.504   9.488   6.128  1.0625  1.0215 -0.1224
10697SOL     OW36937   3.011   9.212   6.983  0.3430  0.5863 -0.3207
10697SOL    HW136938   2.989   9.252   7.067  1.1735  3.3365 -1.3566
10697SOL    HW236939   2.929   9.213   6.933 -0.0648 -0.7220  0.2979
10698SOL     OW36940   2.319   8.578   7.472 -0.3435  0.1977  0.4524
10698SOL    HW136941   2.334   8.551   7.381 -2.0700 -0.0453  0.2236
10698SOL    HW236942   2.370   8.515   7.524 -0.0525 -0.2064 -0.3131
10699SOL     OW36943   1.987   8.848   7.306 -0.2666 -0.3896 -0.0300
10699SOL    HW136944   1.899   8.851   7.269 -0.4517 -0.0303  0.4191
10699SOL    HW236945   2.009   8.940   7.322  0.7925 -0.3777 -1.5262
10700SOL     OW36946   2.858   8.778   7.144  0.7773  0.4051 -0.0570
10700SOL    HW136947   2.934   8.721   7.135  0.1764 -0.5451  0.7599
10700SOL    HW236948   2.834   8.772   7.236  1.2738  2.7402  0.2463
10701SOL     OW36949   1.615   6.968   6.247 -0.7155 -0.3682  0.0459
10701SOL    HW136950   1.539   7.026   6.256 -0.8667 -0.5509 -0.0387
10701SOL    HW236951   1.578   6.880   6.254 -0.8690 -0.5295 -2.4907
10702SOL     OW36952   1.411   8.170   6.026 -0.5973 -0.1508 -0.9611
10702SOL    HW136953   1.348   8.234   6.060 -1.4114 -1.1394 -0.5938
10702SOL    HW236954   1.417   8.103   6.094  1.1083  0.0795 -0.8434
10703SOL     OW36955   1.693   9.179   7.745  0.0056  0.4703 -0.0800
10703SOL    HW136956   1.787   9.174   7.763 -0.4029 -1.3999  1.6462
10703SOL    HW236957   1.681   9.264   7.704  2.6024  0.3409 -1.1824
10704SOL     OW36958   1.913   9.589   4.901 -0.1299  0.1503 -0.5530
10704SOL    HW136959   1.997   9.556   4.931  1.0246  2.8574 -0.7043
10704SOL    HW236960   1.862   9.511   4.881  2.2436 -1.5256 -0.1822
10705SOL     OW36961   3.135   8.682   7.113 -0.1144  0.0198 -0.6147
10705SOL    HW136962   3.190   8.620   7.162 -0.6265  0.5337  0.6224
10705SOL    HW236963   3.180   8.766   7.123 -1.1821  0.4653  0.5028
10706SOL     OW36964   1.773   9.598   8.718  0.1173  0.3170 -0.2762
10706SOL    HW136965   1.803   9.655   8.647  0.5226 -0.4661 -0.7576
10706SOL    HW236966   1.757   9.514   8.674 -0.4125  0.0565  0.4245
10707SOL     OW36967   0.655   8.353   7.874 -0.6076  0.9740  0.2012
10707SOL    HW136968   0.619   8.397   7.951 -3.1115 -0.0131 -0.3572
10707SOL    HW236969   0.614   8.397   7.800 -1.9934 -1.2631 -0.4072
10708SOL     OW36970   1.739   5.448   7.349  0.2163 -0.2037 -0.3022
10708SOL    HW136971   1.754   5.536   7.385 -1.8011 -0.7436  1.9906
10708SOL    HW236972   1.673   5.460   7.282 -0.1041  0.0388  0.0538
10709SOL     OW36973   2.353   8.759   6.422  0.2447  0.1323  0.4720
10709SOL    HW136974   2.333   8.772   6.329 -0.8728  0.6091  0.7737
10709SOL    HW236975   2.281   8.802   6.469  1.2210  0.5848  1.5737
10710SOL     OW36976   3.552   9.559   6.544  0.5291 -0.4228 -0.1187
10710SOL    HW136977   3.580   9.633   6.490 -1.3926 -0.7992 -1.6614
10710SOL    HW236978   3.587   9.482   6.499  0.6429 -0.5996  0.2740
10711SOL     OW36979   2.046   9.130   5.908 -0.3048 -0.6454 -0.7958
10711SOL    HW136980   2.042   9.071   5.984 -1.0140  0.1724 -0.1909
10711SOL    HW236981   2.097   9.205   5.939  0.5262 -0.8964 -1.5371
10712SOL     OW36982   1.657   8.215   6.969 -0.3174 -0.1007  0.3985
10712SOL    HW136983   1.712   8.252   6.899 -1.4855  0.2024 -0.3947
10712SOL    HW236984   1.588   8.281   6.980  0.1892  0.1253  2.2716
10713SOL     OW36985   5.036   9.159   6.857  0.5727 -0.4758 -0.1181
10713SOL    HW136986   5.095   9.235   6.853 -0.4252  0.3612  0.8159
10713SOL    HW236987   5.008   9.146   6.767 -1.5842  2.1559  0.1153
10714SOL     OW36988   1.861   9.299   5.998  0.2220  0.1375  0.1064
10714SOL    HW136989   1.928   9.239   5.964 -0.6986 -0.5102 -0.6014
10714SOL    HW236990   1.781   9.272   5.953 -0.5587  0.7490  1.1272
10715SOL     OW36991   2.750   7.860   8.110  0.0380 -0.2419  0.2792
10715SOL    HW136992   2.668   7.864   8.157  0.9669  1.0084  1.8340
10715SOL    HW236993   2.753   7.940   8.058  0.9691  0.4824  1.4274
10716SOL     OW36994   3.426   8.580   7.159  0.5609 -0.1027  0.1379
10716SOL    HW136995   3.521   8.590   7.151  0.6555 -0.7074  0.4596
10716SOL    HW236996   3.411   8.575   7.253  0.1236  0.7997  0.1133
10717SOL     OW36997   3.949   9.296   5.679 -0.1759 -0.2416  0.0456
10717SOL    HW136998   3.955   9.340   5.595  2.0300  0.2159  0.4140
10717SOL    HW236999   3.950   9.202   5.658  0.8636 -0.1296 -0.4074
10718SOL     OW37000   3.915   1.415   6.543  1.0633  0.7656  0.6130
10718SOL    HW137001   3.883   1.491   6.494  1.4859  1.3807  1.3040
10718SOL    HW237002   3.994   1.387   6.496 -0.1612 -0.4574 -0.8074
10719SOL     OW37003   2.003   9.200   5.654  0.2904 -0.3747  0.1439
10719SOL    HW137004   2.067   9.266   5.678 -1.6771  1.7520 -0.2927
10719SOL    HW237005   1.971   9.165   5.737  2.0671 -1.5443  0.3595
10720SOL     OW37006   2.149   0.622   6.813  0.2049 -0.4366  0.0525
10720SOL    HW137007   2.239   0.625   6.844 -0.1657  1.5408  1.0332
10720SOL    HW237008   2.096   0.631   6.892 -0.7851  1.3318 -0.7665
10721SOL     OW37009   2.881   8.810   6.246  0.2361  0.0212 -0.4149
10721SOL    HW137010   2.841   8.731   6.282 -0.3508  0.7389  0.5120
10721SOL    HW237011   2.910   8.783   6.158  2.3271 -1.9360  0.8199
10722SOL     OW37012   0.552   8.891   6.544  0.1676  0.6042 -0.2428
10722SOL    HW137013   0.566   8.817   6.603 -2.0739 -0.1370 -0.5908
10722SOL    HW237014   0.555   8.968   6.601 -0.9643 -0.0340  0.7057
10723SOL     OW37015   2.428   9.587   6.932  0.2097 -0.3844  0.0315
10723SOL    HW137016   2.339   9.557   6.949 -0.4837  0.8510 -1.3269
10723SOL    HW237017   2.469   9.514   6.885 -0.6143 -0.2981 -0.8339
10724SOL     OW37018   2.466   6.959   5.935 -0.2855  0.4465 -0.5247
10724SOL    HW137019   2.425   7.027   5.880  0.7134 -0.3452 -2.2978
10724SOL    HW237020   2.519   6.908   5.874  0.4836 -0.7679  1.1252
10725SOL     OW37021   1.376   9.360   7.770 -0.4583  0.3096 -0.0768
10725SOL    HW137022   1.451   9.412   7.798  1.1868 -0.4049 -2.9603
10725SOL    HW237023   1.394   9.272   7.802  0.7397 -0.2066 -2.1296
10726SOL     OW37024   3.027   9.247   3.884 -0.8021 -0.5464 -0.5271
10726SOL    HW137025   3.092   9.298   3.835  0.0805 -0.0600  1.1372
10726SOL    HW237026   2.953   9.307   3.893  0.1862  0.4583  1.3211
10727SOL     OW37027   3.888   9.763   7.602  0.0306 -0.4691  0.4717
10727SOL    HW137028   3.793   9.764   7.598  0.0717 -0.9988 -0.9315
10727SOL    HW237029   3.909   9.805   7.686 -1.3814  1.7141 -0.2126
10728SOL     OW37030   2.022   7.967   8.086 -0.1741 -0.1843  0.5941
10728SOL    HW137031   2.039   7.970   8.180  0.7842  0.2353  0.4100
10728SOL    HW237032   1.927   7.960   8.080 -0.3847  1.5070  1.5605
10729SOL     OW37033   2.379   8.859   5.718 -0.2378 -0.4856  0.1736
10729SOL    HW137034   2.308   8.868   5.655  0.8640 -0.6211 -1.1073
10729SOL    HW237035   2.382   8.943   5.764 -2.5090 -1.1511  1.6417
10730SOL     OW37036   2.461   6.755   5.372  0.2737 -0.5111 -0.1816
10730SOL    HW137037   2.387   6.705   5.404 -1.5713  2.0488 -0.2486
10730SOL    HW237038   2.537   6.718   5.417 -0.8492 -3.9249 -0.9597
10731SOL     OW37039   2.655   7.243   6.635  0.1381 -0.1577 -0.5782
10731SOL    HW137040   2.642   7.171   6.697  1.3685 -0.5950 -0.8237
10731SOL    HW237041   2.583   7.233   6.572  0.7555 -1.6827 -1.0818
10732SOL     OW37042   2.902   8.442   4.823 -0.1440 -0.4645 -0.1520
10732SOL    HW137043   2.838   8.513   4.834  0.3422  0.3581 -2.4310
10732SOL    HW237044   2.852   8.371   4.783 -0.1509 -0.6592  0.2001
10733SOL     OW37045   2.303   8.747   6.149  0.0641 -0.8059 -0.0710
10733SOL    HW137046   2.221   8.700   6.132  1.5196 -2.9261 -1.4849
10733SOL    HW237047   2.290   8.832   6.107 -1.2644 -1.2501 -0.6148
10734SOL     OW37048   2.414   8.806   7.597  0.1164  0.0850 -0.4934
10734SOL    HW137049   2.350   8.787   7.529 -2.2391  0.6358  1.5271
10734SOL    HW237050   2.446   8.720   7.624 -2.4107 -0.4611  0.9333
10735SOL     OW37051   2.540   7.538   6.789 -0.0288 -0.9500  0.3249
10735SOL    HW137052   2.521   7.496   6.873 -0.8072 -1.0972  0.0759
10735SOL    HW237053   2.486   7.491   6.726 -1.3409  0.7684  0.1280
10736SOL     OW37054   3.106   9.091   7.398  0.4436 -0.2743 -0.2955
10736SOL    HW137055   3.162   9.016   7.418 -0.4093 -0.5590  1.0390
10736SOL    HW237056   3.051   9.102   7.475 -1.1908  0.1523 -1.4887
10737SOL     OW37057   3.391   9.278   6.390  0.2414  0.5474  0.0290
10737SOL    HW137058   3.465   9.268   6.330 -1.8860 -2.0695 -2.2852
10737SOL    HW237059   3.331   9.336   6.344 -1.0112 -0.7564 -0.0119
10738SOL     OW37060   2.941   8.580   4.417  0.6416  0.3778 -0.0816
10738SOL    HW137061   2.894   8.659   4.442  0.0469 -0.1669  0.5558
10738SOL    HW237062   2.880   8.532   4.360  0.9381  0.3156 -0.3454
10739SOL     OW37063   1.483   9.361   6.594  0.6728 -0.3737 -0.4495
10739SOL    HW137064   1.399   9.401   6.574  0.7834  0.2646  0.3646
10739SOL    HW237065   1.508   9.315   6.513 -0.7196 -1.0435 -0.5034
10740SOL     OW37066   2.829   7.889   7.558  0.4672 -0.0780  0.2692
10740SOL    HW137067   2.884   7.921   7.630 -0.1652  0.7457  0.4006
10740SOL    HW237068   2.743   7.873   7.599  0.5894 -1.2973  0.0567
10741SOL     OW37069   1.668   7.525   5.640  0.6209  0.2169  0.6149
10741SOL    HW137070   1.714   7.571   5.711  0.2344 -1.1030  1.7395
10741SOL    HW237071   1.630   7.448   5.682  0.4988 -0.6577 -1.0690
10742SOL     OW37072   2.757   8.185   7.649  0.0263  0.2630  0.2601
10742SOL    HW137073   2.811   8.111   7.624  1.2990  0.3159  2.7138
10742SOL    HW237074   2.684   8.146   7.697 -1.4632  0.3053 -1.8895
10743SOL     OW37075   2.040   6.459   5.974 -0.3412 -0.4844 -0.4699
10743SOL    HW137076   2.133   6.484   5.969 -0.4831 -0.1052 -1.2469
10743SOL    HW237077   2.026   6.402   5.899 -0.8787 -0.0559 -0.7034
10744SOL     OW37078   1.944   8.312   6.011 -0.1341  0.6053  0.9214
10744SOL    HW137079   1.852   8.304   6.036  0.3461  0.7943  2.8942
10744SOL    HW237080   1.971   8.397   6.047  1.6607 -0.9309  3.4151
10745SOL     OW37081   2.717   7.784   6.961  0.1603 -0.2516 -0.0081
10745SOL    HW137082   2.659   7.767   7.036  0.2407  0.1781  0.1539
10745SOL    HW237083   2.747   7.874   6.975  1.0102 -0.5363  0.0050
10746SOL     OW37084   2.977   8.409   8.123  0.0440  0.1411  0.1570
10746SOL    HW137085   2.883   8.412   8.137 -0.1543  0.1842 -1.1449
10746SOL    HW237086   3.000   8.317   8.134 -0.3145 -0.0346 -0.5835
10747SOL     OW37087   1.528   5.356   8.020  0.0016 -0.4595 -0.0408
10747SOL    HW137088   1.568   5.413   7.953  0.1714  0.1641  0.5840
10747SOL    HW237089   1.453   5.406   8.052  0.1581 -0.5913  0.5256
10748SOL     OW37090   5.077   9.296   7.492  0.5282 -0.2863 -0.1523
10748SOL    HW137091   5.144   9.314   7.426  1.0866 -0.0967  0.4597
10748SOL    HW237092   5.123   9.246   7.560  0.4685  1.3010  1.0839
10749SOL     OW37093   2.844   0.394   6.191 -0.4609  0.2075 -0.3921
10749SOL    HW137094   2.765   0.398   6.244  0.2313 -0.6284  0.7302
10749SOL    HW237095   2.826   0.450   6.116 -1.7979  0.6792  0.2728
10750SOL     OW37096   4.417   9.006   7.099 -0.1746 -0.4541 -0.4381
10750SOL    HW137097   4.432   9.093   7.137 -0.1731 -0.3569 -0.6621
10750SOL    HW237098   4.382   9.024   7.012 -1.3338 -0.6773 -0.0279
10751SOL     OW37099   2.992   7.678   7.544  0.3659 -0.3926  0.1502
10751SOL    HW137100   3.054   7.732   7.496 -0.6025  0.6034  0.0075
10751SOL    HW237101   2.916   7.735   7.559 -0.0291 -1.2097  1.3768
10752SOL     OW37102   3.362   7.483   7.671 -0.0911 -0.0443 -0.1755
10752SOL    HW137103   3.380   7.576   7.666  3.1262 -0.6738 -1.0294
10752SOL    HW237104   3.386   7.448   7.585  0.0117 -1.8766  0.5650
10753SOL     OW37105   2.713   6.856   7.339  0.2150 -0.4582  0.2909
10753SOL    HW137106   2.732   6.820   7.252 -2.3172 -0.0620 -0.4716
10753SOL    HW237107   2.693   6.780   7.393 -0.6663 -0.5386 -0.1375
10754SOL     OW37108   4.714   8.872   8.179 -0.3937 -0.0023  0.1726
10754SOL    HW137109   4.672   8.921   8.108 -1.1490 -1.0556 -0.1088
10754SOL    HW237110   4.808   8.886   8.165 -0.5986  1.6345  0.2938
10755SOL     OW37111   4.188   9.288   7.543 -0.6283 -0.0685  0.7313
10755SOL    HW137112   4.264   9.347   7.550  0.1197 -1.0067  0.6591
10755SOL    HW237113   4.114   9.346   7.530  0.0136  0.8986  1.3363
10756SOL     OW37114   2.363   8.139   5.149  0.0443 -0.3997  0.4514
10756SOL    HW137115   2.423   8.168   5.218  0.7185 -0.0955 -0.2577
10756SOL    HW237116   2.285   8.109   5.196  0.1951  0.5308  1.3128
10757SOL     OW37117   2.154   7.214   5.148  0.0198  0.8072 -0.2505
10757SOL    HW137118   2.063   7.228   5.173 -0.3269  0.6677 -1.4327
10757SOL    HW237119   2.203   7.277   5.202 -0.7088  0.4856  0.8008
10758SOL     OW37120   3.507   6.944   4.516  0.1494  0.2582 -0.8674
10758SOL    HW137121   3.470   6.872   4.566  1.4255 -0.6105 -1.1335
10758SOL    HW237122   3.461   7.022   4.546 -0.1951 -0.4728  0.5066
10759SOL     OW37123   3.948   9.070   5.961 -0.1069 -0.3043 -0.0314
10759SOL    HW137124   3.966   9.164   5.962  0.2859 -0.3771 -0.1626
10759SOL    HW237125   3.991   9.038   5.882  0.2194 -0.6845  0.2984
10760SOL     OW37126   2.435   9.339   6.769 -0.0575 -0.3628  0.3645
10760SOL    HW137127   2.467   9.261   6.813 -1.2778  0.0516  2.0592
10760SOL    HW237128   2.464   9.330   6.679  0.9339 -2.1324  0.8457
10761SOL     OW37129   9.687   8.811   6.982 -0.4575  0.0218 -0.4076
10761SOL    HW137130   9.728   8.726   6.996 -1.1214 -0.3013 -0.4168
10761SOL    HW237131   9.750   8.859   6.928  0.6038  0.0919  0.8618
10762SOL     OW37132   2.712   9.126   7.741 -0.3301 -0.3599  0.3122
10762SOL    HW137133   2.805   9.109   7.726 -0.1497  1.5927 -1.0453
10762SOL    HW237134   2.667   9.069   7.678 -0.0859 -1.5880  1.2342
10763SOL     OW37135   3.078   7.517   5.133 -0.5517 -0.1402  0.1522
10763SOL    HW137136   3.073   7.489   5.042  1.9421  1.7318 -0.6108
10763SOL    HW237137   3.112   7.442   5.180 -1.0813 -0.8436 -0.5748
10764SOL     OW37138   1.696   8.571   6.427 -0.3579  0.2843 -0.8170
10764SOL    HW137139   1.784   8.535   6.416 -0.5463 -1.0034  1.4808
10764SOL    HW237140   1.710   8.656   6.470 -0.2845 -0.7666  1.3087
10765SOL     OW37141   4.155   8.752   7.334 -0.2668 -0.3299  0.0741
10765SOL    HW137142   4.127   8.833   7.292 -0.9101 -0.8748 -0.5729
10765SOL    HW237143   4.089   8.688   7.307  0.8854 -1.3346 -0.3628
10766SOL     OW37144   1.763   8.387   6.790  0.0652 -0.4180 -0.2537
10766SOL    HW137145   1.821   8.455   6.756 -1.0481  0.7320  0.1392
10766SOL    HW237146   1.684   8.395   6.737 -0.5342 -0.6070  0.6112
10767SOL     OW37147   2.765   7.906   6.066 -0.6851 -0.5214 -0.2838
10767SOL    HW137148   2.734   7.991   6.035  0.1473 -0.8470 -2.0852
10767SOL    HW237149   2.692   7.872   6.119 -1.7466  0.5233 -1.0429
10768SOL     OW37150   2.178   8.085   7.551 -0.3418  0.2620  0.4595
10768SOL    HW137151   2.268   8.111   7.530 -0.5064 -1.4310 -2.5547
10768SOL    HW237152   2.183   7.991   7.567 -1.6642  0.0529 -0.3065
10769SOL     OW37153   2.617   8.918   5.433  0.1211 -0.0880 -0.7409
10769SOL    HW137154   2.558   8.844   5.417 -0.3854  0.3393 -0.8599
10769SOL    HW237155   2.559   8.993   5.448  0.6226  0.1368  0.1269
10770SOL     OW37156   3.753   9.633   7.895 -0.0000  0.1415  0.2484
10770SOL    HW137157   3.661   9.652   7.914  0.1872  1.5082 -0.1845
10770SOL    HW237158   3.787   9.595   7.975 -0.8693 -0.0946  0.5091
10771SOL     OW37159   4.352   9.109   6.098 -0.5956  0.0157 -0.5044
10771SOL    HW137160   4.399   9.190   6.119 -1.4421 -0.0618  1.8085
10771SOL    HW237161   4.262   9.126   6.124 -1.7509 -0.1229 -4.2013
10772SOL     OW37162   3.386   7.354   4.431  0.4651 -0.0486  0.2478
10772SOL    HW137163   3.381   7.336   4.337  2.0407 -0.7699  0.2835
10772SOL    HW237164   3.472   7.323   4.457  0.0331  0.1126  1.9548
10773SOL     OW37165   3.099   8.343   7.585  0.2586 -0.3640 -0.1890
10773SOL    HW137166   3.052   8.368   7.665 -0.5819  0.5787 -0.9606
10773SOL    HW237167   3.183   8.387   7.591  1.1963 -2.2533  1.3244
10774SOL     OW37168   1.596   7.330   4.806  0.9575 -0.5930  0.3634
10774SOL    HW137169   1.585   7.391   4.879  0.6350  0.1563 -0.2996
10774SOL    HW237170   1.546   7.253   4.831  0.7140 -0.2735  0.8658
10775SOL     OW37171   2.918   0.561   5.962 -0.7385 -0.3449  0.2176
10775SOL    HW137172   2.845   0.598   5.913 -1.8944 -1.7177  0.8431
10775SOL    HW237173   2.983   0.539   5.896 -0.5100  1.6961 -0.2661
10776SOL     OW37174   2.311   6.478   6.601 -0.3179 -0.1201 -0.1722
10776SOL    HW137175   2.238   6.421   6.575  0.3794 -1.4210  0.6775
10776SOL    HW237176   2.295   6.497   6.694  1.8246 -2.6061  0.7570
10777SOL     OW37177   1.493   8.889   9.122 -0.0079  0.1515  0.1321
10777SOL    HW137178   1.515   8.941   9.044  2.4772  1.1070  1.4063
10777SOL    HW237179   1.443   8.948   9.177  1.5932  0.7731  0.9514
10778SOL     OW37180   1.196   9.607   9.250 -0.2272 -0.5683  0.1139
10778SOL    HW137181   1.237   9.681   9.205  0.0019 -0.2516  0.8484
10778SOL    HW237182   1.236   9.605   9.336 -0.3327 -1.4692  0.1526
10779SOL     OW37183   3.667   7.807   8.361 -0.1371 -0.1257  0.0999
10779SOL    HW137184   3.702   7.888   8.323 -2.1369  0.5762 -0.3306
10779SOL    HW237185   3.734   7.741   8.344  0.9601  1.1695 -0.6752
10780SOL     OW37186   2.105   9.687   7.119 -0.3760 -0.4934  0.5471
10780SOL    HW137187   2.084   9.771   7.079  1.4438 -0.8629 -1.2423
10780SOL    HW237188   2.033   9.671   7.180 -0.4616  2.6254  1.3729
10781SOL     OW37189   3.797   9.282   0.409  0.0184 -0.2117 -0.0742
10781SOL    HW137190   3.776   9.323   0.493  0.1183 -0.0874 -0.1113
10781SOL    HW237191   3.892   9.290   0.401  0.0131 -0.2553 -0.1827
10782SOL     OW37192   4.666   8.523   8.872  0.4693 -0.3929  0.0403
10782SOL    HW137193   4.741   8.507   8.929 -1.1215  0.4615  2.4480
10782SOL    HW237194   4.672   8.616   8.850 -1.1302  0.2718  2.1965
10783SOL     OW37195   3.293   8.796   8.958  0.2824  0.0937 -0.0832
10783SOL    HW137196   3.199   8.785   8.951  0.4098 -0.8107 -0.4745
10783SOL    HW237197   3.320   8.830   8.872  0.4583 -0.7783 -0.3812
10784SOL     OW37198   4.054   0.161   9.548 -0.3412 -0.0388  0.9313
10784SOL    HW137199   4.126   0.173   9.610  0.8119 -0.4490 -0.2988
10784SOL    HW237200   3.996   0.099   9.592  0.7843 -0.8320  1.3556
10785SOL     OW37201   2.305   9.618   8.864 -0.4363  1.0773  0.7193
10785SOL    HW137202   2.229   9.643   8.812  0.8748 -0.4671 -2.0330
10785SOL    HW237203   2.286   9.528   8.893  0.6289  0.4455 -0.5399
10786SOL     OW37204   1.515   9.876   8.688  0.0029  0.4205 -0.0933
10786SOL    HW137205   1.475   9.851   8.605 -2.1563  0.0436  1.0028
10786SOL    HW237206   1.581   9.941   8.665 -2.0000  1.8635 -1.9155
10787SOL     OW37207   3.331   8.904   8.680  0.1132 -0.2965 -0.2182
10787SOL    HW137208   3.247   8.860   8.664  0.9167 -1.9209 -0.0639
10787SOL    HW237209   3.312   8.997   8.668 -1.4716 -0.7297 -1.2326
10788SOL     OW37210   0.870   7.612   0.078 -0.0614 -0.1204 -0.5306
10788SOL    HW137211   0.893   7.702   0.059  0.5110 -0.4806 -1.5931
10788SOL    HW237212   0.786   7.617   0.123 -0.1829  0.9210 -0.8718
10789SOL     OW37213   2.499   7.132   9.416  0.1577  0.3509 -0.4550
10789SOL    HW137214   2.527   7.223   9.428  1.1671 -0.1874  1.4262
10789SOL    HW237215   2.403   7.135   9.423  0.2817  1.0635  1.0336
10790SOL     OW37216   2.331   9.839   7.435 -0.2856 -0.2870 -0.0730
10790SOL    HW137217   2.355   9.898   7.364 -0.8414  1.1707  0.9174
10790SOL    HW237218   2.251   9.877   7.473 -0.2952 -1.3151  0.9896
10791SOL     OW37219   3.249   7.842   8.553  0.0242 -0.0133  0.3063
10791SOL    HW137220   3.284   7.764   8.510  0.0266 -0.5242  1.2206
10791SOL    HW237221   3.325   7.885   8.591  0.1549  0.9894 -1.0694
10792SOL     OW37222   3.651   9.417   7.640  0.2687 -0.3899  0.5276
10792SOL    HW137223   3.688   9.465   7.714  0.8619 -1.5562  0.9887
10792SOL    HW237224   3.702   9.446   7.564 -0.3192  0.7751  0.5595
10793SOL     OW37225   2.143   7.470   7.980 -0.6798  0.0875 -0.3024
10793SOL    HW137226   2.063   7.514   8.009 -1.0926 -0.5993 -0.3914
10793SOL    HW237227   2.138   7.383   8.020  0.4240  0.3311  0.3585
10794SOL     OW37228   3.717   9.858   9.662 -1.2501  0.7761  0.0054
10794SOL    HW137229   3.778   9.852   9.588  0.4206  1.0700  1.3183
10794SOL    HW237230   3.631   9.842   9.624 -0.3320  0.1635 -1.8687
10795SOL     OW37231   3.730   9.350   8.259  0.6595 -0.1395  0.0130
10795SOL    HW137232   3.638   9.346   8.286  0.4254  1.4115 -0.5092
10795SOL    HW237233   3.758   9.258   8.254 -1.7473 -0.7747 -2.8513
10796SOL     OW37234   1.848   7.804   7.819  0.0292 -0.1456 -0.1246
10796SOL    HW137235   1.823   7.844   7.736  0.5512 -0.5501 -0.4799
10796SOL    HW237236   1.944   7.797   7.814  0.1748  0.8590  0.9765
10797SOL     OW37237   2.192   0.045   7.743  0.5252  0.0902 -0.4084
10797SOL    HW137238   2.209  -0.044   7.774  2.3566  1.1441  1.6646
10797SOL    HW237239   2.275   0.073   7.704  0.5428  1.5932  0.6992
10798SOL     OW37240   1.421   9.156   7.321  0.7398  0.1389  0.0675
10798SOL    HW137241   1.438   9.065   7.297 -0.3418  0.3353 -1.5265
10798SOL    HW237242   1.337   9.154   7.365 -1.3081  0.8726 -3.6446
10799SOL     OW37243   3.506   8.384   8.925 -0.0446 -0.6012 -0.3052
10799SOL    HW137244   3.562   8.449   8.968  0.7665 -0.9865 -0.7893
10799SOL    HW237245   3.566   8.329   8.875 -0.8789 -0.7967 -1.1099
10800SOL     OW37246   3.992   8.846   7.802  0.4512  0.1851 -0.1607
10800SOL    HW137247   4.036   8.779   7.748  1.3939  0.2679  0.4855
10800SOL    HW237248   4.015   8.929   7.760  1.8110  0.3055  0.7750
10801SOL     OW37249   1.740   7.807   8.788  0.0074  0.3930  0.4145
10801SOL    HW137250   1.715   7.747   8.858 -3.0862  3.2204  1.9061
10801SOL    HW237251   1.669   7.800   8.724 -0.0158  1.8794  0.2559
10802SOL     OW37252   2.828   9.610   7.748 -0.3065  0.6420  0.2312
10802SOL    HW137253   2.900   9.579   7.693 -0.5523  1.3451 -0.5035
10802SOL    HW237254   2.750   9.571   7.710 -0.2624 -0.6733  1.4418
10803SOL     OW37255   2.103   9.663   9.250  0.3164 -0.1825 -0.3657
10803SOL    HW137256   2.179   9.607   9.260 -1.3200 -2.2459  0.9263
10803SOL    HW237257   2.077   9.654   9.158  0.3887 -1.1196 -0.2952
10804SOL     OW37258   9.594   9.624   8.813  0.1136  0.1401  0.2500
10804SOL    HW137259   9.503   9.602   8.791  0.5712 -1.8956  0.2910
10804SOL    HW237260   9.635   9.640   8.728  0.6066 -2.5846 -0.0453
10805SOL     OW37261   2.659   8.898   7.584 -0.1592  0.9154  0.1412
10805SOL    HW137262   2.684   8.886   7.492 -0.3252 -1.1634  0.3499
10805SOL    HW237263   2.565   8.876   7.586 -0.0793  0.6493  0.8667
10806SOL     OW37264   1.627   6.729   7.968  0.2384  0.1620 -0.0726
10806SOL    HW137265   1.719   6.730   7.943 -0.2036  0.0824 -1.7970
10806SOL    HW237266   1.604   6.822   7.976 -0.0165  0.2556 -1.6261
10807SOL     OW37267   2.805   1.320   7.784  0.1476  0.1834 -0.7260
10807SOL    HW137268   2.808   1.334   7.690  1.7282 -0.0117 -0.7228
10807SOL    HW237269   2.786   1.227   7.794 -0.8091  0.3650 -0.8408
10808SOL     OW37270   2.446   9.815   8.102  0.0657 -0.6127  0.6682
10808SOL    HW137271   2.401   9.892   8.068 -0.7679 -0.9508  0.9949
10808SOL    HW237272   2.539   9.835   8.091 -0.0959  1.1002  2.2073
10809SOL     OW37273   4.586   8.087   7.716 -0.6441  0.0838  0.1388
10809SOL    HW137274   4.662   8.074   7.773 -0.0422  0.7970 -0.4918
10809SOL    HW237275   4.519   8.030   7.753 -0.0487  0.0288  1.1652
10810SOL     OW37276   3.588   9.722   7.344  0.3609 -0.3288 -0.1235
10810SOL    HW137277   3.547   9.793   7.293  0.4256  0.3541  0.7683
10810SOL    HW237278   3.595   9.757   7.433 -0.6339 -1.8666  0.5756
10811SOL     OW37279   1.888   8.057   9.853  0.4099 -0.2918  0.7913
10811SOL    HW137280   1.960   8.053   9.790  0.4778 -0.8398  0.9006
10811SOL    HW237281   1.894   8.145   9.891  0.2242  0.1418 -0.1422
10812SOL     OW37282   2.743   9.308   9.293 -0.5434  0.6702  0.1557
10812SOL    HW137283   2.808   9.330   9.360  0.9107 -3.2320  0.1428
10812SOL    HW237284   2.787   9.329   9.210 -0.2059  0.2452  0.2272
10813SOL     OW37285   2.232   8.514   8.604  0.3415 -0.1975  0.0204
10813SOL    HW137286   2.253   8.508   8.697 -0.6401  1.4551  0.3799
10813SOL    HW237287   2.276   8.594   8.574 -1.4649  0.7251 -0.2901
10814SOL     OW37288   3.467   7.902   9.358 -0.2246  0.0477 -0.1445
10814SOL    HW137289   3.484   7.993   9.334 -1.4218  0.0170 -1.1141
10814SOL    HW237290   3.505   7.851   9.287 -1.8876 -0.1144 -0.9250
10815SOL     OW37291   2.302   8.813   8.429 -0.0886  0.6783  0.5018
10815SOL    HW137292   2.215   8.847   8.410  0.2126  0.8475 -0.6520
10815SOL    HW237293   2.360   8.890   8.421  0.2613  0.4118  0.4540
10816SOL     OW37294   3.352   7.121   8.486  0.7378 -0.5203  0.3487
10816SOL    HW137295   3.401   7.198   8.458 -1.1229  0.4315 -0.3411
10816SOL    HW237296   3.290   7.154   8.551  0.8962 -1.6915  1.1110
10817SOL     OW37297   2.225   9.041   8.614  0.5621  0.5249 -0.1163
10817SOL    HW137298   2.146   9.020   8.566  0.9517 -1.1575 -0.0667
10817SOL    HW237299   2.296   9.015   8.555  1.0405 -0.7374  0.9911
10818SOL     OW37300   0.322   8.645   8.126 -0.0015 -0.5569  0.1207
10818SOL    HW137301   0.349   8.700   8.053 -2.0690 -1.0148 -1.0382
10818SOL    HW237302   0.361   8.686   8.203  1.1851  0.6373 -1.0910
10819SOL     OW37303   3.145   9.505   7.328  0.0280  0.5079 -0.0264
10819SOL    HW137304   3.197   9.548   7.260  0.0750  0.3704 -0.0789
10819SOL    HW237305   3.067   9.473   7.282  0.6620 -0.7076 -0.2786
10820SOL     OW37306   3.454   7.818   9.607 -0.0154  0.4281 -0.3544
10820SOL    HW137307   3.468   7.878   9.534 -0.2837  0.8450 -0.0653
10820SOL    HW237308   3.539   7.816   9.652 -0.3539  1.6142  0.3909
10821SOL     OW37309   2.971   0.060   6.999  0.2787 -0.0738  0.2378
10821SOL    HW137310   2.967  -0.029   7.034 -0.9553 -0.0977  0.0517
10821SOL    HW237311   2.937   0.053   6.910 -0.8697  0.7637  0.5965
10822SOL     OW37312   2.258   8.837   8.068 -0.4257  1.0815 -0.1128
10822SOL    HW137313   2.290   8.761   8.116 -1.0622  1.1400  0.4105
10822SOL    HW237314   2.317   8.908   8.094 -0.5415  1.0297  0.2982
10823SOL     OW37315   3.773   7.518   8.721  0.1115 -0.3991 -0.2884
10823SOL    HW137316   3.690   7.551   8.687  1.0215  3.4115  0.9495
10823SOL    HW237317   3.753   7.490   8.810  0.2968  1.3522  0.3204
10824SOL     OW37318   3.376   7.188   9.292 -0.3768 -0.1200 -0.1505
10824SOL    HW137319   3.376   7.122   9.362  1.0890 -0.4019 -0.3999
10824SOL    HW237320   3.391   7.271   9.338 -1.4834 -0.0392  0.0822
10825SOL     OW37321   3.394   9.564   7.684  0.2110  0.0449  0.5188
10825SOL    HW137322   3.330   9.513   7.735 -1.2858 -0.8214 -2.0997
10825SOL    HW237323   3.462   9.500   7.660 -1.0523 -0.5317 -1.7388
10826SOL     OW37324   2.139   8.868   6.511  0.6842 -0.0809 -0.1058
10826SOL    HW137325   2.094   8.941   6.467  0.9448 -0.4007 -0.9212
10826SOL    HW237326   2.108   8.871   6.601  0.2698  0.7023 -0.2707
10827SOL     OW37327   4.433   6.862   8.792 -0.1122  0.2869 -0.0821
10827SOL    HW137328   4.476   6.805   8.728 -1.6299  0.4335 -1.2512
10827SOL    HW237329   4.350   6.819   8.811 -0.8983  1.6587 -0.3414
10828SOL     OW37330   2.488   9.666   8.635 -0.0845 -0.2001 -0.4454
10828SOL    HW137331   2.409   9.656   8.688 -0.8303  0.9211 -1.3121
10828SOL    HW237332   2.557   9.625   8.687 -0.4632  2.3197  2.1864
10829SOL     OW37333   2.344   9.050   0.296 -0.1112 -0.4516 -0.1199
10829SOL    HW137334   2.434   9.044   0.328 -0.1779 -0.6774  0.0205
10829SOL    HW237335   2.352   9.098   0.213  0.0558  0.1681  0.2497
10830SOL     OW37336   3.498   1.439   7.905 -0.4690 -0.3514 -0.4086
10830SOL    HW137337   3.576   1.490   7.883 -1.3365  0.4874 -1.6541
10830SOL    HW237338   3.479   1.463   7.996 -0.7946  1.4985 -0.9385
10831SOL     OW37339   2.153   8.799   8.771 -0.0914 -0.0499  0.0114
10831SOL    HW137340   2.206   8.855   8.714  0.8726 -0.2181  0.7397
10831SOL    HW237341   2.177   8.824   8.860 -2.4029  0.9772  0.3902
10832SOL     OW37342   4.485   8.434   8.159  0.0225  0.1019 -0.2957
10832SOL    HW137343   4.450   8.523   8.160  0.4686  0.2815 -0.8580
10832SOL    HW237344   4.458   8.397   8.244 -0.5014  0.6338 -0.2259
10833SOL     OW37345   1.771   8.696   7.757 -0.2281  0.4186  0.2356
10833SOL    HW137346   1.720   8.683   7.837  0.1348  1.1513  0.5922
10833SOL    HW237347   1.715   8.750   7.701 -0.1468  0.5972  0.3281
10834SOL     OW37348   2.551   9.103   6.834  0.8527  0.0571  0.2160
10834SOL    HW137349   2.559   9.034   6.768 -2.9833 -0.1586 -0.1268
10834SOL    HW237350   2.574   9.059   6.916 -0.4605 -1.3963 -0.1511
10835SOL     OW37351   4.600   7.376   9.841  0.5825  0.2337  0.6674
10835SOL    HW137352   4.542   7.434   9.890 -0.3228 -0.4038  0.3682
10835SOL    HW237353   4.627   7.427   9.765 -1.6425 -0.3296 -0.5350
10836SOL     OW37354   3.403   7.516   9.332  0.3866 -0.0515  0.0883
10836SOL    HW137355   3.474   7.510   9.395 -0.8150  0.1097  1.4878
10836SOL    HW237356   3.418   7.598   9.285  1.6819 -0.5240 -0.3360
10837SOL     OW37357   1.738   7.904   9.618 -0.7557 -0.1442  0.0208
10837SOL    HW137358   1.709   7.862   9.699 -0.6717 -0.9571 -0.3727
10837SOL    HW237359   1.794   7.976   9.648 -0.5222 -0.5903  0.6768
10838SOL     OW37360   3.548   7.545   9.570 -0.4214 -0.5223 -0.1124
10838SOL    HW137361   3.503   7.628   9.588 -0.0156 -0.1833 -0.6410
10838SOL    HW237362   3.628   7.549   9.622 -0.8670 -1.0080  0.6180
10839SOL     OW37363   2.970   8.871   8.422 -0.2005 -0.3317  0.3748
10839SOL    HW137364   2.981   8.917   8.506 -0.1994  1.3439 -0.5282
10839SOL    HW237365   2.876   8.849   8.419 -0.4035  0.5270  0.3502
10840SOL     OW37366   2.192   7.492   9.788 -0.1641  0.3879  0.5690
10840SOL    HW137367   2.194   7.510   9.695 -0.4655 -0.3596  0.4100
10840SOL    HW237368   2.211   7.398   9.795 -0.9894  0.2575  1.1870
10841SOL     OW37369   2.049   8.653   7.503 -0.1114  0.4064 -0.0992
10841SOL    HW137370   2.142   8.636   7.487 -0.3915 -1.3853  0.0674
10841SOL    HW237371   2.026   8.720   7.439  0.1917 -2.4776 -3.3960
10842SOL     OW37372   3.101   7.604   8.304  0.3093 -0.2347 -0.1119
10842SOL    HW137373   3.149   7.641   8.230  1.2056 -0.0678  0.5418
10842SOL    HW237374   3.040   7.674   8.330 -0.2017 -0.4010 -0.8709
10843SOL     OW37375   2.321   8.410   8.376 -0.5770  0.0134 -0.2537
10843SOL    HW137376   2.265   8.451   8.442  0.6805  1.0538  0.2005
10843SOL    HW237377   2.321   8.472   8.303  1.6779  1.0756  0.6068
10844SOL     OW37378   3.647   8.089   7.872 -0.2706 -0.0624  0.7918
10844SOL    HW137379   3.584   8.116   7.939 -2.1235  0.6219 -1.1529
10844SOL    HW237380   3.645   8.160   7.807  1.6161 -0.6054  0.0847
10845SOL     OW37381   2.466   8.697   8.687 -0.0856  0.1967  0.1795
10845SOL    HW137382   2.532   8.719   8.620 -0.2267 -1.8864 -0.6769
10845SOL    HW237383   2.445   8.781   8.728  0.2780  1.4595 -2.1452
10846SOL     OW37384   3.584   8.713   7.869 -0.1534  0.2232 -0.3623
10846SOL    HW137385   3.530   8.772   7.816 -0.5696  1.2594  1.1697
10846SOL    HW237386   3.641   8.772   7.920 -0.0204 -0.7276  0.6050
10847SOL     OW37387   3.283   0.981   8.896 -0.2113 -0.1879 -0.2557
10847SOL    HW137388   3.340   1.018   8.829 -0.7648 -0.5869 -0.9483
10847SOL    HW237389   3.274   0.889   8.872 -0.8053 -0.2218  0.0868
10848SOL     OW37390   2.719   7.124   7.287 -0.1662  0.4921  0.2950
10848SOL    HW137391   2.660   7.156   7.219  0.8788 -0.2387 -0.9705
10848SOL    HW237392   2.712   7.028   7.281  1.2372  0.4031  0.0727
10849SOL     OW37393   1.918   8.795   9.620  0.1070  0.3609 -0.4536
10849SOL    HW137394   1.951   8.874   9.661 -0.1428 -0.6144  1.6751
10849SOL    HW237395   1.997   8.745   9.597  0.2695  1.3041 -2.0032
10850SOL     OW37396   3.650   7.384   8.952  0.3440 -0.2693 -0.3871
10850SOL    HW137397   3.560   7.376   8.922  0.0129 -0.2201  0.5594
10850SOL    HW237398   3.664   7.307   9.007  0.9919 -0.4614 -0.8203
10851SOL     OW37399   3.765   7.390   9.431  0.4041  0.6130 -0.2324
10851SOL    HW137400   3.701   7.414   9.498  0.9685 -0.6061  0.7582
10851SOL    HW237401   3.839   7.354   9.479 -0.3044 -2.8479 -1.6275
10852SOL     OW37402   2.918   6.689   9.149  0.6004 -0.0039  0.3250
10852SOL    HW137403   2.918   6.725   9.061 -1.3223  0.0052  0.3192
10852SOL    HW237404   2.955   6.601   9.140 -0.2561 -0.2679 -0.6016
10853SOL     OW37405   2.345   9.031   7.293 -0.7233 -0.4120 -0.5025
10853SOL    HW137406   2.291   9.030   7.372 -0.4747 -2.5135 -0.3286
10853SOL    HW237407   2.283   9.047   7.222 -1.1672 -0.0174 -0.0282
10854SOL     OW37408   3.426   7.307   9.683  0.1974  0.4025  0.4420
10854SOL    HW137409   3.507   7.264   9.710 -0.4475 -0.5620  0.8659
10854SOL    HW237410   3.452   7.398   9.665  1.4433 -0.0043  0.1471
10855SOL     OW37411   3.813   6.805   9.687  0.7440 -0.0393  0.7058
10855SOL    HW137412   3.792   6.896   9.670  1.4136  0.1538  0.8843
10855SOL    HW237413   3.838   6.803   9.780 -0.1227 -0.5627  0.9278
10856SOL     OW37414   1.910   8.985   7.020  0.4496 -0.4782  0.2740
10856SOL    HW137415   1.901   9.066   7.070  1.7066  0.1514 -0.4814
10856SOL    HW237416   1.991   8.997   6.969  0.5004 -2.0883 -0.0603
10857SOL     OW37417   2.921   9.595   9.258  0.5202  0.2834 -0.6858
10857SOL    HW137418   2.836   9.636   9.247 -0.3226 -1.1977  0.2210
10857SOL    HW237419   2.976   9.663   9.296 -0.0594  1.4469 -1.8775
10858SOL     OW37420   2.903   9.468   8.762  0.4906  0.3228  0.1357
10858SOL    HW137421   2.963   9.499   8.830 -1.5269  2.6398  0.9470
10858SOL    HW237422   2.873   9.383   8.794  1.6771  0.1275  0.7692
10859SOL     OW37423   2.168   7.586   9.244 -0.0714  0.2353  0.3703
10859SOL    HW137424   2.251   7.631   9.226  0.0551  0.1241  0.6729
10859SOL    HW237425   2.141   7.551   9.159 -0.2326  0.9832  0.1107
10860SOL     OW37426   2.359   7.760   9.463 -0.1718 -0.2928 -0.4061
10860SOL    HW137427   2.327   7.798   9.544 -0.5231 -0.0687 -0.6472
10860SOL    HW237428   2.309   7.803   9.394 -1.7753 -2.3833 -0.5913
10861SOL     OW37429   2.940   7.957   9.001  0.2693  0.2173 -0.9264
10861SOL    HW137430   2.929   8.051   9.014  2.3163  0.6744 -2.1894
10861SOL    HW237431   2.947   7.947   8.906 -1.0105 -1.3577 -0.8766
10862SOL     OW37432   3.197   8.319   0.602 -0.1619 -0.0184 -0.2459
10862SOL    HW137433   3.112   8.341   0.640  0.4202  1.0743  0.4270
10862SOL    HW237434   3.260   8.341   0.670  0.6915 -0.5030 -0.8746
10863SOL     OW37435   2.739   9.070   9.871  0.0191 -0.0109  0.0714
10863SOL    HW137436   2.827   9.105   9.884  0.5066 -1.1274 -0.1780
10863SOL    HW237437   2.682   9.134   9.913  0.9653  0.5993  0.4511
10864SOL     OW37438   2.063   9.019   9.720 -0.0311 -0.2643  0.0071
10864SOL    HW137439   2.055   8.971   9.802  1.5607 -1.3437 -0.4582
10864SOL    HW237440   2.098   9.104   9.745 -0.0643 -0.3969  0.5088
10865SOL     OW37441   0.466   6.043   9.875  0.3641 -0.2408  0.7314
10865SOL    HW137442   0.387   5.998   9.845  0.3749  1.3076 -1.8025
10865SOL    HW237443   0.437   6.097   9.949 -0.6086 -0.8407  0.7889
10866SOL     OW37444   2.067   9.837   9.440  0.2432 -0.2820 -0.0613
10866SOL    HW137445   2.129   9.798   9.502 -0.2302 -0.9978 -0.0301
10866SOL    HW237446   2.076   9.783   9.361  0.8376  0.6228 -0.6174
10867SOL     OW37447   1.706   8.831   8.279 -0.2046  0.2615  0.2247
10867SOL    HW137448   1.678   8.823   8.370  0.4206 -0.7772  0.3274
10867SOL    HW237449   1.780   8.891   8.281  1.4197 -1.7357  0.7324
10868SOL     OW37450   2.339   8.157   8.120  0.2820 -0.1505 -0.4473
10868SOL    HW137451   2.392   8.157   8.200  0.0018 -1.6571 -0.2340
10868SOL    HW237452   2.249   8.173   8.151  0.2594 -0.1369 -0.5192
10869SOL     OW37453   2.387   7.545   8.030 -0.2505 -0.1999  0.2590
10869SOL    HW137454   2.398   7.505   8.116 -2.3201 -1.5244 -0.0610
10869SOL    HW237455   2.296   7.528   8.007  0.0089  1.0108 -1.7632
10870SOL     OW37456   4.150   7.039   8.834 -0.2773 -0.0091  0.8357
10870SOL    HW137457   4.059   7.021   8.809  0.3787 -1.3542 -0.6523
10870SOL    HW237458   4.194   7.056   8.751  0.8446  0.5793  1.5494
10871SOL     OW37459   2.260   9.450   8.298  0.1449 -0.6185 -0.0330
10871SOL    HW137460   2.301   9.460   8.212  0.2484 -1.6574 -0.1126
10871SOL    HW237461   2.315   9.501   8.357 -2.4831  3.9305 -1.2959
10872SOL     OW37462   3.568   8.761   0.833 -0.3165  0.4196  0.2996
10872SOL    HW137463   3.525   8.825   0.889  1.1456  0.7395  1.1048
10872SOL    HW237464   3.661   8.765   0.858 -0.1872 -2.0304  0.3947
10873SOL     OW37465   4.359   8.652   9.795  0.2750 -0.4147  0.0398
10873SOL    HW137466   4.323   8.737   9.769 -0.3258 -0.0963  1.8137
10873SOL    HW237467   4.451   8.669   9.814 -0.1142  0.1096  1.5211
10874SOL     OW37468   2.496   9.211   9.037 -0.0268  0.8439 -0.5928
10874SOL    HW137469   2.412   9.166   9.048 -0.6662  1.7452 -1.7583
10874SOL    HW237470   2.542   9.160   8.971  0.6175 -0.0155  0.4984
10875SOL     OW37471   3.326   8.163   8.302 -0.2065  0.0745 -0.6691
10875SOL    HW137472   3.262   8.091   8.303  1.5959 -1.5341  1.3908
10875SOL    HW237473   3.332   8.191   8.393  1.0064  1.1805 -1.0792
10876SOL     OW37474   0.680   7.915   9.023 -0.1177  0.0072 -0.1227
10876SOL    HW137475   0.697   7.839   8.968 -1.4610  0.3285 -1.0208
10876SOL    HW237476   0.597   7.951   8.990  0.0598  1.3621  0.8272
10877SOL     OW37477   3.179   9.808   8.549  0.7283  0.2920  0.1800
10877SOL    HW137478   3.199   9.757   8.628 -0.5570 -0.5420 -0.0096
10877SOL    HW237479   3.149   9.892   8.582  0.6597  0.1195  0.5628
10878SOL     OW37480   2.925   8.144   9.674  0.1431 -0.0255 -0.1726
10878SOL    HW137481   2.961   8.066   9.632  1.2074  1.7695 -2.6792
10878SOL    HW237482   2.836   8.118   9.700  0.5911 -2.1470 -0.6481
10879SOL     OW37483   1.295   9.957   9.831 -0.7414 -0.2256 -0.0301
10879SOL    HW137484   1.292   9.872   9.788  0.1628  0.3816 -1.3416
10879SOL    HW237485   1.389   9.976   9.841 -0.9201  0.8311 -0.2244
10880SOL     OW37486   2.808   8.095   7.972  0.4910 -0.5463  0.5582
10880SOL    HW137487   2.834   8.109   7.881 -0.9602  0.2806  0.2454
10880SOL    HW237488   2.885   8.118   8.023  0.8744  0.3474 -0.4061
10881SOL     OW37489   3.996   9.112   6.491 -0.2311  0.5544  0.1675
10881SOL    HW137490   3.969   9.058   6.565  2.1364  0.1638  0.8052
10881SOL    HW237491   4.080   9.150   6.518 -0.1033  1.6894 -1.6913
10882SOL     OW37492   2.861   8.602   7.386  0.0841  0.0761 -0.2452
10882SOL    HW137493   2.803   8.528   7.402 -0.3366  0.5322  0.3741
10882SOL    HW237494   2.941   8.563   7.352  0.0052 -0.7008  0.4438
10883SOL     OW37495   3.461   8.128   8.637 -0.5253 -0.5422 -0.0621
10883SOL    HW137496   3.479   8.156   8.726  0.1229  0.3984 -0.4771
10883SOL    HW237497   3.394   8.188   8.605  0.4517  0.1909 -0.7620
10884SOL     OW37498   3.770   9.112   9.080  0.1220  0.3666 -0.0774
10884SOL    HW137499   3.833   9.181   9.058  0.4898  0.3748  0.9564
10884SOL    HW237500   3.770   9.110   9.176 -1.4505  0.3576 -0.0661
10885SOL     OW37501   3.516   9.084   9.353 -0.3483 -0.2480  0.4386
10885SOL    HW137502   3.446   9.030   9.387 -0.9477 -0.3968 -0.9987
10885SOL    HW237503   3.511   9.165   9.403 -1.4610 -0.3108  0.4338
10886SOL     OW37504   2.975   9.202   8.008  0.2686 -0.0956  0.2442
10886SOL    HW137505   2.921   9.125   8.023  0.6074 -0.2512  0.6697
10886SOL    HW237506   3.032   9.177   7.934  0.0686 -0.0903  0.0893
10887SOL     OW37507   3.026   7.101   7.476 -0.4255  0.3674  0.0852
10887SOL    HW137508   3.041   7.039   7.548 -0.2494 -0.1526 -0.3987
10887SOL    HW237509   3.109   7.150   7.469  0.2991 -0.9841 -1.1119
10888SOL     OW37510   3.152   9.215   8.304 -0.0009  0.0150 -0.2085
10888SOL    HW137511   3.092   9.159   8.353  0.6646 -1.1746 -0.7418
10888SOL    HW237512   3.175   9.285   8.366 -0.4477 -0.5715  0.6333
10889SOL     OW37513   1.239   7.310   8.886 -0.3489  0.1304 -0.0749
10889SOL    HW137514   1.158   7.291   8.839  0.0912 -0.2329 -0.6922
10889SOL    HW237515   1.254   7.403   8.871 -0.6552  0.2008  0.0504
10890SOL     OW37516   1.755   8.195   9.631 -0.1430  0.1174 -0.3648
10890SOL    HW137517   1.771   8.290   9.637 -0.1083  0.0465  0.9237
10890SOL    HW237518   1.784   8.161   9.716 -0.4718 -1.0075 -0.6992
10891SOL     OW37519   3.556   7.486   9.933  0.2969  0.1169  0.7377
10891SOL    HW137520   3.635   7.483   9.879 -0.8635  0.5402 -0.9920
10891SOL    HW237521   3.578   7.547  10.003  1.3509  0.5672  0.0240
10892SOL     OW37522   2.595   9.272   8.202 -0.1431  0.2789  0.0714
10892SOL    HW137523   2.603   9.269   8.106 -0.7873 -2.5235  0.0625
10892SOL    HW237524   2.676   9.232   8.234  0.6722  2.4477  0.7401
10893SOL     OW37525   3.093   9.756   0.057 -0.0294  0.4353  0.0603
10893SOL    HW137526   3.121   9.829   0.002 -1.9329 -0.1015 -1.7029
10893SOL    HW237527   3.036   9.796   0.123  1.8972  1.0149  1.4219
10894SOL     OW37528   3.121   9.179   8.983  0.3615  0.1918  0.3409
10894SOL    HW137529   3.113   9.154   9.075 -0.3328 -0.3343  0.1414
10894SOL    HW237530   3.156   9.268   8.985 -0.0652  0.3469  1.1222
10895SOL     OW37531   3.433   7.963   9.069 -0.0832 -0.4782  0.1213
10895SOL    HW137532   3.518   7.921   9.058 -0.8122 -1.4945 -1.9204
10895SOL    HW237533   3.371   7.891   9.075 -1.0199  0.2694 -0.4633
10896SOL     OW37534   3.841   8.993   7.146 -0.8862  0.1044  0.2331
10896SOL    HW137535   3.750   8.966   7.157 -0.8550 -0.1121 -0.0286
10896SOL    HW237536   3.854   9.061   7.212 -1.4209  0.5707 -0.1323
10897SOL     OW37537   1.167   1.047   9.599 -0.1786  0.2959 -0.2284
10897SOL    HW137538   1.262   1.043   9.603 -0.1646  0.2574 -0.5601
10897SOL    HW237539   1.140   0.965   9.558 -0.3680  0.2018  0.0888
10898SOL     OW37540   2.302   8.955   9.573 -0.4676  0.9334 -0.0629
10898SOL    HW137541   2.383   8.972   9.621  0.3963  0.6388 -1.4053
10898SOL    HW237542   2.233   8.972   9.637  0.6757 -0.2332  1.5453
10899SOL     OW37543   1.209   8.392   9.322 -0.1478  0.3495  0.4811
10899SOL    HW137544   1.239   8.303   9.305 -0.2957  0.8430 -2.6489
10899SOL    HW237545   1.289   8.443   9.334  0.0685  0.3900 -1.0453
10900SOL     OW37546   2.480   7.851   8.206 -0.0875  0.0541  0.1599
10900SOL    HW137547   2.433   7.777   8.245  0.0196 -0.8147 -1.3605
10900SOL    HW237548   2.517   7.897   8.281 -1.7157 -0.3679  1.2540
10901SOL     OW37549   2.969   8.483   6.639  0.0372  0.0158 -0.1241
10901SOL    HW137550   2.920   8.535   6.703 -2.0756 -0.7224 -1.1032
10901SOL    HW237551   2.945   8.521   6.554 -0.6839 -1.8566 -0.7766
10902SOL     OW37552   2.724   8.449   8.289 -0.5907 -0.5306  0.2511
10902SOL    HW137553   2.715   8.528   8.342  2.6363 -0.2222  0.4406
10902SOL    HW237554   2.684   8.470   8.205  0.2487  1.2968  0.3041
10903SOL     OW37555   2.436   9.469   9.835  0.0115  0.4705 -0.1439
10903SOL    HW137556   2.484   9.406   9.783  1.8366  1.0642  0.7907
10903SOL    HW237557   2.475   9.554   9.814 -2.5970  1.3937 -1.6031
10904SOL     OW37558   4.387   0.081   8.485  0.1165 -0.0871 -0.1430
10904SOL    HW137559   4.403   0.054   8.394  1.5982 -0.3773  0.1975
10904SOL    HW237560   4.375   0.176   8.479 -4.1929 -0.5776 -1.2143
10905SOL     OW37561   2.786   7.508   7.368  0.6970 -0.0876 -0.1025
10905SOL    HW137562   2.707   7.534   7.415  0.5883 -0.3633 -0.1307
10905SOL    HW237563   2.841   7.587   7.367  0.6545 -0.0508  0.3951
10906SOL     OW37564   3.846   9.274   8.733  0.0475 -0.2369  0.3094
10906SOL    HW137565   3.807   9.327   8.663  3.0913 -0.8607 -1.9679
10906SOL    HW237566   3.890   9.338   8.789 -0.3628  0.0653  0.2879
10907SOL     OW37567   0.781   9.118   0.034 -0.2012  0.2841 -0.1748
10907SOL    HW137568   0.724   9.161   0.097 -0.4861 -0.5275  0.1214
10907SOL    HW237569   0.766   9.165  -0.048  0.4331  1.5656  0.4356
10908SOL     OW37570   2.361   9.657   7.234 -0.1176 -0.3886  0.3676
10908SOL    HW137571   2.277   9.692   7.206  0.8395  0.7697 -1.1125
10908SOL    HW237572   2.360   9.667   7.329 -1.8792 -0.9260  0.4219
10909SOL     OW37573   2.184   9.270   0.038  0.0240  0.4130 -0.4521
10909SOL    HW137574   2.169   9.344   0.096  0.9591  0.1662  0.1195
10909SOL    HW237575   2.138   9.292  -0.042 -1.0408  0.8891  0.2802
10910SOL     OW37576   2.157   9.353   6.639 -0.1604  0.5826 -0.4689
10910SOL    HW137577   2.229   9.295   6.611 -0.1161 -0.3896  1.5587
10910SOL    HW237578   2.201   9.432   6.669  0.0018  0.3819 -0.1733
10911SOL     OW37579   3.962   6.904   8.458  0.7769 -0.6032 -0.1403
10911SOL    HW137580   3.931   6.981   8.506 -0.3891 -1.0041 -0.2494
10911SOL    HW237581   3.887   6.874   8.408  0.9411 -2.3928  0.6310
10912SOL     OW37582   1.529   5.800   0.676 -0.7311  0.4382  0.2800
10912SOL    HW137583   1.492   5.720   0.714 -0.0443 -0.2781 -0.5163
10912SOL    HW237584   1.614   5.809   0.718  1.4165 -2.0806 -3.1578
10913SOL     OW37585   2.850   0.023   6.745  0.2421  0.6881  0.0275
10913SOL    HW137586   2.859  -0.072   6.751  3.1906  1.0538  2.4224
10913SOL    HW237587   2.769   0.037   6.695  0.0701 -3.0473 -0.8339
10914SOL     OW37588   2.627   8.723   9.042  0.2292  0.9025  0.1919
10914SOL    HW137589   2.602   8.808   9.006 -0.4463  0.9888  0.8576
10914SOL    HW237590   2.571   8.660   8.997  2.7143  0.4607 -2.4450
10915SOL     OW37591   3.659   8.352   8.401 -0.0417 -0.1404  0.1482
10915SOL    HW137592   3.746   8.376   8.435  0.7675 -1.5148 -0.9566
10915SOL    HW237593   3.599   8.406   8.453  1.4900  1.2642  0.5328
10916SOL     OW37594   3.476   8.912   7.718 -0.1602  0.5491 -0.2252
10916SOL    HW137595   3.472   9.005   7.743 -0.9661 -0.3170  3.0755
10916SOL    HW237596   3.386   8.888   7.699  0.2922  0.8786 -2.9287
10917SOL     OW37597   2.017   9.289   9.370  0.4341 -0.1143  0.1588
10917SOL    HW137598   2.071   9.269   9.293  0.9789  0.2123  0.4494
10917SOL    HW237599   2.081   9.304   9.440 -0.0709 -0.7876  0.7690
10918SOL     OW37600   3.282   8.399   7.997 -0.0601 -0.2687 -0.4035
10918SOL    HW137601   3.346   8.338   8.035  0.1214 -0.0967 -0.4317
10918SOL    HW237602   3.305   8.402   7.904 -1.0202 -1.3293 -0.6935
10919SOL     OW37603   3.742   8.755   8.319  0.6548  0.3047  0.2531
10919SOL    HW137604   3.721   8.719   8.233 -0.5800 -0.0355  0.6904
10919SOL    HW237605   3.727   8.683   8.380 -0.9758  1.2728  1.0403
10920SOL     OW37606   1.529   8.795   9.753 -0.2264  0.7687  0.5470
10920SOL    HW137607   1.444   8.806   9.709 -0.2272 -0.4945  0.2234
10920SOL    HW237608   1.593   8.801   9.683 -0.1669 -0.2687  0.5140
10921SOL     OW37609   3.430   8.495   7.779 -0.0971 -0.3469  0.2565
10921SOL    HW137610   3.382   8.554   7.721  1.3569 -0.3375 -0.9652
10921SOL    HW237611   3.467   8.552   7.847  0.6013  0.0431 -0.4467
10922SOL     OW37612   4.159   8.907   8.592  0.4316  0.1461  0.4316
10922SOL    HW137613   4.226   8.963   8.552  2.1080 -0.5753  2.1337
10922SOL    HW237614   4.096   8.891   8.522  2.4813  0.1562 -1.4708
10923SOL     OW37615   0.659   8.205   5.872 -0.3853  0.0900  0.2028
10923SOL    HW137616   0.752   8.194   5.893  0.1525 -0.2404 -2.2232
10923SOL    HW237617   0.627   8.116   5.857 -0.6224  0.3492 -0.8612
10924SOL     OW37618   1.281   7.410  10.000  0.4897 -0.2546  0.0966
10924SOL    HW137619   1.295   7.315   9.996 -0.0631 -0.3289 -0.0896
10924SOL    HW237620   1.186   7.420   9.995  0.6385  0.3958 -1.9718
10925SOL     OW37621   1.323   7.830   8.933  0.7778 -0.0783  0.2090
10925SOL    HW137622   1.283   7.861   8.852  0.9091 -0.3348  0.0471
10925SOL    HW237623   1.325   7.735   8.924 -1.7983 -0.3454  1.7061
10926SOL     OW37624   1.729   8.869   7.207 -0.1210 -0.1909  0.6660
10926SOL    HW137625   1.635   8.857   7.198  0.0698 -1.6141  0.5431
10926SOL    HW237626   1.756   8.909   7.124 -0.2296 -2.1600 -0.3406
10927SOL     OW37627   3.836   7.651   8.166 -0.1212 -0.4482  0.0807
10927SOL    HW137628   3.917   7.665   8.215  0.4129 -0.6116 -0.7470
10927SOL    HW237629   3.837   7.721   8.100  0.2091 -1.5078 -1.0462
10928SOL     OW37630   1.283   7.410   7.920 -0.4002 -0.2097 -0.3344
10928SOL    HW137631   1.252   7.454   7.840 -0.0014 -1.7839 -1.3843
10928SOL    HW237632   1.349   7.469   7.955  0.2550 -0.0169 -1.8183
10929SOL     OW37633   2.219   8.095   8.928 -0.7579  0.2111  0.4026
10929SOL    HW137634   2.140   8.042   8.932 -0.6992  0.0558 -0.4245
10929SOL    HW237635   2.251   8.085   8.838  1.0861 -1.0134  1.1729
10930SOL     OW37636   3.068   8.309   8.772 -0.2831 -0.0366  0.4384
10930SOL    HW137637   3.082   8.221   8.737 -0.3791  0.3425 -0.5687
10930SOL    HW237638   3.132   8.317   8.843 -0.5215 -1.0438  0.7868
10931SOL     OW37639   2.311   7.626   0.538 -0.0963  0.2333 -0.1839
10931SOL    HW137640   2.359   7.704   0.511  0.0371 -0.0918 -0.9146
10931SOL    HW237641   2.256   7.605   0.462 -1.2789  0.5154  0.5912
10932SOL     OW37642   3.281   8.178   8.924  0.4283 -0.7058  0.1544
10932SOL    HW137643   3.335   8.256   8.908  0.5769 -1.0395 -0.9836
10932SOL    HW237644   3.334   8.125   8.984  0.0255  0.3791  1.4800
10933SOL     OW37645   9.485   8.890   0.337  0.3585  0.0985 -0.0310
10933SOL    HW137646   9.518   8.828   0.271  0.4990  1.3828 -1.1776
10933SOL    HW237647   9.553   8.957   0.344 -0.6718  1.1780 -0.2421
10934SOL     OW37648   2.801   7.601   8.517 -0.2942 -0.1331  0.1729
10934SOL    HW137649   2.823   7.657   8.443 -1.8054 -0.5030 -0.5731
10934SOL    HW237650   2.742   7.535   8.480  1.8495 -2.5483  0.9030
10935SOL     OW37651   2.600   0.282   9.961 -0.4857 -0.8576 -0.4877
10935SOL    HW137652   2.544   0.236  10.023 -0.1549  0.5603  0.8914
10935SOL    HW237653   2.539   0.324   9.900 -0.8467 -1.1785 -0.3506
10936SOL     OW37654   2.599   7.410   9.470  0.0437 -0.6586 -0.0662
10936SOL    HW137655   2.590   7.422   9.376 -0.0644 -3.5797 -0.4699
10936SOL    HW237656   2.510   7.418   9.504  0.1554  0.9235 -0.1467
10937SOL     OW37657   0.740   6.160   8.713 -0.0746  0.2266  0.3509
10937SOL    HW137658   0.700   6.129   8.794 -0.2711  1.0431  0.5699
10937SOL    HW237659   0.718   6.093   8.648  0.5106 -0.6885  1.0790
10938SOL     OW37660   2.644   8.781   8.174 -0.5339  0.1681 -0.5550
10938SOL    HW137661   2.614   8.850   8.115 -2.0897 -1.0672 -1.2366
10938SOL    HW237662   2.620   8.700   8.130  2.1739 -0.8540 -0.2408
10939SOL     OW37663   2.670   8.748   8.444 -0.2807  0.0324  0.3345
10939SOL    HW137664   2.660   8.775   8.352  1.0329 -0.5731  0.0024
10939SOL    HW237665   2.634   8.821   8.494 -0.6462  0.5489 -0.6618
10940SOL     OW37666   3.276   9.837   8.033  0.0551 -0.4463 -0.2820
10940SOL    HW137667   3.189   9.873   8.047  1.3799  2.8080  0.1302
10940SOL    HW237668   3.319   9.846   8.118  1.7657  0.9528 -1.2403
10941SOL     OW37669   3.432   9.062   8.259  0.1055  0.0338  0.0069
10941SOL    HW137670   3.408   9.016   8.178 -0.8472  2.1012 -0.9180
10941SOL    HW237671   3.349   9.089   8.297  0.6213  0.3077  0.9490
10942SOL     OW37672   1.221   9.534   8.450  0.1151  0.0347  0.2498
10942SOL    HW137673   1.229   9.522   8.545 -1.9307  0.6153  0.5135
10942SOL    HW237674   1.206   9.446   8.416  0.8521 -0.1763  0.4484
10943SOL     OW37675   3.219   9.419   9.336  0.3001 -0.1333 -0.1088
10943SOL    HW137676   3.153   9.352   9.349  0.7365 -0.4630  0.4381
10943SOL    HW237677   3.251   9.404   9.247  0.2911 -0.5614 -0.0429
10944SOL     OW37678   2.337   0.637   9.789 -0.1481  0.4445  0.3876
10944SOL    HW137679   2.399   0.707   9.809  1.7864 -1.5936  1.8127
10944SOL    HW237680   2.293   0.619   9.872 -0.9120  0.2358 -0.0581
10945SOL     OW37681   3.572   8.924   8.759 -0.7627  0.5513 -0.0797
10945SOL    HW137682   3.504   8.934   8.693 -1.2342 -1.3788  0.0852
10945SOL    HW237683   3.651   8.901   8.708 -1.3655 -1.9905  0.0555
10946SOL     OW37684   3.847   9.091   8.203 -0.2269  0.0091  0.0821
10946SOL    HW137685   3.796   9.038   8.141 -0.0799  2.2375 -2.0087
10946SOL    HW237686   3.937   9.083   8.173 -0.0485  0.4976  0.4945
10947SOL     OW37687   2.785   8.038   9.305 -0.7417 -0.1797 -0.5451
10947SOL    HW137688   2.750   8.079   9.384 -1.2105  1.3240 -1.5228
10947SOL    HW237689   2.876   8.016   9.329 -1.1145 -0.4666  0.6685
10948SOL     OW37690   1.760   9.782   8.148  0.2466  0.0069  0.1720
10948SOL    HW137691   1.836   9.741   8.189  0.1431  0.1980  0.5607
10948SOL    HW237692   1.754   9.868   8.189 -1.2384 -0.6898  1.4499
10949SOL     OW37693   3.404   8.548   9.414  0.1319  0.1887  0.0963
10949SOL    HW137694   3.336   8.524   9.351  1.7534 -0.6698 -1.3591
10949SOL    HW237695   3.444   8.626   9.377 -0.3674  0.9847  1.2047
10950SOL     OW37696   2.047   8.958   1.192 -0.0423 -0.0757 -0.6792
10950SOL    HW137697   1.998   8.878   1.206 -0.0891 -0.5153 -3.0844
10950SOL    HW237698   1.996   9.026   1.235  0.2454 -1.3773  1.7907
10951SOL     OW37699   3.054   8.363   7.313  0.0932  0.4783 -0.1878
10951SOL    HW137700   3.066   8.338   7.405 -2.1993 -0.6873 -0.1619
10951SOL    HW237701   3.124   8.318   7.266  2.0888  2.1132  1.1215
10952SOL     OW37702   2.693   8.716   7.825 -0.4841  0.6458  0.8593
10952SOL    HW137703   2.704   8.653   7.896 -2.1714  1.1915  1.6222
10952SOL    HW237704   2.609   8.693   7.785  1.2692 -0.8589 -2.2100
10953SOL     OW37705   1.602   7.688   9.314 -0.1530 -0.5369 -0.4503
10953SOL    HW137706   1.509   7.695   9.295 -0.2961 -0.7550  0.1416
10953SOL    HW237707   1.609   7.608   9.367  0.5688 -1.3714 -1.7563
10954SOL     OW37708   2.873   7.648   7.930  0.4053 -0.1742 -0.1507
10954SOL    HW137709   2.850   7.734   7.965 -1.6740  0.0140 -1.8945
10954SOL    HW237710   2.968   7.649   7.925  0.3042  2.9134 -2.3493
10955SOL     OW37711   1.368   9.532   6.870 -0.2721  0.4782  0.7986
10955SOL    HW137712   1.332   9.450   6.837 -0.7798  1.1619 -0.3669
10955SOL    HW237713   1.428   9.505   6.940 -0.7716 -0.8513  0.7387
10956SOL     OW37714   1.614   8.788   6.942 -0.4758 -0.4259  0.0956
10956SOL    HW137715   1.561   8.832   6.876 -0.9212 -1.6271 -0.3565
10956SOL    HW237716   1.557   8.785   7.019 -1.2676 -2.1443 -0.5331
10957SOL     OW37717   1.894   0.108   0.445 -0.0774  0.2527 -0.2876
10957SOL    HW137718   1.871   0.176   0.382 -2.0166 -0.3749 -0.2729
10957SOL    HW237719   1.836   0.035   0.424  0.6489 -0.6931  0.9387
10958SOL     OW37720   3.542   7.882   8.588 -0.2889 -0.2214  0.4298
10958SOL    HW137721   3.602   7.884   8.513 -0.4289  0.6011  0.3368
10958SOL    HW237722   3.527   7.974   8.609 -3.2071 -0.3437 -0.8914
10959SOL     OW37723   1.990   9.610   9.938  0.4493 -0.4954 -0.3060
10959SOL    HW137724   2.043   9.689   9.942  0.1029 -0.2219 -0.9740
10959SOL    HW237725   2.003   9.567  10.023  0.3314  0.4762  0.2127
10960SOL     OW37726   0.994   8.802   8.695 -0.0911  0.4869 -0.0174
10960SOL    HW137727   0.981   8.758   8.779 -0.3226  1.0449  0.2443
10960SOL    HW237728   0.912   8.847   8.678 -0.3062 -0.2186 -0.9098
10961SOL     OW37729   3.313   8.559   8.234 -0.1489 -0.6656 -0.3608
10961SOL    HW137730   3.397   8.545   8.191 -0.3037  2.3711 -1.7649
10961SOL    HW237731   3.335   8.582   8.324  0.5592  0.2133 -0.7484
10962SOL     OW37732   0.010   8.798   0.017  0.1979 -0.5567  0.1291
10962SOL    HW137733  -0.015   8.864  -0.048 -0.8171 -0.5813  0.4759
10962SOL    HW237734   0.071   8.844   0.075  1.9986 -0.8578 -1.4729
10963SOL     OW37735   2.845   9.208   8.310 -0.0088  0.3734  0.2244
10963SOL    HW137736   2.921   9.218   8.254  1.1758 -0.0713  1.7321
10963SOL    HW237737   2.877   9.225   8.398 -1.8483  1.1011  0.7896
10964SOL     OW37738   0.821   0.819   8.847  0.1371  0.0435  0.1582
10964SOL    HW137739   0.865   0.903   8.860 -1.1579  0.7668  0.0580
10964SOL    HW237740   0.787   0.825   8.758  0.3343 -0.7350  0.0318
10965SOL     OW37741   3.470   8.509   0.281  0.2356 -0.0345  0.0842
10965SOL    HW137742   3.482   8.600   0.307  0.5813 -0.3331  1.0085
10965SOL    HW237743   3.532   8.460   0.336 -0.1330 -0.8518 -0.2163
10966SOL     OW37744   3.806   9.369   9.592  0.6213 -0.0450  0.0984
10966SOL    HW137745   3.809   9.397   9.500  1.1123  1.0753  0.4452
10966SOL    HW237746   3.897   9.350   9.614  0.6348  0.6382  0.6359
10967SOL     OW37747   2.997   8.786   0.765 -0.0699  0.3585  0.0622
10967SOL    HW137748   2.952   8.865   0.797 -0.9442  0.1629 -0.6774
10967SOL    HW237749   2.926   8.726   0.743  0.5583  0.0480 -1.1156
10968SOL     OW37750   2.531   7.249   8.593 -0.4382 -0.3626  0.5447
10968SOL    HW137751   2.609   7.285   8.551 -0.8282 -0.2771 -0.1195
10968SOL    HW237752   2.564   7.207   8.672  0.4463 -1.3401 -0.3170
10969SOL     OW37753   3.300   9.020   9.533  0.4848 -0.4022  0.5817
10969SOL    HW137754   3.311   8.947   9.593 -0.3707  0.3157  1.6234
10969SOL    HW237755   3.257   9.088   9.585  1.4353  0.9136 -0.3156
10970SOL     OW37756   4.145   8.620   9.973 -0.0045 -0.3165 -0.1147
10970SOL    HW137757   4.085   8.597   9.903 -0.6750 -0.8450  0.6247
10970SOL    HW237758   4.220   8.660   9.929  0.0448 -1.6075 -1.2014
10971SOL     OW37759   3.300   0.284   0.729  0.1590 -0.1384  0.3460
10971SOL    HW137760   3.236   0.217   0.705  1.0299 -1.2363  1.0143
10971SOL    HW237761   3.248   0.359   0.756 -0.8353  0.1275 -2.1996
10972SOL     OW37762   1.861   7.547   0.205  0.1492  0.0090  0.1637
10972SOL    HW137763   1.932   7.583   0.152 -1.4603 -0.0207 -2.0634
10972SOL    HW237764   1.847   7.612   0.273  0.6338  1.2236 -0.8755
10973SOL     OW37765   9.965   9.863   9.794  0.6487  0.0804 -0.3416
10973SOL    HW137766  10.002   9.776   9.812  0.7596  0.5168  1.5799
10973SOL    HW237767  10.029   9.924   9.830 -0.4405  0.9147  0.2087
10974SOL     OW37768   1.779   9.155   8.760 -0.1319  0.3314 -0.2767
10974SOL    HW137769   1.790   9.233   8.814 -2.1203  0.1253  0.4842
10974SOL    HW237770   1.762   9.189   8.672  2.3827  0.6774 -0.6681
10975SOL     OW37771   2.822   8.524   0.334 -0.3149  0.1031  0.1130
10975SOL    HW137772   2.736   8.500   0.366 -0.8157 -0.6016 -1.6893
10975SOL    HW237773   2.808   8.606   0.286  0.2402  0.6115  0.7960
10976SOL     OW37774   1.646   9.288   0.493 -0.1990  0.3009 -0.1238
10976SOL    HW137775   1.666   9.382   0.495  1.3557 -0.0302  1.9638
10976SOL    HW237776   1.730   9.246   0.512 -1.0454 -1.4890 -0.2886
10977SOL     OW37777   1.842   8.683   0.436  0.0740  0.3649  0.5096
10977SOL    HW137778   1.763   8.686   0.490  0.2526 -1.3238  0.9047
10977SOL    HW237779   1.882   8.599   0.457  1.6836  0.9538 -0.1165
10978SOL     OW37780   0.648   8.774   9.377  0.1938  0.3077 -0.5728
10978SOL    HW137781   0.564   8.801   9.340  0.8552  1.3630 -1.3558
10978SOL    HW237782   0.709   8.778   9.303  0.6911 -1.6120 -0.2742
10979SOL     OW37783   3.992   9.858   9.554 -0.2148  0.3670 -0.3284
10979SOL    HW137784   4.016   9.766   9.564  1.4892  0.5371 -2.4293
10979SOL    HW237785   4.072   9.907   9.574 -0.5988  1.2847 -0.9631
10980SOL     OW37786   2.426   9.552   8.069  0.4464 -0.4079 -0.1023
10980SOL    HW137787   2.419   9.647   8.070 -1.1526 -0.5118  2.1719
10980SOL    HW237788   2.508   9.534   8.116  0.4163 -0.1722  0.0426
10981SOL     OW37789   1.851   1.664   8.576  0.1740  0.3131 -0.3008
10981SOL    HW137790   1.841   1.756   8.599  1.0014  0.2620  0.2802
10981SOL    HW237791   1.918   1.631   8.636 -0.8768 -0.9353  0.2029
10982SOL     OW37792   3.754   7.631   0.782 -0.2851 -0.2570  0.4276
10982SOL    HW137793   3.674   7.676   0.753  0.0318 -0.3353 -0.5515
10982SOL    HW237794   3.798   7.605   0.702  1.0641  0.3585  0.9599
10983SOL     OW37795   3.222   8.229   9.484  0.2379  0.0157 -0.2840
10983SOL    HW137796   3.183   8.271   9.561 -1.9288  0.2265 -1.4638
10983SOL    HW237797   3.205   8.289   9.412 -0.1772 -1.4545 -1.4366
10984SOL     OW37798   3.029   7.331   8.620 -0.1487  0.0997 -0.3479
10984SOL    HW137799   3.021   7.386   8.698 -0.6667  0.7671 -0.8709
10984SOL    HW237800   3.111   7.360   8.580 -0.1244  0.0858 -0.3091
10985SOL     OW37801   2.644   6.837   9.037 -0.1544 -0.3008  0.1015
10985SOL    HW137802   2.578   6.864   9.101 -0.8329  1.3031 -1.2539
10985SOL    HW237803   2.723   6.883   9.064 -0.1886 -0.3616  0.3153
10986SOL     OW37804   3.499   8.978   9.115 -0.2416  0.0134 -0.1487
10986SOL    HW137805   3.529   9.030   9.190  0.9360 -1.3501  0.3457
10986SOL    HW237806   3.404   8.969   9.128 -0.1155  0.2068  0.9070
10987SOL     OW37807   1.172   6.582   0.514  0.3581 -0.3129  0.8995
10987SOL    HW137808   1.091   6.624   0.543  0.1405 -0.4624  0.5117
10987SOL    HW237809   1.234   6.655   0.503 -0.8609  0.2941 -2.6340
10988SOL     OW37810   1.523   9.147   8.367  0.4138 -0.0747  0.1895
10988SOL    HW137811   1.507   9.055   8.387  0.5151 -0.8443 -2.9943
10988SOL    HW237812   1.601   9.170   8.417 -0.7326 -1.1470  2.5206
10989SOL     OW37813   3.091   7.151   0.854  0.3765 -0.3018 -0.3047
10989SOL    HW137814   3.186   7.157   0.865  0.2171  0.3442  0.7843
10989SOL    HW237815   3.070   7.223   0.795  0.3564  0.5994  0.7958
10990SOL     OW37816   3.689   9.329   7.970  0.2221  0.1442  0.3286
10990SOL    HW137817   3.612   9.372   8.007 -0.5180  0.0305 -1.0542
10990SOL    HW237818   3.760   9.354   8.029 -0.4240  2.2161  0.2819
10991SOL     OW37819   1.669   0.840   9.899  0.3559 -0.2266 -0.2124
10991SOL    HW137820   1.589   0.850   9.951  0.9499 -0.0383  0.6795
10991SOL    HW237821   1.738   0.874   9.956  1.1610 -1.0140 -0.7175
10992SOL     OW37822   1.837   8.922   8.893  0.2225  0.7218  0.0710
10992SOL    HW137823   1.806   8.985   8.828 -0.2119 -2.2708 -2.7378
10992SOL    HW237824   1.926   8.901   8.865  0.2368 -0.1915  0.7829
10993SOL     OW37825   3.714   8.256   8.785 -0.1801  0.1809 -0.1523
10993SOL    HW137826   3.772   8.284   8.856  0.3952  0.6538 -0.8078
10993SOL    HW237827   3.734   8.315   8.713 -0.1289 -0.8625 -1.0094
10994SOL     OW37828   1.543   7.302   1.054 -0.6004 -0.4102 -0.1130
10994SOL    HW137829   1.484   7.376   1.064 -1.8397 -1.2783 -0.7879
10994SOL    HW237830   1.486   7.225   1.056  0.4316 -1.2453 -1.3426
10995SOL     OW37831   2.055   8.857   9.967  0.1040  0.0193  0.2646
10995SOL    HW137832   2.134   8.815  10.001  1.1314  1.4020 -0.3717
10995SOL    HW237833   2.051   8.941  10.012 -1.5178 -0.4177  0.9686
10996SOL     OW37834   2.986   9.463   9.722  0.5066  0.3299 -0.1920
10996SOL    HW137835   2.977   9.401   9.795 -2.9386  0.5188 -0.3385
10996SOL    HW237836   3.008   9.546   9.764  1.5061 -0.2040  0.3515
10997SOL     OW37837   2.645   9.229   0.918  0.3910  0.4870 -0.3700
10997SOL    HW137838   2.657   9.323   0.932  0.8348  0.6390 -1.7572
10997SOL    HW237839   2.670   9.189   1.002  0.7455  1.5565  0.0440
10998SOL     OW37840   3.024   8.049   8.407  0.1638  0.5102  0.0009
10998SOL    HW137841   3.018   8.143   8.424  2.4347  0.5560  0.7503
10998SOL    HW237842   3.037   8.010   8.493  3.7056 -0.0326 -0.6872
10999SOL     OW37843   3.211   8.603   0.806  0.3139 -0.0526  0.6147
10999SOL    HW137844   3.254   8.567   0.729  2.9307 -1.5614  2.6887
10999SOL    HW237845   3.162   8.678   0.773  1.8407 -0.3018 -2.4108
11000SOL     OW37846   2.415   7.567   1.645  0.1293  0.4232 -0.1589
11000SOL    HW137847   2.457   7.503   1.587 -0.5589  0.1211 -0.3324
11000SOL    HW237848   2.413   7.525   1.731 -0.9402 -0.0847 -0.4158
11001SOL     OW37849   1.624   7.388   9.916 -0.2427 -0.0718 -0.2634
11001SOL    HW137850   1.574   7.337   9.853  1.9690 -0.5395 -1.6891
11001SOL    HW237851   1.560   7.448   9.955 -2.1368 -1.4892 -1.1343
11002SOL     OW37852   4.300   7.999   9.332 -0.2186 -0.1252 -0.2451
11002SOL    HW137853   4.334   8.052   9.260 -0.6162  1.9961  1.0825
11002SOL    HW237854   4.303   8.057   9.408  2.3586 -3.0332  2.0130
11003SOL     OW37855   1.003   8.783   0.118 -0.3149  0.1225 -0.4369
11003SOL    HW137856   1.090   8.790   0.157 -0.4248  0.7619 -0.2970
11003SOL    HW237857   1.017   8.802   0.025 -0.2825  0.1006 -0.4366
11004SOL     OW37858   1.454   0.277   9.618 -0.0455  0.0551  0.1188
11004SOL    HW137859   1.518   0.332   9.573 -0.1777  0.5315  0.5196
11004SOL    HW237860   1.495   0.256   9.702 -0.8871  1.2915  0.8474
11005SOL     OW37861   1.724   8.213   8.791 -1.2397 -0.4695 -0.1059
11005SOL    HW137862   1.702   8.127   8.755 -1.5779 -0.3778 -0.1181
11005SOL    HW237863   1.703   8.275   8.721 -0.7884 -0.3968 -0.1781
11006SOL     OW37864   2.549   8.400   9.160 -0.4696  0.6975 -0.0086
11006SOL    HW137865   2.487   8.330   9.136 -0.1757  0.2610  0.4872
11006SOL    HW237866   2.495   8.467   9.200 -0.6624  0.4479  0.1536
11007SOL     OW37867   4.061   8.378   7.657  0.0779  0.4701  0.2366
11007SOL    HW137868   4.079   8.469   7.682 -1.2477  0.5393  0.9841
11007SOL    HW237869   4.016   8.341   7.733 -0.2713 -0.5403 -0.4507
11008SOL     OW37870   2.843   0.108   9.138 -0.0694  0.2270  0.3841
11008SOL    HW137871   2.757   0.139   9.110 -0.8955 -1.2602  1.1889
11008SOL    HW237872   2.897   0.187   9.141 -1.0795  1.0252 -1.2381
11009SOL     OW37873   2.058   9.494   8.572  0.0221 -0.1270  0.0837
11009SOL    HW137874   2.071   9.581   8.610  0.4021 -0.2467  0.2347
11009SOL    HW237875   1.963   9.485   8.564  0.0140  0.6464 -0.7384
11010SOL     OW37876   1.793   9.782   8.511 -0.0824  0.2071  0.2036
11010SOL    HW137877   1.760   9.839   8.580  0.2267  1.0870 -0.3686
11010SOL    HW237878   1.817   9.841   8.440 -0.9981 -0.7459 -0.9147
11011SOL     OW37879   1.268   7.931   0.978  0.4352 -0.1793  0.0071
11011SOL    HW137880   1.305   7.991   0.913 -2.7396  0.8630 -0.9117
11011SOL    HW237881   1.251   7.851   0.929 -0.8831  0.2135 -0.1839
11012SOL     OW37882   3.932   8.958   9.651  0.3201 -0.3315 -0.2914
11012SOL    HW137883   3.861   9.002   9.696  0.5038 -0.4933  0.1587
11012SOL    HW237884   3.900   8.868   9.638  0.0504 -0.1374 -0.9701
11013SOL     OW37885   3.350   8.565   8.794 -0.5122 -0.1659 -0.0482
11013SOL    HW137886   3.373   8.640   8.848  0.9362  0.6020 -1.6858
11013SOL    HW237887   3.389   8.490   8.839 -1.7743  0.0607  1.4723
11014SOL     OW37888   2.118   9.018   0.911  0.3968  0.0720 -0.5296
11014SOL    HW137889   2.064   9.081   0.958 -0.2177  0.3757 -1.6189
11014SOL    HW237890   2.125   8.944   0.971  2.1028  1.6234  1.2242
11015SOL     OW37891   2.718   9.654   9.859  0.8432  0.2473 -0.0206
11015SOL    HW137892   2.643   9.701   9.893  1.2913  1.2147 -0.3572
11015SOL    HW237893   2.716   9.569   9.904 -1.8062 -0.6805 -1.7926
11016SOL     OW37894   1.854   8.225   7.895 -0.0329 -0.0899  0.0952
11016SOL    HW137895   1.864   8.297   7.957  0.8208  1.0358 -1.3080
11016SOL    HW237896   1.812   8.155   7.945  0.2141  0.9601  1.7987
11017SOL     OW37897   2.441   6.221   0.154  0.3786  0.0444 -0.5197
11017SOL    HW137898   2.419   6.268   0.234 -0.9635  0.5196 -1.1542
11017SOL    HW237899   2.533   6.197   0.165  0.4794  0.9484  0.7349
11018SOL     OW37900   2.635   8.223   9.824  0.1069 -0.5644 -0.2719
11018SOL    HW137901   2.697   8.241   9.895  1.3440 -1.8438 -1.0174
11018SOL    HW237902   2.578   8.301   9.822 -1.2233 -1.3177  3.4012
11019SOL     OW37903   2.941   7.584   9.354  0.1985  0.4940 -0.6927
11019SOL    HW137904   3.010   7.647   9.374 -1.3183  1.5315  1.4341
11019SOL    HW237905   2.916   7.605   9.264  2.0290  0.6799 -1.1760
11020SOL     OW37906   1.752   8.498   1.007  0.3986  0.1192  0.2375
11020SOL    HW137907   1.758   8.568   1.071  0.2836 -0.6354  1.0870
11020SOL    HW237908   1.832   8.507   0.955  1.6824 -0.6873  1.9921
11021SOL     OW37909   2.888   7.222   9.976 -0.4266  0.6267 -0.0931
11021SOL    HW137910   2.937   7.143   9.995 -0.7695 -0.2476 -2.6812
11021SOL    HW237911   2.803   7.208  10.018 -0.3037 -0.1311 -0.0917
11022SOL     OW37912   3.802   7.999   9.962  0.0860 -0.1109 -0.0583
11022SOL    HW137913   3.735   7.959  10.016 -0.1635 -0.3663 -0.5481
11022SOL    HW237914   3.763   8.082   9.933  0.7206  0.6316  1.2040
11023SOL     OW37915   2.922   7.726   0.869  0.2647  0.5911  0.5781
11023SOL    HW137916   2.901   7.805   0.920 -1.5414 -0.9281  2.3031
11023SOL    HW237917   2.950   7.662   0.935  0.5792 -0.5691 -0.6635
11024SOL     OW37918   1.793   9.418   0.275  0.1669 -0.4418 -0.0391
11024SOL    HW137919   1.708   9.396   0.312  1.1344 -2.9708  0.7824
11024SOL    HW237920   1.825   9.336   0.237  2.1336  0.5316 -0.5703
11025SOL     OW37921   4.095   7.382   9.515 -0.3786 -0.1524 -0.0651
11025SOL    HW137922   4.028   7.337   9.566  0.4374 -1.3567 -0.0204
11025SOL    HW237923   4.113   7.462   9.564 -1.2515 -0.1764  0.3043
11026SOL     OW37924   1.339   9.085   8.718  0.0725  0.1160  0.3123
11026SOL    HW137925   1.273   9.047   8.776  0.4844 -1.4872 -0.2531
11026SOL    HW237926   1.292   9.104   8.637  0.3685 -1.3395 -0.2086
11027SOL     OW37927   3.016   9.111   0.043 -0.2020 -0.0054 -0.1367
11027SOL    HW137928   2.947   9.101   0.109 -0.1125 -1.9727 -0.3179
11027SOL    HW237929   2.996   9.195   0.001 -0.1527  1.3830  2.4722
11028SOL     OW37930   0.983   0.261   0.386  0.2050 -0.1152 -0.4997
11028SOL    HW137931   0.918   0.296   0.326 -0.3722 -0.7950 -0.2821
11028SOL    HW237932   0.959   0.296   0.472 -1.0103 -1.8623 -0.1015
11029SOL     OW37933   2.829   9.152   0.594  0.0921 -0.4150  0.0158
11029SOL    HW137934   2.890   9.198   0.537  0.0834  1.8570  1.7386
11029SOL    HW237935   2.762   9.117   0.535  1.3474 -0.1746 -1.5767
11030SOL     OW37936   3.772   1.842   0.004  0.5462  0.2517  0.3592
11030SOL    HW137937   3.819   1.784  -0.056  2.1479  0.3776  1.4408
11030SOL    HW237938   3.765   1.791   0.085 -1.1888  0.2494  0.2147
11031SOL     OW37939   3.760   9.618   1.661 -0.0875  0.4012  0.2706
11031SOL    HW137940   3.733   9.610   1.753 -1.6389  0.2938 -0.1775
11031SOL    HW237941   3.766   9.527   1.631 -0.2004  0.4513  0.0968
11032SOL     OW37942   4.284   0.026   9.772  0.4430  1.0458  0.2731
11032SOL    HW137943   4.344   0.080   9.823 -0.8571  1.7120  1.1124
11032SOL    HW237944   4.254  -0.041   9.833  0.1160  0.8801 -0.0665
11033SOL     OW37945   3.814   8.729   0.370 -0.2053  0.4696  0.6119
11033SOL    HW137946   3.868   8.804   0.343 -0.7459  0.4656 -0.5146
11033SOL    HW237947   3.727   8.749   0.336 -0.1278 -1.1310 -0.5670
11034SOL     OW37948   1.812   9.831   9.864 -0.0569 -0.1846  0.2561
11034SOL    HW137949   1.840   9.824   9.772  1.0933 -0.3633  0.6084
11034SOL    HW237950   1.834   9.746   9.902  1.3200  0.5483  1.1749
11035SOL     OW37951   2.440   0.092   0.653  0.6086 -0.3023 -0.5340
11035SOL    HW137952   2.493   0.168   0.628  0.5740 -0.1660 -0.1998
11035SOL    HW237953   2.354   0.109   0.614  0.2511  0.4109  0.5198
11036SOL     OW37954   2.828   9.473   2.072 -0.2856 -0.1870  0.1297
11036SOL    HW137955   2.760   9.514   2.019  0.1057 -0.7955 -0.8495
11036SOL    HW237956   2.809   9.380   2.069  0.7164 -0.3840 -0.3382
11037SOL     OW37957   3.970   0.331   0.554  0.0405 -0.1306  0.6674
11037SOL    HW137958   4.016   0.372   0.481  1.3637 -1.1793  0.8851
11037SOL    HW237959   3.884   0.373   0.555  0.5770  1.0372 -0.4809
11038SOL     OW37960   3.194   9.369   2.334 -0.4606 -0.6781 -0.4200
11038SOL    HW137961   3.181   9.274   2.340 -0.4211 -0.6670 -0.1758
11038SOL    HW237962   3.108   9.406   2.353 -0.4969 -0.6662 -0.6013
11039SOL     OW37963   3.457   8.928   1.332  0.2446  0.0543  0.1326
11039SOL    HW137964   3.366   8.953   1.315  0.3044  0.1841  0.0035
11039SOL    HW237965   3.451   8.849   1.386  0.0495  1.0061  1.5317
11040SOL     OW37966   2.655   0.288   1.065  0.0445 -0.2739 -0.2144
11040SOL    HW137967   2.597   0.212   1.058  0.6354 -0.8041  0.5962
11040SOL    HW237968   2.682   0.289   1.157  0.2882  0.7357 -0.2923
11041SOL     OW37969   3.749   9.362   0.975 -0.6003  0.1410 -0.4629
11041SOL    HW137970   3.658   9.388   0.963 -0.7328  0.0567  0.3661
11041SOL    HW237971   3.799   9.442   0.956 -0.7930 -0.0291 -1.7313
11042SOL     OW37972   3.420   9.712   9.820 -0.5938 -0.1832 -0.0586
11042SOL    HW137973   3.404   9.760   9.901 -0.7980 -1.8679  0.9322
11042SOL    HW237974   3.423   9.779   9.752  1.7234  1.4935  1.6249
11043SOL     OW37975   3.411   8.686   0.593 -0.5974 -0.1589  0.2164
11043SOL    HW137976   3.485   8.744   0.613 -0.9538  0.3451  0.1014
11043SOL    HW237977   3.443   8.598   0.613 -1.4291  0.4310  4.5292
11044SOL     OW37978   2.817   9.437   0.606  0.0780  0.0067 -0.1611
11044SOL    HW137979   2.803   9.343   0.614 -1.3139  0.2367  0.2668
11044SOL    HW237980   2.736   9.476   0.639 -0.4294  1.2752 -2.7534
11045SOL     OW37981   3.700   1.058   0.210 -0.2204 -0.1031  0.2826
11045SOL    HW137982   3.737   1.079   0.124  0.5539  0.6192  0.7710
11045SOL    HW237983   3.762   0.996   0.248  0.2594  0.7489  0.9188
11046SOL     OW37984   3.090   0.089   1.059  0.9285  0.7369 -0.2368
11046SOL    HW137985   3.028   0.101   0.987 -0.5346 -0.6406  0.7767
11046SOL    HW237986   3.111   0.179   1.087  1.3237  1.2730 -2.1950
11047SOL     OW37987   3.121   9.738   0.974  0.4597 -0.1543  0.6630
11047SOL    HW137988   3.182   9.715   1.044  0.8502  1.1951  0.7799
11047SOL    HW237989   3.075   9.816   1.007 -0.7219 -0.6507  0.2173
11048SOL     OW37990   2.203   9.282   0.775 -0.5188 -0.5237 -0.4472
11048SOL    HW137991   2.134   9.339   0.741 -0.9242 -0.6448  0.1669
11048SOL    HW237992   2.156   9.204   0.807 -0.1471 -0.3916  0.4282
11049SOL     OW37993   2.201   1.299   2.996  0.2041 -0.2010 -0.4584
11049SOL    HW137994   2.140   1.272   3.064  0.5566  1.0104  0.3442
11049SOL    HW237995   2.159   1.272   2.914 -1.4710  0.7315  0.0725
11050SOL     OW37996   3.399   1.147   0.432  0.1146 -0.0898  0.0677
11050SOL    HW137997   3.320   1.108   0.393  1.3784 -2.4755 -0.1602
11050SOL    HW237998   3.373   1.168   0.521 -1.1630  0.3522 -0.3895
11051SOL     OW37999   9.923   9.882   2.667 -0.0085  0.0967 -0.2449
11051SOL    HW138000   9.840   9.854   2.628 -0.6547  0.3657  0.9139
11051SOL    HW238001   9.932   9.829   2.746  0.2987  0.9661  0.3096
11052SOL     OW38002   3.631   9.358   1.241 -0.1923  0.4449 -0.7616
11052SOL    HW138003   3.555   9.398   1.285  1.0219  1.4973  0.4359
11052SOL    HW238004   3.594   9.316   1.163 -2.2410 -0.4344  0.6245
11053SOL     OW38005   3.440   9.919   9.629 -0.2016 -0.1672  0.2483
11053SOL    HW138006   3.384   9.945   9.556  0.9485 -0.3159 -0.6911
11053SOL    HW238007   3.440   9.994   9.688 -0.7662  0.1227 -0.1186
11054SOL     OW38008   1.470   8.278   1.033  0.3295 -0.6973 -0.0358
11054SOL    HW138009   1.502   8.328   0.958 -0.3779  1.5276  1.0873
11054SOL    HW238010   1.524   8.308   1.106  0.2846 -2.0314  0.5572
11055SOL     OW38011   1.801   9.631   2.036 -0.3211  0.4333 -0.7776
11055SOL    HW138012   1.787   9.548   1.990 -1.6558  0.9760 -1.3748
11055SOL    HW238013   1.721   9.682   2.019  0.4492  1.8087 -0.3580
11056SOL     OW38014   2.970   9.452   1.108 -0.3305 -0.0907  0.6998
11056SOL    HW138015   2.920   9.533   1.118  0.7937  0.7044  0.0292
11056SOL    HW238016   2.932   9.410   1.032 -0.3909  0.2071  0.5633
11057SOL     OW38017   4.808   9.385   1.082  0.5161  0.1646 -0.0668
11057SOL    HW138018   4.728   9.413   1.128  1.4629 -1.7814  2.8964
11057SOL    HW238019   4.833   9.461   1.029 -2.1564  1.5118  0.5290
11058SOL     OW38020   3.079   1.051   0.523  0.1515 -0.1601 -0.3808
11058SOL    HW138021   3.042   1.125   0.570  2.6513  0.9613 -0.0931
11058SOL    HW238022   3.136   1.008   0.587 -1.7735 -2.7793 -0.3244
11059SOL     OW38023   4.854   7.850   0.802 -0.0441  0.1861  0.2601
11059SOL    HW138024   4.884   7.923   0.857 -2.1565 -0.0768  1.8196
11059SOL    HW238025   4.801   7.890   0.734 -1.0506  0.1475  1.0083
11060SOL     OW38026   1.065   1.416   0.689 -0.0526  0.8185  0.1643
11060SOL    HW138027   1.093   1.498   0.729  0.0180 -0.1684  2.1928
11060SOL    HW238028   1.033   1.362   0.762 -2.3513 -0.0707 -1.4179
11061SOL     OW38029   3.874   9.812   9.282 -0.2112  0.1704  0.1838
11061SOL    HW138030   3.898   9.806   9.375  0.8145 -1.8201 -0.1807
11061SOL    HW238031   3.842   9.902   9.272  0.0625  0.5567  2.3655
11062SOL     OW38032   4.975   8.894   1.781  0.2097 -0.2279 -0.4094
11062SOL    HW138033   4.984   8.897   1.876 -2.6560  0.2865 -0.1208
11062SOL    HW238034   4.986   8.985   1.753  1.1025 -0.3879 -0.5873
11063SOL     OW38035   2.483   0.010   9.930 -0.1797 -0.1906 -0.1921
11063SOL    HW138036   2.478  -0.083   9.953 -0.6959 -0.2500 -0.5584
11063SOL    HW238037   2.461   0.055  10.011 -1.8587 -0.4032 -0.5170
11064SOL     OW38038   2.833   0.176   0.615  0.1064  0.1540  0.5448
11064SOL    HW138039   2.754   0.209   0.574 -0.6258 -0.7867  1.1924
11064SOL    HW238040   2.824   0.198   0.708  1.0849  0.9585  0.4722
11065SOL     OW38041   2.061   0.625   2.430  0.1033 -0.2507 -0.2073
11065SOL    HW138042   2.028   0.699   2.482  0.2885 -0.8810  0.8155
11065SOL    HW238043   1.993   0.558   2.438  1.7731 -1.7373  2.2905
11066SOL     OW38044   2.711   9.644   8.847  0.4176 -0.2159  0.6750
11066SOL    HW138045   2.668   9.577   8.900  0.7173 -1.0177 -0.0976
11066SOL    HW238046   2.772   9.596   8.792  1.2932  0.7757  0.7528
11067SOL     OW38047   2.281   1.055   9.479 -0.7317  0.5145  0.3356
11067SOL    HW138048   2.238   0.971   9.496  1.4095 -0.5641  0.6720
11067SOL    HW238049   2.237   1.090   9.402 -2.6832 -0.1783  1.1159
11068SOL     OW38050   3.242   9.758   0.381  0.8327  0.0145 -0.3476
11068SOL    HW138051   3.176   9.741   0.447  1.1578 -1.6451 -0.4455
11068SOL    HW238052   3.266   9.850   0.395 -0.3844  0.1928  0.6576
11069SOL     OW38053   1.547   8.881   1.488  0.4316  0.3228 -0.2844
11069SOL    HW138054   1.576   8.805   1.539 -0.2699  0.4685  0.3372
11069SOL    HW238055   1.513   8.843   1.407  1.1597  0.0602 -0.4702
11070SOL     OW38056   3.895   0.850   0.222 -0.0357 -0.1832 -0.1771
11070SOL    HW138057   3.934   0.878   0.305  0.7591  0.8289 -0.8888
11070SOL    HW238058   3.968   0.850   0.160 -0.5967 -1.0768 -0.8473
11071SOL     OW38059   4.908   8.342   3.012  0.2703  0.0509 -0.2903
11071SOL    HW138060   4.994   8.321   2.977  1.5009  0.1741  2.5042
11071SOL    HW238061   4.926   8.384   3.096 -2.5284 -1.0535  0.9223
11072SOL     OW38062   3.834   9.109   1.136  0.3828  0.1831  0.0511
11072SOL    HW138063   3.759   9.049   1.140  1.0886 -0.8879 -2.1756
11072SOL    HW238064   3.798   9.190   1.099 -0.5620  1.1883  3.0255
11073SOL     OW38065   0.701   1.276   1.681  0.5309 -0.4932 -0.8565
11073SOL    HW138066   0.651   1.201   1.648 -1.2180 -0.2929  1.2255
11073SOL    HW238067   0.760   1.240   1.747 -0.0579 -0.1102 -0.1073
11074SOL     OW38068   0.354   9.619   3.362 -0.1649 -0.0704 -0.3430
11074SOL    HW138069   0.323   9.698   3.406 -1.4505 -0.1639 -1.0438
11074SOL    HW238070   0.275   9.582   3.321  0.7901 -0.6130 -1.7301
11075SOL     OW38071   2.139   9.983   0.707 -0.7415  0.4166 -0.1579
11075SOL    HW138072   2.159  10.060   0.653  0.0498  1.5799  1.7229
11075SOL    HW238073   2.060  10.007   0.755  1.3931  1.5059  3.0067
11076SOL     OW38074   1.800   0.742   1.398  0.0618 -0.3455  0.5771
11076SOL    HW138075   1.889   0.740   1.434 -0.0765  0.8560  0.9919
11076SOL    HW238076   1.812   0.769   1.307  0.3384 -2.6304 -0.1007
11077SOL     OW38077   2.175   8.174   0.640 -0.0993  0.9444  0.2923
11077SOL    HW138078   2.101   8.235   0.649 -0.6024  0.4653 -0.5563
11077SOL    HW238079   2.168   8.141   0.551  0.1524 -0.3912  0.7638
11078SOL     OW38080   4.169   9.729   1.166 -0.7118  0.1236 -0.0001
11078SOL    HW138081   4.208   9.757   1.083 -0.5693 -0.7017 -0.2210
11078SOL    HW238082   4.075   9.743   1.154 -0.6301  0.6239 -0.0594
11079SOL     OW38083   0.939   0.655   0.366 -0.6725  0.1524  0.0402
11079SOL    HW138084   0.864   0.600   0.389 -0.0004 -0.8978 -0.2416
11079SOL    HW238085   0.900   0.737   0.336 -1.6012  1.1339  3.7283
11080SOL     OW38086   3.140   9.623   1.302  0.2711 -0.5750  0.5809
11080SOL    HW138087   3.176   9.614   1.213  0.9543 -0.3305  0.8316
11080SOL    HW238088   3.080   9.549   1.311 -0.9641  0.2471 -0.6418
11081SOL     OW38089   1.549   0.212   9.887  0.3554 -0.1944  0.4565
11081SOL    HW138090   1.617   0.240   9.948 -0.4783 -0.2662  1.4280
11081SOL    HW238091   1.563   0.117   9.877 -0.6098 -0.5148  1.9507
11082SOL     OW38092   1.519   0.463   0.212  0.3162  0.0093  0.4229
11082SOL    HW138093   1.452   0.395   0.207 -1.0562  1.3678  0.2394
11082SOL    HW238094   1.589   0.431   0.155 -0.9685 -0.5407 -0.8847
11083SOL     OW38095   2.752   9.750   1.721 -0.0326 -0.0542  0.4295
11083SOL    HW138096   2.723   9.705   1.800 -0.2807  0.7112  0.7772
11083SOL    HW238097   2.836   9.790   1.744 -1.1169  1.9800  0.9880
11084SOL     OW38098   4.186   9.834   1.497  0.0860  0.8570 -0.4526
11084SOL    HW138099   4.244   9.892   1.447  1.7182  0.6886  1.2095
11084SOL    HW238100   4.220   9.746   1.480  0.5336  0.7832  0.8102
11085SOL     OW38101   2.702   0.282   9.376  0.6133 -0.6158  0.2977
11085SOL    HW138102   2.759   0.219   9.420  0.5776 -0.6849  0.2457
11085SOL    HW238103   2.618   0.273   9.421  0.2764 -1.4519 -0.4996
11086SOL     OW38104   4.193   1.036   2.340  0.2780 -0.1615 -0.3538
11086SOL    HW138105   4.166   0.978   2.411  2.3566 -1.7301 -0.7905
11086SOL    HW238106   4.111   1.061   2.297 -0.9349  0.0652  1.9904
11087SOL     OW38107   2.502   1.160   0.585  0.4869 -0.0731 -0.6207
11087SOL    HW138108   2.484   1.071   0.554  1.3160 -0.6106  0.3814
11087SOL    HW238109   2.571   1.193   0.527  2.8397 -1.4911  1.2740
11088SOL     OW38110   2.507   8.890   0.975  0.1086  0.1192 -0.0766
11088SOL    HW138111   2.526   8.817   1.033 -0.9394 -0.0618  0.0583
11088SOL    HW238112   2.440   8.941   1.021 -1.6325 -0.7025 -1.6214
11089SOL     OW38113   2.407   9.471   0.858 -0.3201 -0.0296 -0.0887
11089SOL    HW138114   2.331   9.420   0.830 -0.6886  0.5477 -0.1657
11089SOL    HW238115   2.382   9.508   0.942  0.0367 -0.1759  0.0825
11090SOL     OW38116   3.565   9.663   0.078 -0.4055  0.0931  0.2145
11090SOL    HW138117   3.548   9.727   0.009 -1.8250  0.1384  0.5881
11090SOL    HW238118   3.523   9.582   0.047 -0.8580  0.0560  0.9202
11091SOL     OW38119   3.362   9.176   0.831  0.1674 -0.0762 -0.0044
11091SOL    HW138120   3.269   9.155   0.819  0.5161 -1.5691 -0.1889
11091SOL    HW238121   3.405   9.136   0.755  1.0192  0.2709  0.2899
11092SOL     OW38122   3.654   7.272   0.945  0.4045 -0.2915  0.3065
11092SOL    HW138123   3.690   7.218   0.875  0.1598 -0.8880  0.6358
11092SOL    HW238124   3.645   7.359   0.906  2.4387 -0.0503  0.2921
11093SOL     OW38125   1.689   9.083   2.662 -0.2026 -0.5004 -0.2000
11093SOL    HW138126   1.689   9.141   2.738 -0.1187 -0.8517  0.0748
11093SOL    HW238127   1.766   9.109   2.612 -1.0221  0.6340 -0.8712
11094SOL     OW38128   1.927   8.196   2.357 -0.4367 -0.2950 -0.3149
11094SOL    HW138129   1.858   8.191   2.291 -0.2062 -3.6298 -0.3868
11094SOL    HW238130   1.884   8.173   2.439  0.2080 -0.4612 -0.0227
11095SOL     OW38131   3.577   9.483   3.525 -0.2246 -0.4173  0.2785
11095SOL    HW138132   3.647   9.451   3.581  0.2713 -1.4523 -0.9342
11095SOL    HW238133   3.563   9.573   3.554  2.0494  0.0174  0.0939
11096SOL     OW38134   2.450   9.576   1.140 -0.2137 -0.2699  0.0602
11096SOL    HW138135   2.474   9.610   1.226 -0.7238 -0.0932  0.1362
11096SOL    HW238136   2.355   9.590   1.134 -0.3613 -1.2857 -0.0790
11097SOL     OW38137   4.868   9.236   3.632 -0.3348 -0.2365  0.3736
11097SOL    HW138138   4.910   9.314   3.669  1.7545  0.1876 -2.7642
11097SOL    HW238139   4.774   9.248   3.651  0.3754  1.0836  3.3590
11098SOL     OW38140   1.503   0.655   0.539 -0.3852  0.3749 -0.1762
11098SOL    HW138141   1.477   0.738   0.579 -0.2881  1.0935 -1.5759
11098SOL    HW238142   1.588   0.634   0.578  0.1463  1.5420 -0.6936
11099SOL     OW38143   2.766   0.066   2.711 -0.2108  0.0124 -0.3332
11099SOL    HW138144   2.778  -0.013   2.658  0.9221 -1.7023  2.3667
11099SOL    HW238145   2.855   0.093   2.733 -0.6754  0.5656  0.8753
11100SOL     OW38146   2.643   9.537   2.674 -0.1518 -0.8345 -0.1288
11100SOL    HW138147   2.570   9.574   2.626  1.0179  1.1012 -0.4822
11100SOL    HW238148   2.717   9.596   2.655  1.2837 -2.2521  0.8792
11101SOL     OW38149   1.808   0.450   2.460 -0.3056 -0.0218  0.4671
11101SOL    HW138150   1.764   0.468   2.377 -1.1949 -0.0011  0.9446
11101SOL    HW238151   1.781   0.361   2.484  2.5173 -1.3109 -0.8864
11102SOL     OW38152   4.100   9.066   3.624 -0.0765  0.6491 -0.0806
11102SOL    HW138153   4.119   9.147   3.673 -0.4450  0.5458  0.2385
11102SOL    HW238154   4.013   9.040   3.655  1.1160 -1.2946  1.7467
11103SOL     OW38155   3.902   9.460   2.436 -0.5045 -0.3951 -0.1649
11103SOL    HW138156   3.865   9.372   2.436  0.4961 -0.8378 -1.4000
11103SOL    HW238157   3.827   9.518   2.453 -1.2818 -1.4344 -0.0009
11104SOL     OW38158   4.295   8.829   2.974 -0.0583 -0.1521  0.3264
11104SOL    HW138159   4.259   8.740   2.972  3.2963 -1.5745  0.3602
11104SOL    HW238160   4.231   8.882   2.926 -2.8010 -2.3029  1.5155
11105SOL     OW38161   3.603   9.958   1.871  0.4224 -0.0775 -0.0369
11105SOL    HW138162   3.669  10.027   1.873 -2.8457  3.1518  2.4542
11105SOL    HW238163   3.608   9.917   1.957  0.3566 -0.9507 -0.4452
11106SOL     OW38164   2.040   9.636   4.293 -0.1375 -0.8643  0.1770
11106SOL    HW138165   2.133   9.660   4.285 -0.6224  0.8034 -0.7185
11106SOL    HW238166   2.015   9.668   4.380  0.0986 -1.2012  0.3692
11107SOL     OW38167   2.485   8.778   3.043  0.2526  0.6787  0.7868
11107SOL    HW138168   2.442   8.693   3.032 -1.7512  1.9479 -1.5205
11107SOL    HW238169   2.578   8.757   3.045 -0.2319 -1.6235  0.6924
11108SOL     OW38170   2.966   9.805   1.483  0.6573 -0.2348 -0.0210
11108SOL    HW138171   2.923   9.752   1.550  0.8988  0.5784  0.7885
11108SOL    HW238172   2.967   9.749   1.405 -0.0960 -0.9942  0.5020
11109SOL     OW38173   1.797   8.023   1.779  0.4843 -0.6064 -0.4830
11109SOL    HW138174   1.781   8.063   1.693  1.7726  0.2971 -0.3139
11109SOL    HW238175   1.715   8.036   1.827  0.9528  2.0785 -0.3403
11110SOL     OW38176   3.381   0.642   0.621 -0.2289  0.8638 -0.5480
11110SOL    HW138177   3.449   0.683   0.674  0.5820 -1.4374  0.2700
11110SOL    HW238178   3.381   0.691   0.539  0.8314  2.3307  0.2992
11111SOL     OW38179   1.958   1.262   3.814 -0.4046  0.2654 -0.5512
11111SOL    HW138180   1.915   1.176   3.821  0.4220 -0.0375  1.1203
11111SOL    HW238181   1.899   1.322   3.859  1.7302 -0.4845  3.4443
11112SOL     OW38182   2.810   9.639   4.402 -0.1159 -0.1486  0.3793
11112SOL    HW138183   2.870   9.602   4.337 -1.3702 -3.3911  0.9477
11112SOL    HW238184   2.729   9.653   4.354 -0.1682  0.1915  0.5697
11113SOL     OW38185   4.172   9.720   2.364  0.2584  0.1153  0.5011
11113SOL    HW138186   4.085   9.720   2.404 -0.5750 -0.0281 -1.2624
11113SOL    HW238187   4.180   9.634   2.323  1.7420 -0.3417  1.7076
11114SOL     OW38188   3.261   9.441   2.601 -0.7052  0.2414  0.1339
11114SOL    HW138189   3.324   9.503   2.636 -0.2017  0.9387 -1.9096
11114SOL    HW238190   3.313   9.363   2.582 -0.8715  0.0589  0.4292
11115SOL     OW38191   2.403   0.438   2.996 -0.2699  0.1639 -0.3579
11115SOL    HW138192   2.358   0.419   2.914  0.9955 -0.1351 -0.9952
11115SOL    HW238193   2.408   0.354   3.041  2.2901 -0.4152 -1.6422
11116SOL     OW38194   2.245   8.956   1.440  0.1096  0.4437  0.2644
11116SOL    HW138195   2.290   8.903   1.506 -0.6729  1.4332  1.6122
11116SOL    HW238196   2.182   8.895   1.400 -0.7255  0.3134  1.7473
11117SOL     OW38197   1.004   1.297   4.652 -0.1389 -0.5767 -0.0719
11117SOL    HW138198   0.946   1.311   4.576  1.4430 -1.9463 -1.5819
11117SOL    HW238199   1.011   1.202   4.659 -0.4860 -0.4550  1.9820
11118SOL     OW38200   2.244   8.963   3.048  0.2637  0.0038 -0.3082
11118SOL    HW138201   2.251   8.919   3.133 -0.0192 -0.3313 -0.4546
11118SOL    HW238202   2.242   9.056   3.069  0.2213 -0.0767  0.0534
11119SOL     OW38203   3.697   1.117   1.648 -0.0112 -0.1542 -0.4613
11119SOL    HW138204   3.725   1.208   1.640 -2.1548  0.5387 -0.2893
11119SOL    HW238205   3.662   1.095   1.561  4.0433 -2.0992 -1.7407
11120SOL     OW38206   1.061   8.238   4.799  0.3237  0.2813 -0.0491
11120SOL    HW138207   1.008   8.312   4.829 -0.1511 -0.5545  1.1930
11120SOL    HW238208   1.035   8.226   4.707 -0.1055  1.2108 -0.0527
11121SOL     OW38209   1.385   8.997   1.078  0.2465  0.9433 -0.3183
11121SOL    HW138210   1.388   9.086   1.113 -2.0100 -0.0691  2.6765
11121SOL    HW238211   1.292   8.973   1.080  0.9923 -2.1589  0.8181
11122SOL     OW38212   3.281   9.144   2.080  0.1530  0.2020 -0.0009
11122SOL    HW138213   3.345   9.107   2.141  0.6189 -0.6275 -0.9830
11122SOL    HW238214   3.321   9.226   2.050  1.2288 -0.7964 -1.3682
11123SOL     OW38215   4.250   8.744   1.093  0.4281 -0.3742  0.4223
11123SOL    HW138216   4.210   8.781   1.014  0.1101  0.8708  1.1414
11123SOL    HW238217   4.342   8.768   1.086  0.7672 -1.8617 -0.4543
11124SOL     OW38218   3.382   9.367   2.952  0.0797 -0.2492 -0.4921
11124SOL    HW138219   3.288   9.357   2.968 -0.1595  0.6489 -1.3412
11124SOL    HW238220   3.413   9.419   3.027 -0.4263  1.0012 -1.1425
11125SOL     OW38221   0.974   8.654   2.933  0.0161  0.1230 -0.4336
11125SOL    HW138222   0.986   8.749   2.929 -0.0817  0.1330 -0.4623
11125SOL    HW238223   1.050   8.619   2.886 -0.0721  0.1924 -0.6308
11126SOL     OW38224   3.322   9.952   2.990 -0.2496 -0.2152  0.6559
11126SOL    HW138225   3.232   9.976   2.969 -1.0953 -0.5054  3.7501
11126SOL    HW238226   3.330   9.969   3.084  2.4056 -1.8069  0.7635
11127SOL     OW38227   2.817   9.340   3.000 -0.8211  0.2843 -0.3224
11127SOL    HW138228   2.730   9.360   2.965 -1.4761 -1.6235  0.1797
11127SOL    HW238229   2.845   9.263   2.951 -1.1602 -1.6012  2.3870
11128SOL     OW38230   2.560   0.474   2.271 -0.3221  0.3432  0.3536
11128SOL    HW138231   2.559   0.431   2.186 -0.1116 -0.9790  0.9997
11128SOL    HW238232   2.554   0.567   2.252 -1.7437 -0.0300 -1.0387
11129SOL     OW38233   3.464   9.403   0.935 -0.2781 -0.2118  0.1539
11129SOL    HW138234   3.448   9.321   0.887 -0.9320 -0.0690  0.1279
11129SOL    HW238235   3.432   9.472   0.877  0.3584  0.0697  0.1381
11130SOL     OW38236   2.188   9.229   3.169 -0.3492 -0.0916  0.0822
11130SOL    HW138237   2.123   9.296   3.147  0.4183  0.4055 -0.7322
11130SOL    HW238238   2.218   9.251   3.257 -0.9553 -0.0565  0.2757
11131SOL     OW38239   0.942   1.421   3.574  0.1454  0.1031 -0.5522
11131SOL    HW138240   0.925   1.417   3.479  1.3865  0.5907 -0.8041
11131SOL    HW238241   0.887   1.492   3.605 -0.6693 -0.4074 -0.8238
11132SOL     OW38242   0.943   8.877   2.430 -0.6440 -0.1563  0.1443
11132SOL    HW138243   0.903   8.949   2.478  0.1565 -0.6688  1.6212
11132SOL    HW238244   0.869   8.825   2.398 -1.2025  0.7893 -0.1341
11133SOL     OW38245   0.929   9.227   1.754 -0.3347  0.1798 -0.1625
11133SOL    HW138246   0.845   9.225   1.708  0.0512  1.4942 -0.9460
11133SOL    HW238247   0.989   9.268   1.693  0.3041  1.5008  1.3000
11134SOL     OW38248   1.704   0.425   3.612  0.3421  0.5184  0.2282
11134SOL    HW138249   1.661   0.451   3.530 -1.1637  0.4535  0.9725
11134SOL    HW238250   1.652   0.468   3.680  0.9263 -0.3233  1.2129
11135SOL     OW38251   3.576   0.306   2.681  0.0864 -0.1038  0.5056
11135SOL    HW138252   3.498   0.293   2.627 -0.8538 -0.7439  2.0054
11135SOL    HW238253   3.594   0.400   2.675 -0.0509 -0.1477 -0.8437
11136SOL     OW38254   1.499   9.236   1.826  0.0621 -0.1707 -0.1112
11136SOL    HW138255   1.445   9.274   1.757 -0.7124  0.3801  0.7898
11136SOL    HW238256   1.439   9.222   1.899  1.2263  1.0449  1.1306
11137SOL     OW38257   0.302   0.791   4.138 -0.3132 -0.2712  0.0105
11137SOL    HW138258   0.259   0.706   4.125 -0.6650 -0.2991  1.2669
11137SOL    HW238259   0.242   0.840   4.194  0.8822  0.0049  1.0794
11138SOL     OW38260   3.126   7.799   2.328 -0.2147  0.1626 -0.2393
11138SOL    HW138261   3.209   7.813   2.283 -1.2968  0.7022 -2.1847
11138SOL    HW238262   3.081   7.733   2.274 -0.3675 -1.3580  1.7140
11139SOL     OW38263   2.200   9.024   4.609  0.8722  0.5900 -0.6040
11139SOL    HW138264   2.283   9.018   4.561  0.6984 -1.0219 -0.7239
11139SOL    HW238265   2.194   9.116   4.633  2.7121  0.7317 -0.5693
11140SOL     OW38266   2.334   0.199   4.353 -0.1718 -0.2983 -0.3194
11140SOL    HW138267   2.307   0.173   4.441 -2.3735 -0.4930 -1.0080
11140SOL    HW238268   2.262   0.171   4.297  0.1405  1.8671 -1.8852
11141SOL     OW38269   0.475   9.902   3.270  0.3402  0.4545 -0.2318
11141SOL    HW138270   0.389   9.941   3.254  0.7380  1.6334  0.4624
11141SOL    HW238271   0.456   9.809   3.286 -0.8898  0.8557  0.7492
11142SOL     OW38272   1.408   9.478   2.833  0.3094 -0.2996 -0.5385
11142SOL    HW138273   1.424   9.476   2.927 -3.5036 -1.4022  0.2041
11142SOL    HW238274   1.444   9.395   2.801 -0.6876 -1.1479  0.4569
11143SOL     OW38275   2.492   0.198   3.154  0.4457 -0.2016 -0.4781
11143SOL    HW138276   2.513   0.154   3.072 -0.0678  0.9577 -1.2513
11143SOL    HW238277   2.425   0.143   3.195 -0.3913 -0.0200 -1.5691
11144SOL     OW38278   3.432   1.172   2.761  0.4479 -0.4300  0.1332
11144SOL    HW138279   3.482   1.140   2.686 -0.5454 -0.3296 -0.5709
11144SOL    HW238280   3.448   1.108   2.830  2.9770  0.5092  0.4823
11145SOL     OW38281   1.956   9.255   2.025  0.0056  0.4600  0.0670
11145SOL    HW138282   1.940   9.232   1.933 -0.2397 -0.3417  0.3005
11145SOL    HW238283   2.044   9.292   2.025 -0.2799  1.1462 -0.6062
11146SOL     OW38284   3.284   9.410   1.943 -0.3029  0.3461  0.1006
11146SOL    HW138285   3.219   9.474   1.972 -0.5449  0.2421 -0.2172
11146SOL    HW238286   3.356   9.419   2.006  0.0894  1.6236 -0.5008
11147SOL     OW38287   4.035   0.286   2.419 -0.4476  0.0531  0.5595
11147SOL    HW138288   3.957   0.239   2.449 -0.0538 -0.7256  0.3939
11147SOL    HW238289   4.005   0.339   2.346 -0.7219 -0.6375  0.1645
11148SOL     OW38290   1.719   0.479   1.383  0.1134 -0.1427  0.4538
11148SOL    HW138291   1.739   0.558   1.433  0.3228  0.8306 -1.1167
11148SOL    HW238292   1.794   0.421   1.397  0.1056  0.0611  1.3636
11149SOL     OW38293   3.426   9.484   2.257 -0.7593  0.7755 -0.6883
11149SOL    HW138294   3.353   9.443   2.304 -0.8325  1.4006 -0.2418
11149SOL    HW238295   3.469   9.412   2.212 -0.8533  0.2038  0.1276
11150SOL     OW38296   3.801   0.980   3.161  0.1860 -0.2717 -0.3116
11150SOL    HW138297   3.797   0.889   3.131  0.3899 -0.7403  1.0552
11150SOL    HW238298   3.864   1.022   3.103 -0.0432 -0.9563 -1.0613
11151SOL     OW38299   1.678   9.885   0.450  0.3766  0.2095 -0.2857
11151SOL    HW138300   1.598   9.855   0.492 -0.2358  0.5556 -1.1714
11151SOL    HW238301   1.731   9.806   0.438  0.9763  0.2546  1.9862
11152SOL     OW38302   1.260   9.834   2.366  0.0657 -0.0962  0.0916
11152SOL    HW138303   1.178   9.821   2.414  0.2466 -1.5582  0.0235
11152SOL    HW238304   1.249   9.783   2.285  1.0268 -0.2624  0.0609
11153SOL     OW38305   2.526   9.927   2.155 -0.1076 -0.0491 -0.5908
11153SOL    HW138306   2.582   9.957   2.084  0.0697 -1.6368 -1.1314
11153SOL    HW238307   2.468   9.863   2.115 -0.7922 -0.0929  0.4535
11154SOL     OW38308   4.359   9.726   2.066  0.4806 -0.0033 -0.0227
11154SOL    HW138309   4.303   9.704   1.992 -1.3843  0.2710  1.2718
11154SOL    HW238310   4.383   9.642   2.104 -0.3801 -0.0605  0.3869
11155SOL     OW38311   3.705   1.593   1.168  0.4392  0.3109 -0.7458
11155SOL    HW138312   3.778   1.556   1.120  2.6233  2.6761  0.6488
11155SOL    HW238313   3.717   1.564   1.259  1.4153  3.1705  0.0916
11156SOL     OW38314   2.344   9.727   2.849  0.1094  0.7392 -0.2418
11156SOL    HW138315   2.304   9.776   2.921  2.1430  2.1702 -0.0350
11156SOL    HW238316   2.356   9.793   2.780 -1.3188 -0.4988 -1.7031
11157SOL     OW38317   0.444   8.634   2.338 -0.2772 -0.2834 -0.0888
11157SOL    HW138318   0.444   8.611   2.431  0.1754 -0.7362 -0.1958
11157SOL    HW238319   0.391   8.565   2.297  0.8032 -0.9648 -0.3674
11158SOL     OW38320   2.471   9.037   1.707  0.4241  0.4883 -0.0185
11158SOL    HW138321   2.515   9.094   1.771 -0.6429  1.0447  0.2260
11158SOL    HW238322   2.514   9.057   1.624 -0.8043  2.6473 -0.1912
11159SOL     OW38323   5.328   8.371   2.017 -0.1051 -0.0735  0.4245
11159SOL    HW138324   5.295   8.295   1.968 -1.3485 -0.6183  2.0664
11159SOL    HW238325   5.421   8.353   2.027  0.4141  0.5550 -2.5973
11160SOL     OW38326   4.372   9.339   3.083 -0.5222 -0.2315 -0.3184
11160SOL    HW138327   4.449   9.313   3.032 -0.2404  0.5889 -0.3248
11160SOL    HW238328   4.297   9.319   3.027 -0.4198 -2.6500  0.3745
11161SOL     OW38329   4.528   9.368   1.908  0.2342  0.8481  0.4767
11161SOL    HW138330   4.588   9.425   1.956  0.9429  1.0878 -0.6795
11161SOL    HW238331   4.568   9.358   1.822  0.2296 -1.5697  0.7091
11162SOL     OW38332   2.195   9.937   3.121  0.9930  0.5670  0.1374
11162SOL    HW138333   2.115   9.959   3.074  0.8619 -0.2814 -0.0487
11162SOL    HW238334   2.266   9.961   3.061  0.8796  1.4774  0.3712
11163SOL     OW38335   5.332   9.079   2.389 -0.5021  0.4143 -1.3210
11163SOL    HW138336   5.385   9.003   2.365  1.2196  1.1638  0.0362
11163SOL    HW238337   5.241   9.049   2.381  0.1446 -1.3848 -2.0231
11164SOL     OW38338   2.943   1.794   6.353 -0.5521 -0.1598  0.4262
11164SOL    HW138339   2.963   1.790   6.446  0.8425 -0.0574  0.1465
11164SOL    HW238340   2.974   1.881   6.326  0.9650 -0.9717 -0.5409
11165SOL     OW38341   1.894   9.877   4.202  0.1807  0.3400  0.2614
11165SOL    HW138342   1.952   9.807   4.232 -1.9392 -1.2474  0.7591
11165SOL    HW238343   1.892   9.939   4.275  0.9694  0.2253  0.3836
11166SOL     OW38344   3.479   8.924   4.567  0.2793  0.2828  0.1546
11166SOL    HW138345   3.476   8.995   4.504  0.3243  1.7962  1.8229
11166SOL    HW238346   3.555   8.944   4.622  0.5900 -1.3191  0.3283
11167SOL     OW38347   3.714   8.675   5.514 -0.2077  0.5805  1.0424
11167SOL    HW138348   3.751   8.763   5.525 -0.0943  0.6985 -0.1315
11167SOL    HW238349   3.781   8.616   5.548  0.6252  0.8496 -0.0886
11168SOL     OW38350   4.423   8.428   5.124 -0.3073 -0.0634  0.0064
11168SOL    HW138351   4.457   8.422   5.035 -0.3760  0.1292 -0.0313
11168SOL    HW238352   4.329   8.420   5.114 -0.3809  0.8107 -0.0160
11169SOL     OW38353   2.528   0.153   5.126 -0.1105 -0.2739 -0.6019
11169SOL    HW138354   2.596   0.216   5.101 -0.4690 -0.2173 -1.4347
11169SOL    HW238355   2.467   0.153   5.053 -0.5586 -0.9659 -0.2327
11170SOL     OW38356   2.882   9.031   5.920 -0.1872 -0.0196 -0.2573
11170SOL    HW138357   2.809   9.065   5.972 -0.6706 -1.5217  0.0748
11170SOL    HW238358   2.843   9.005   5.837 -0.4889 -2.8652  0.7099
11171SOL     OW38359   3.334   9.803   3.989 -0.2998  0.0279 -0.3187
11171SOL    HW138360   3.402   9.841   3.934  2.7110  0.4173  3.4109
11171SOL    HW238361   3.282   9.878   4.019 -0.1608  0.1429 -0.3646
11172SOL     OW38362   2.673   9.204   4.983 -0.1161  0.2461  0.0073
11172SOL    HW138363   2.636   9.256   4.912 -0.0558 -0.1601 -0.3242
11172SOL    HW238364   2.599   9.156   5.019 -0.2311  0.8082  0.5309
11173SOL     OW38365   3.851   8.734   6.082 -0.5035 -0.3992  0.3954
11173SOL    HW138366   3.789   8.664   6.099 -0.0507 -0.3545  2.3619
11173SOL    HW238367   3.867   8.773   6.168  0.2213  1.2887 -0.4796
11174SOL     OW38368   2.973   8.403   5.326  0.2378 -0.0024 -1.1503
11174SOL    HW138369   2.896   8.446   5.288 -0.4695 -0.9943 -0.8518
11174SOL    HW238370   2.966   8.418   5.420  0.3962 -0.1123 -1.1198
11175SOL     OW38371   4.589   9.292   4.686  0.6809 -0.5802  0.7130
11175SOL    HW138372   4.560   9.202   4.696  0.3749 -0.4361  1.1099
11175SOL    HW238373   4.632   9.313   4.769  2.7479 -1.0981 -0.1846
11176SOL     OW38374   3.258   9.439   5.220 -0.0519 -0.1131  0.5573
11176SOL    HW138375   3.283   9.374   5.285 -1.5754  0.1952  1.4826
11176SOL    HW238376   3.338   9.486   5.199  0.7522 -1.2605  1.0319
11177SOL     OW38377   2.611   8.403   5.058 -0.0772 -0.1717  0.0756
11177SOL    HW138378   2.547   8.382   4.990  0.0287  1.3300 -0.4985
11177SOL    HW238379   2.649   8.318   5.082 -1.2001 -0.8948 -0.6471
11178SOL     OW38380   3.266   0.471   4.319  0.3741  0.2050 -0.7310
11178SOL    HW138381   3.258   0.385   4.360  0.7169  1.1728  1.4438
11178SOL    HW238382   3.344   0.509   4.359  0.4868  1.3616 -2.0157
11179SOL     OW38383   3.245   7.860   6.309  0.1801 -0.2550  0.5714
11179SOL    HW138384   3.294   7.933   6.349  0.1113  0.5451 -0.7769
11179SOL    HW238385   3.246   7.791   6.376  2.2250  0.1346  0.9652
11180SOL     OW38386   2.395   9.330   3.791 -0.1016  0.4832 -0.2700
11180SOL    HW138387   2.456   9.386   3.840  0.4704 -0.3547 -0.0114
11180SOL    HW238388   2.350   9.389   3.732  0.1450  1.3017  0.3516
11181SOL     OW38389   3.684   9.615   4.345 -0.5921  0.5633 -0.0221
11181SOL    HW138390   3.740   9.626   4.422  1.4568 -0.7107 -1.3011
11181SOL    HW238391   3.620   9.548   4.371  0.2112 -0.0051  0.5022
11182SOL     OW38392   3.801   8.330   5.092  0.0984  0.0060 -0.0813
11182SOL    HW138393   3.707   8.351   5.088 -0.6497 -2.8379  1.3373
11182SOL    HW238394   3.834   8.384   5.164 -0.6187  0.3875 -0.0302
11183SOL     OW38395   2.789   0.400   3.619 -0.3457 -0.7077 -0.1788
11183SOL    HW138396   2.713   0.387   3.563 -0.1474 -1.6579 -0.2323
11183SOL    HW238397   2.813   0.312   3.648  1.6013 -0.5554 -1.2909
11184SOL     OW38398   1.675   9.025   4.732 -0.1029  0.1511 -0.4766
11184SOL    HW138399   1.748   9.051   4.676  1.0123 -0.3794  0.7292
11184SOL    HW238400   1.617   8.976   4.674  1.3650 -0.9544 -1.0291
11185SOL     OW38401   2.040   0.388   3.182 -0.2895  0.3796 -0.3365
11185SOL    HW138402   1.945   0.399   3.172 -0.4481  0.4442  1.1531
11185SOL    HW238403   2.049   0.314   3.242  0.5579  1.4534  0.9024
11186SOL     OW38404   2.591   9.512   5.480 -0.5640  0.1002  0.1500
11186SOL    HW138405   2.538   9.592   5.478 -0.6499  0.0368 -0.4283
11186SOL    HW238406   2.526   9.441   5.474 -0.3862  0.0381 -1.4203
11187SOL     OW38407   2.253   0.267   5.191 -0.0315  0.1929  0.3334
11187SOL    HW138408   2.255   0.240   5.099 -0.5060  0.1314  0.3412
11187SOL    HW238409   2.160   0.269   5.213 -0.1123  3.3300 -0.0969
11188SOL     OW38410   3.314   9.009   5.736 -0.4266 -0.2199  0.1335
11188SOL    HW138411   3.399   8.968   5.720 -1.4624 -1.9505 -1.1294
11188SOL    HW238412   3.271   8.950   5.797 -1.9381 -1.0667 -1.6998
11189SOL     OW38413   5.162   7.692   3.812 -0.0965 -0.1956 -0.1401
11189SOL    HW138414   5.082   7.687   3.865 -0.3202 -0.5339 -0.5083
11189SOL    HW238415   5.215   7.760   3.855 -1.3854  1.3765 -0.9917
11190SOL     OW38416   3.392   9.516   4.198  0.0399 -0.4561  0.4003
11190SOL    HW138417   3.391   9.585   4.133 -1.3561  0.5332  1.4406
11190SOL    HW238418   3.339   9.446   4.161 -0.6833  0.0717  0.4373
11191SOL     OW38419   2.840   8.386   3.277 -0.1727 -0.1043 -0.2525
11191SOL    HW138420   2.779   8.321   3.244 -0.0103 -0.0370 -0.6849
11191SOL    HW238421   2.904   8.398   3.206  0.8857 -0.8666  0.5468
11192SOL     OW38422   3.886   8.437   6.319 -1.1075  0.1418  0.2333
11192SOL    HW138423   3.833   8.411   6.394  0.4963 -0.8970  1.0223
11192SOL    HW238424   3.900   8.531   6.332  1.0442 -0.4485  2.4619
11193SOL     OW38425   4.655   8.980   3.303  0.0775  0.2126 -0.1234
11193SOL    HW138426   4.726   9.042   3.284  0.1577 -0.2365 -1.3390
11193SOL    HW238427   4.609   8.970   3.219 -1.3099  0.3528  0.6093
11194SOL     OW38428   3.024   1.928   5.301 -0.5219  0.1411  0.3468
11194SOL    HW138429   2.971   1.897   5.374  0.8598 -0.5801  1.0612
11194SOL    HW238430   3.103   1.874   5.305  1.5846  3.2001  1.1206
11195SOL     OW38431   3.123   9.774   4.458 -0.3144  0.3597  0.2200
11195SOL    HW138432   3.138   9.860   4.498  1.3226  0.1925  0.0321
11195SOL    HW238433   3.065   9.791   4.384 -1.4545  1.0235  1.2495
11196SOL     OW38434   2.853   9.664   5.636  0.4844 -0.1670  0.2797
11196SOL    HW138435   2.833   9.713   5.557  0.5247 -1.2407 -0.4184
11196SOL    HW238436   2.944   9.686   5.656  0.4714  0.1200  0.0212
11197SOL     OW38437   2.821   8.823   3.302  0.4820  0.2050  0.6519
11197SOL    HW138438   2.853   8.753   3.360  0.9347 -0.1620 -0.0358
11197SOL    HW238439   2.892   8.887   3.301  0.1627  0.5635  1.0982
11198SOL     OW38440   3.323   9.170   3.581  0.3258 -0.1808  0.7737
11198SOL    HW138441   3.311   9.265   3.582 -0.1263 -0.2401  1.2458
11198SOL    HW238442   3.234   9.135   3.579  0.4999 -0.5872  0.0596
11199SOL     OW38443   2.549   0.698   6.030 -0.4775  0.2069  0.1161
11199SOL    HW138444   2.614   0.678   5.962 -2.8783  1.0531 -2.5102
11199SOL    HW238445   2.497   0.618   6.036 -0.2771  0.1397  0.9811
11200SOL     OW38446   3.139   9.923   4.213 -0.3202 -0.0905  0.1331
11200SOL    HW138447   3.202   9.948   4.281  0.5187  2.1893 -1.4134
11200SOL    HW238448   3.053   9.936   4.254  0.1870  0.3132  1.0954
11201SOL     OW38449   2.814   0.151   3.750  0.2582 -0.3614 -0.7112
11201SOL    HW138450   2.830   0.200   3.830 -0.5633  1.9728 -1.9422
11201SOL    HW238451   2.886   0.088   3.745 -0.8004 -2.0061  2.9232
11202SOL     OW38452   3.657   8.584   3.770 -0.3872 -0.0039  0.1911
11202SOL    HW138453   3.708   8.573   3.690  1.4710  0.1101  1.3360
11202SOL    HW238454   3.636   8.677   3.773 -0.3584  0.0120 -0.1127
11203SOL     OW38455   2.702   0.143   4.232 -0.3146 -0.1919 -0.0782
11203SOL    HW138456   2.715   0.128   4.326  0.5536 -0.4976 -0.2356
11203SOL    HW238457   2.683   0.236   4.225  0.0323 -0.0847  0.3652
11204SOL     OW38458   3.883   9.812   6.711 -0.2626 -0.4972 -0.0525
11204SOL    HW138459   3.839   9.738   6.753 -1.2983  0.0331 -0.2012
11204SOL    HW238460   3.832   9.888   6.736  0.6164  0.1364 -0.1679
11205SOL     OW38461   4.700   7.932   4.155  0.0912  0.1025  0.2968
11205SOL    HW138462   4.731   7.985   4.228  0.2901  0.9373 -0.3804
11205SOL    HW238463   4.666   7.995   4.092 -2.7746 -0.7853  0.9083
11206SOL     OW38464   2.796   8.966   5.151 -0.1173 -0.2632  0.6400
11206SOL    HW138465   2.702   8.946   5.154 -0.0754 -0.8775 -1.2148
11206SOL    HW238466   2.808   9.011   5.067  1.4558 -1.3877  0.2404
11207SOL     OW38467   2.997   8.690   5.578  0.1241  0.1362  0.1612
11207SOL    HW138468   2.973   8.718   5.490 -0.0574 -1.2555 -0.2381
11207SOL    HW238469   3.015   8.772   5.625 -1.8975  1.0156 -0.5485
11208SOL     OW38470   3.427   9.390   5.428 -0.4664 -0.8399 -0.1032
11208SOL    HW138471   3.491   9.453   5.396 -2.2885  0.8806 -0.3986
11208SOL    HW238472   3.387   9.432   5.504 -3.2845 -0.6295 -1.6254
11209SOL     OW38473   2.864   0.179   5.406 -0.2537 -0.2286  0.1239
11209SOL    HW138474   2.859   0.154   5.314 -0.8500  0.0984  0.0689
11209SOL    HW238475   2.776   0.207   5.429 -0.5954 -2.1708  1.3266
11210SOL     OW38476   3.896   9.524   4.112 -0.9273 -0.4062 -0.2057
11210SOL    HW138477   3.841   9.522   4.191 -0.7907 -0.0241 -0.0995
11210SOL    HW238478   3.957   9.451   4.124 -0.6091 -0.0689  0.2632
11211SOL     OW38479   2.913   9.970   4.370  0.2527  0.7827  0.4243
11211SOL    HW138480   2.925  10.031   4.443 -0.5747 -0.5047  1.6571
11211SOL    HW238481   2.819   9.963   4.359  0.3835  1.4196 -1.1719
11212SOL     OW38482   3.546   9.494   5.108  0.2341 -0.3453  0.1626
11212SOL    HW138483   3.582   9.515   5.194 -1.3417 -0.4797  0.8579
11212SOL    HW238484   3.521   9.578   5.070  1.6514 -0.2084 -0.5060
11213SOL     OW38485   2.794   9.458   4.925 -0.7764  0.1695 -0.0400
11213SOL    HW138486   2.815   9.495   4.839  0.9801  0.2238  0.3904
11213SOL    HW238487   2.878   9.458   4.972 -1.3801 -1.4643  1.0678
11214SOL     OW38488   3.133   9.399   4.249 -0.4884  0.0285 -0.4866
11214SOL    HW138489   3.043   9.375   4.226 -0.6889  1.4153 -1.1730
11214SOL    HW238490   3.132   9.495   4.253  0.2445 -0.0588  2.4618
11215SOL     OW38491   1.949   9.099   2.533 -0.0337 -0.2324  0.5206
11215SOL    HW138492   2.026   9.087   2.589  0.0142 -1.3840  0.2169
11215SOL    HW238493   1.985   9.106   2.445 -0.0911  1.8226  0.6312
11216SOL     OW38494   1.951   9.109   4.905 -0.1888  0.1400 -0.9527
11216SOL    HW138495   1.934   9.097   4.999 -0.1699  0.5463 -0.8978
11216SOL    HW238496   1.889   9.177   4.878  0.8183  1.0701 -0.9177
11217SOL     OW38497   3.398   7.820   6.045 -0.2847 -0.0113  0.0959
11217SOL    HW138498   3.388   7.773   6.128 -1.8806 -2.4449 -1.4079
11217SOL    HW238499   3.331   7.888   6.048 -0.9742 -0.6889  0.4599
11218SOL     OW38500   4.394   9.702   5.508  0.2642  0.0330 -0.0635
11218SOL    HW138501   4.451   9.735   5.577 -0.3190  0.0428  0.4183
11218SOL    HW238502   4.433   9.618   5.483  2.5143  1.6370 -2.2257
11219SOL     OW38503   2.693   0.654   3.013 -0.0004 -0.1006  1.0365
11219SOL    HW138504   2.725   0.724   2.955 -0.8650 -0.3918  0.1960
11219SOL    HW238505   2.700   0.574   2.961  3.1316 -1.0391  2.7674
11220SOL     OW38506   3.438   9.893   4.298 -0.2245  0.2872  0.4103
11220SOL    HW138507   3.413   9.936   4.380 -2.6667  0.7935 -0.5480
11220SOL    HW238508   3.434   9.799   4.318  0.0723  0.4267  1.1195
11221SOL     OW38509   1.975   9.731   4.553 -0.2980 -0.1892 -0.5370
11221SOL    HW138510   1.912   9.660   4.550  0.2073 -0.6287 -0.9055
11221SOL    HW238511   1.923   9.810   4.538 -1.0240 -0.3662  1.0482
11222SOL     OW38512   3.834   0.801   3.804  0.1620 -0.3878 -0.4245
11222SOL    HW138513   3.910   0.794   3.861  0.5242 -0.2637 -0.8929
11222SOL    HW238514   3.858   0.752   3.726  0.2168  0.6585 -1.0612
11223SOL     OW38515   3.872   8.778   3.096  0.4069  0.1519  0.0694
11223SOL    HW138516   3.913   8.864   3.086 -0.2554  0.2114 -2.4722
11223SOL    HW238517   3.835   8.759   3.010  0.3910 -2.6166  0.6372
11224SOL     OW38518   3.055   9.795   5.261  0.4554  0.3001  0.2212
11224SOL    HW138519   3.089   9.785   5.172  0.1425 -0.5253  0.1851
11224SOL    HW238520   3.066   9.708   5.300 -4.3996 -0.8771 -0.7714
11225SOL     OW38521   2.985   9.254   3.527 -0.0047  0.0215 -0.5254
11225SOL    HW138522   2.901   9.257   3.573 -0.3575  1.4501 -1.2406
11225SOL    HW238523   3.020   9.167   3.547 -2.0939 -0.9558 -1.0146
11226SOL     OW38524   3.896   9.287   3.901 -0.0051  0.3137 -0.7560
11226SOL    HW138525   3.968   9.297   3.839  1.3843 -1.2036  0.5838
11226SOL    HW238526   3.938   9.278   3.986 -1.7947 -0.1227  0.1084
11227SOL     OW38527   3.774   9.588   4.893 -0.2411  0.1174 -0.1168
11227SOL    HW138528   3.838   9.650   4.926 -0.4559  0.0602  0.4154
11227SOL    HW238529   3.696   9.604   4.946  0.0926 -1.4431  0.8641
11228SOL     OW38530   1.986   9.133   6.706 -0.0432  0.1862 -0.1509
11228SOL    HW138531   2.032   9.212   6.679 -0.8412  0.2917 -1.2100
11228SOL    HW238532   1.894   9.158   6.708 -0.1386 -0.2295  1.2452
11229SOL     OW38533   9.320   7.341   5.502 -0.0983 -0.3949  0.1814
11229SOL    HW138534   9.338   7.248   5.487  1.0951 -0.2171  0.4361
11229SOL    HW238535   9.400   7.386   5.474 -0.4988  0.5168  0.4694
11230SOL     OW38536   3.372   0.011   6.109 -0.2459  0.2266 -0.5135
11230SOL    HW138537   3.412   0.098   6.111 -0.4897  0.5003 -4.0264
11230SOL    HW238538   3.278   0.027   6.111 -0.3150  0.1577 -2.0120
11231SOL     OW38539   3.275   9.667   5.641  0.0849 -0.0349 -0.1636
11231SOL    HW138540   3.241   9.751   5.670  0.5651  0.4138 -0.8823
11231SOL    HW238541   3.230   9.649   5.559  0.6383 -0.0436 -0.4706
11232SOL     OW38542   3.575   0.966   5.850 -0.0900  0.3396 -0.4389
11232SOL    HW138543   3.489   0.998   5.822 -0.1680  1.6596  1.2393
11232SOL    HW238544   3.561   0.875   5.874 -1.6750  1.3026  2.5110
11233SOL     OW38545   1.847   8.659   7.039 -0.9239 -0.0326 -0.1395
11233SOL    HW138546   1.833   8.730   7.102 -0.7529  1.4547 -1.7575
11233SOL    HW238547   1.769   8.661   6.984  0.2453  0.5889 -1.7946
11234SOL     OW38548   2.291   0.429   6.660 -0.2670 -0.7156 -0.3828
11234SOL    HW138549   2.275   0.341   6.626 -1.1389 -0.9520  0.6105
11234SOL    HW238550   2.221   0.443   6.724 -1.2458  1.4519 -1.8939
11235SOL     OW38551   2.459   0.350   4.874 -0.2648  0.0155 -0.3876
11235SOL    HW138552   2.518   0.275   4.883 -0.3009  0.1116  0.6593
11235SOL    HW238553   2.390   0.319   4.815 -2.4196 -2.1077  3.0559
11236SOL     OW38554   1.984   8.426   7.059  0.2015 -0.3170 -0.0630
11236SOL    HW138555   1.928   8.391   7.128 -2.1986  0.8129 -1.3732
11236SOL    HW238556   1.958   8.518   7.051  0.5644 -0.3702 -2.2991
11237SOL     OW38557   3.395   1.788   6.365  0.2319  0.3817 -0.0767
11237SOL    HW138558   3.364   1.852   6.429  2.5559  1.2501  0.2352
11237SOL    HW238559   3.381   1.703   6.406 -2.1675  0.6884 -0.1791
11238SOL     OW38560   1.960   0.650   6.205 -0.1834  0.3198  0.3605
11238SOL    HW138561   1.965   0.731   6.256 -2.0901  0.2019  0.7669
11238SOL    HW238562   2.003   0.584   6.260 -0.8770  0.5220  1.1504
11239SOL     OW38563   2.875   9.818   9.023 -0.0025 -0.7058  0.1508
11239SOL    HW138564   2.820   9.896   9.010  1.1430  0.1595  0.4443
11239SOL    HW238565   2.829   9.749   8.976 -0.7420  0.2778 -0.6048
11240SOL     OW38566   3.022   9.702   7.120  0.5636  0.0586 -0.1524
11240SOL    HW138567   3.058   9.755   7.191  1.9455  0.5844 -1.2158
11240SOL    HW238568   3.099   9.673   7.071 -0.3142 -1.1359 -0.8431
11241SOL     OW38569   3.346   0.320   5.552  0.2770 -0.1376  0.5288
11241SOL    HW138570   3.402   0.301   5.477  0.1608  0.6963  0.2319
11241SOL    HW238571   3.261   0.343   5.515 -0.2630 -1.3566  0.9772
11242SOL     OW38572   4.454   0.103   5.878  0.3333  0.3106  0.4330
11242SOL    HW138573   4.499   0.136   5.956 -0.6692  1.8169  0.3933
11242SOL    HW238574   4.458   0.176   5.815  1.4472 -1.0120 -1.0699
11243SOL     OW38575   4.127   9.474   6.718 -0.4740  0.7895 -0.9522
11243SOL    HW138576   4.166   9.387   6.709 -0.4513  0.3017  2.8266
11243SOL    HW238577   4.191   9.533   6.679  2.0160 -0.4336  1.1243
11244SOL     OW38578   3.015   0.737   6.150  0.7199  0.2927 -0.1336
11244SOL    HW138579   2.994   0.676   6.080  1.7837  0.6455 -0.7640
11244SOL    HW238580   2.949   0.806   6.143  0.9066  0.3951 -0.8670
11245SOL     OW38581   4.201   9.475   5.381  0.0556 -0.7017  0.0271
11245SOL    HW138582   4.270   9.474   5.314 -1.0844 -1.3860 -1.1553
11245SOL    HW238583   4.130   9.424   5.343 -0.1571 -2.1435  2.2560
11246SOL     OW38584   2.672   0.184   7.830 -0.0213  0.1272  0.3672
11246SOL    HW138585   2.637   0.265   7.867  2.7770  1.7356 -0.3336
11246SOL    HW238586   2.639   0.181   7.741 -1.7592 -0.5642  1.0210
11247SOL     OW38587   4.031   0.001   4.859 -0.2241  0.2274 -0.2453
11247SOL    HW138588   4.118   0.032   4.834 -0.1114  0.6839  0.6781
11247SOL    HW238589   4.033  -0.001   4.954 -0.4803 -1.9820 -0.2746
11248SOL     OW38590   3.605   0.012   7.039  0.3749  0.1191  0.1810
11248SOL    HW138591   3.511   0.013   7.021  0.2053  2.6942  0.9186
11248SOL    HW238592   3.644   0.055   6.963  0.6989  1.2788  0.9890
11249SOL     OW38593   3.964   8.557   5.585  0.1339 -0.3232  0.5782
11249SOL    HW138594   4.000   8.623   5.525  1.9929 -0.3116  1.6522
11249SOL    HW238595   3.951   8.605   5.667  1.3531 -1.2437  1.3248
11250SOL     OW38596   2.563   1.638   6.909  0.6486  0.0931  0.2023
11250SOL    HW138597   2.505   1.568   6.938  0.1951 -0.3733 -1.7377
11250SOL    HW238598   2.606   1.669   6.989  0.6392 -2.2019  1.1342
11251SOL     OW38599   2.998   1.085   6.421 -0.6106  0.3100  0.5598
11251SOL    HW138600   3.057   1.159   6.406  0.4863 -0.6083  0.2905
11251SOL    HW238601   2.910   1.123   6.414 -0.1111  1.1142 -2.2660
11252SOL     OW38602   2.944   9.384   5.433 -0.8317  0.4900 -0.3501
11252SOL    HW138603   2.884   9.338   5.375  0.4733 -0.5672 -0.9106
11252SOL    HW238604   2.998   9.315   5.471 -0.7035  1.3141  1.0009
11253SOL     OW38605   2.091   8.636   5.988 -0.0114 -0.2502 -0.3375
11253SOL    HW138606   2.038   8.644   5.909 -0.5643  0.8818  0.1401
11253SOL    HW238607   2.163   8.577   5.963 -0.1123  0.1920 -1.7058
11254SOL     OW38608   1.921   0.310   5.626 -0.4667 -0.5094  0.3237
11254SOL    HW138609   1.976   0.338   5.699 -0.4460  1.0235 -0.2475
11254SOL    HW238610   1.836   0.292   5.665 -0.8638  1.7265  0.5317
11255SOL     OW38611   2.177   8.547   4.809 -0.0064  0.0360 -0.2799
11255SOL    HW138612   2.163   8.600   4.730 -1.8237  2.3773  1.5419
11255SOL    HW238613   2.132   8.595   4.878 -1.1935 -3.6526  1.5994
11256SOL     OW38614   2.987   1.939   7.569  0.2486 -0.0572 -0.1063
11256SOL    HW138615   2.910   1.908   7.617 -0.6530 -0.4639 -1.7688
11256SOL    HW238616   3.049   1.965   7.637 -0.3514 -2.1795  1.3031
11257SOL     OW38617   2.243   9.903   4.741 -0.0994 -0.2892 -0.2889
11257SOL    HW138618   2.241   9.957   4.663  0.9881 -0.3391 -0.3563
11257SOL    HW238619   2.200   9.821   4.715  1.1717 -0.7001 -1.1396
11258SOL     OW38620   1.826   9.885   6.814 -0.4966 -0.0191  0.2570
11258SOL    HW138621   1.823   9.908   6.906 -1.6074 -1.6388  0.6581
11258SOL    HW238622   1.741   9.912   6.780 -0.5850 -0.6007  0.0097
11259SOL     OW38623   3.198   9.265   5.710  0.3341 -0.2980 -0.2617
11259SOL    HW138624   3.201   9.234   5.619  0.5759  0.3204 -0.4669
11259SOL    HW238625   3.208   9.185   5.763 -0.2591 -0.7175 -0.7683
11260SOL     OW38626   3.342   9.963   5.686 -0.1394  0.5174 -0.1563
11260SOL    HW138627   3.430   9.959   5.649 -0.4902 -2.7594 -0.8034
11260SOL    HW238628   3.286   9.983   5.610  0.0426  2.9007  0.3089
11261SOL     OW38629   2.551   8.875   5.072 -0.4719  0.3169  0.8479
11261SOL    HW138630   2.472   8.919   5.104 -1.0183 -0.4415  0.5402
11261SOL    HW238631   2.536   8.863   4.978 -0.2407 -0.3504  0.8947
11262SOL     OW38632   2.452   9.317   6.043 -0.4510  0.4923 -0.0324
11262SOL    HW138633   2.362   9.290   6.022 -0.2288 -1.1826  1.0599
11262SOL    HW238634   2.441   9.391   6.103 -1.1159  0.5315 -0.1928
11263SOL     OW38635   3.416   8.982   7.413 -0.3067 -0.3758 -0.0119
11263SOL    HW138636   3.369   8.925   7.474  1.0777  0.2266  1.6577
11263SOL    HW238637   3.423   9.066   7.460  0.9726  0.0254 -0.8975
11264SOL     OW38638   2.780   9.263   6.821  0.1568  0.0404 -0.1318
11264SOL    HW138639   2.749   9.340   6.869  1.6287  1.1267 -0.8837
11264SOL    HW238640   2.702   9.209   6.810 -0.3786  0.1267  2.7921
11265SOL     OW38641   4.519   1.012   6.317 -0.1029  0.2862  0.7664
11265SOL    HW138642   4.562   0.984   6.398 -0.5936 -2.3083  0.2042
11265SOL    HW238643   4.579   1.075   6.278  0.9365  0.2981  2.3221
11266SOL     OW38644   2.944   0.270   7.173  0.6587 -0.4633 -0.4990
11266SOL    HW138645   3.032   0.289   7.206  0.4096  0.8497 -0.5711
11266SOL    HW238646   2.958   0.199   7.111  1.8264  0.4146 -1.2753
11267SOL     OW38647   1.941   9.733   7.375  0.5091  0.6162 -0.4684
11267SOL    HW138648   2.011   9.758   7.436  0.7528  0.9391 -0.8699
11267SOL    HW238649   1.901   9.817   7.350 -1.1421  0.3083  1.0597
11268SOL     OW38650   2.439   0.026   6.387 -0.0002 -0.2880 -0.3052
11268SOL    HW138651   2.447  -0.066   6.361  2.6177 -0.1691 -0.0943
11268SOL    HW238652   2.500   0.036   6.460 -0.0565  1.6713 -0.4987
11269SOL     OW38653   2.180   9.121   7.093  0.0418  0.0360 -0.3407
11269SOL    HW138654   2.100   9.161   7.128  0.6101 -1.3422  2.6827
11269SOL    HW238655   2.248   9.187   7.106 -0.5560  1.2387 -2.9813
11270SOL     OW38656   2.463   8.749   7.091 -0.0628 -0.0399  0.2698
11270SOL    HW138657   2.481   8.826   7.037 -0.1694  0.4035  0.8515
11270SOL    HW238658   2.367   8.744   7.095 -0.0700  1.2473  2.2294
11271SOL     OW38659   3.914   0.142   5.422  0.2674 -0.4930 -0.1380
11271SOL    HW138660   3.842   0.198   5.394  0.8472  0.4189  0.1530
11271SOL    HW238661   3.923   0.077   5.352 -2.2771 -1.9795  0.8901
11272SOL     OW38662   3.224   8.388   6.674  0.1454  0.1370 -0.2336
11272SOL    HW138663   3.135   8.423   6.678  0.3939  0.9107 -1.3755
11272SOL    HW238664   3.269   8.427   6.749  0.6156  2.8665 -1.8645
11273SOL     OW38665   3.514   0.807   7.758  0.0744 -0.1259  0.2340
11273SOL    HW138666   3.603   0.801   7.791  0.4422 -1.1979 -0.9074
11273SOL    HW238667   3.502   0.900   7.736  0.3207  0.3244  1.9396
11274SOL     OW38668   3.429   0.114   7.498  0.3645  0.0854 -0.1049
11274SOL    HW138669   3.374   0.186   7.467  0.8965  0.1959 -0.8165
11274SOL    HW238670   3.402   0.039   7.446  1.1407  0.2304 -0.7253
11275SOL     OW38671   3.409   0.023   6.394 -0.0496  0.0818 -0.3051
11275SOL    HW138672   3.432   0.013   6.302  2.4739 -0.7438  0.3737
11275SOL    HW238673   3.383   0.114   6.403  2.2314  0.8556 -1.3126
11276SOL     OW38674   3.474   9.058   6.091 -0.2695  0.0374  0.3554
11276SOL    HW138675   3.554   9.026   6.048 -0.1227 -0.3847  0.9307
11276SOL    HW238676   3.434   8.979   6.128 -0.4808  0.3760  0.8529
11277SOL     OW38677   1.953   0.646   7.057 -0.1501  0.4725  0.6247
11277SOL    HW138678   2.004   0.609   7.129  0.2236  0.1485  0.1975
11277SOL    HW238679   1.878   0.587   7.047  0.8347 -0.6161 -0.5471
11278SOL     OW38680   3.095   9.508   6.836  0.0197  0.0022 -0.6231
11278SOL    HW138681   3.075   9.456   6.757 -1.2638  1.3553 -1.2292
11278SOL    HW238682   3.015   9.559   6.850  0.4220  0.1048  1.3090
11279SOL     OW38683   3.345   0.451   6.272 -0.7192 -0.2571  0.0428
11279SOL    HW138684   3.367   0.384   6.208 -1.0239 -0.5804  0.2755
11279SOL    HW238685   3.342   0.532   6.221 -1.0727 -0.5276 -0.3794
11280SOL     OW38686   3.901   1.545   8.162 -0.2575 -0.2150  0.3455
11280SOL    HW138687   3.858   1.601   8.097  0.1169 -0.0058  0.2778
11280SOL    HW238688   3.881   1.587   8.246  0.4468  0.3006  0.2564
11281SOL     OW38689   3.432   9.953   7.272  0.4023  0.3311 -0.0174
11281SOL    HW138690   3.479  10.020   7.223 -0.0950  0.5820 -0.1602
11281SOL    HW238691   3.379   9.908   7.206 -1.5694  1.7915  0.5421
11282SOL     OW38692   3.581   0.774   7.071  0.2394 -0.6096  0.0511
11282SOL    HW138693   3.523   0.839   7.110  0.2400 -0.8198  0.4078
11282SOL    HW238694   3.545   0.758   6.984 -1.2310 -1.9919  0.8813
11283SOL     OW38695   2.132   8.843   4.978 -0.2863 -0.3789  0.3687
11283SOL    HW138696   2.044   8.872   4.952  0.0202  2.7088  2.4446
11283SOL    HW238697   2.123   8.822   5.071  1.1240 -0.1898  0.5565
11284SOL     OW38698   3.225   0.907   7.721 -0.0210 -0.4416 -0.6205
11284SOL    HW138699   3.318   0.884   7.715 -0.1857 -1.8497  1.9176
11284SOL    HW238700   3.179   0.834   7.679 -0.1089 -0.8317  0.1584
11285SOL     OW38701   4.309   9.508   7.243  0.6220  0.4553 -0.1484
11285SOL    HW138702   4.282   9.599   7.252  1.3181  0.5508  1.0812
11285SOL    HW238703   4.387   9.512   7.188  0.3970  0.5555 -0.4629
11286SOL     OW38704   3.606   1.108   7.230  0.5884 -0.0417  0.5421
11286SOL    HW138705   3.551   1.029   7.227 -2.1279  1.7445  1.5285
11286SOL    HW238706   3.682   1.082   7.280  1.2522 -2.9133 -1.8018
11287SOL     OW38707   1.940   0.574   4.982 -0.1035 -0.0026 -0.2172
11287SOL    HW138708   1.853   0.584   5.022  0.3866  1.2284  0.5643
11287SOL    HW238709   1.927   0.592   4.890 -0.4704  1.3068  0.0874
11288SOL     OW38710   0.565   8.941   5.281  0.1533 -0.1331 -0.3296
11288SOL    HW138711   0.499   8.950   5.350  0.2978  0.1756 -0.2309
11288SOL    HW238712   0.545   9.012   5.219  2.1550  1.7904  1.1536
11289SOL     OW38713   3.742   1.353   7.509  0.8108  0.2366 -0.0178
11289SOL    HW138714   3.754   1.264   7.542  0.3352 -0.3414 -1.3808
11289SOL    HW238715   3.729   1.406   7.588 -0.9914 -1.2238  0.7074
11290SOL     OW38716   4.872   1.319   7.702 -0.0238 -0.1881 -0.3832
11290SOL    HW138717   4.879   1.386   7.771  0.9265  1.0419 -1.6348
11290SOL    HW238718   4.923   1.245   7.735 -2.4073 -0.9451  1.7286
11291SOL     OW38719   3.580   0.045   8.000  0.3971 -0.0907 -0.3333
11291SOL    HW138720   3.638   0.046   7.924  1.1644 -1.4036  0.2272
11291SOL    HW238721   3.530  -0.035   7.992  0.5423 -0.2850  0.5832
11292SOL     OW38722   3.828   0.260   4.501  0.5059 -0.4546 -0.4280
11292SOL    HW138723   3.854   0.185   4.554  1.4676 -0.1268 -0.4229
11292SOL    HW238724   3.757   0.300   4.550  1.2337 -0.2845  0.5070
11293SOL     OW38725   4.862   9.692   6.769 -0.0388  0.0166  0.5446
11293SOL    HW138726   4.916   9.739   6.832  0.4616 -0.3420  0.3860
11293SOL    HW238727   4.870   9.600   6.794 -3.1139  0.2077  2.4750
11294SOL     OW38728   3.518   9.631   6.798  0.0705  0.0060 -0.2287
11294SOL    HW138729   3.494   9.617   6.706 -1.2708  1.2473 -0.0848
11294SOL    HW238730   3.558   9.718   6.800 -0.5958  0.3068  0.4681
11295SOL     OW38731   2.258   9.381   7.929 -0.5286  0.3035  0.7828
11295SOL    HW138732   2.216   9.322   7.992 -0.3056  0.7014  1.3120
11295SOL    HW238733   2.298   9.448   7.983 -1.7806  1.6038  0.1365
11296SOL     OW38734   2.375   7.882   6.813 -0.1397 -0.0182 -0.1799
11296SOL    HW138735   2.381   7.972   6.781  0.9104  1.4848  3.9222
11296SOL    HW238736   2.289   7.877   6.854  0.8487  0.0074  1.9668
11297SOL     OW38737   1.959   9.886   5.852  0.4099 -0.1350 -0.1433
11297SOL    HW138738   2.039   9.875   5.800  0.8692 -1.0056  0.7392
11297SOL    HW238739   1.967   9.973   5.889  0.5917  0.0784 -0.6729
11298SOL     OW38740   4.069   9.355   7.188 -0.8896 -0.1221  0.2148
11298SOL    HW138741   4.126   9.425   7.220  0.2264 -0.5258 -0.8076
11298SOL    HW238742   4.102   9.338   7.099  1.0244 -4.1849  1.5872
11299SOL     OW38743   2.529   0.584   6.721 -1.1550  0.3430  0.2079
11299SOL    HW138744   2.443   0.554   6.692 -0.8792  0.3002 -0.5724
11299SOL    HW238745   2.554   0.522   6.790 -1.8193  0.4545  0.5512
11300SOL     OW38746   2.978   9.561   5.915 -0.6628 -0.4094 -0.2500
11300SOL    HW138747   2.904   9.544   5.972 -1.4129  0.7601 -0.8506
11300SOL    HW238748   3.049   9.587   5.973 -0.2829 -2.8643  0.4503
11301SOL     OW38749   2.281   1.269   6.593  0.2263  0.0337 -0.2840
11301SOL    HW138750   2.274   1.174   6.579  0.2340  0.1198 -0.9008
11301SOL    HW238751   2.286   1.279   6.688 -1.7072 -0.4584 -0.1073
11302SOL     OW38752   0.657   9.176   8.637  0.4798  0.1750  0.7609
11302SOL    HW138753   0.691   9.100   8.685  0.2236  0.7472  1.8675
11302SOL    HW238754   0.719   9.246   8.656 -0.1377  0.6519  1.0192
11303SOL     OW38755   3.738   9.423   8.524  0.4528  0.4328 -0.4799
11303SOL    HW138756   3.655   9.394   8.562  0.7760 -0.5418 -0.5170
11303SOL    HW238757   3.730   9.404   8.431 -0.0407  2.1208 -0.7952
11304SOL     OW38758   1.154   0.563   9.990  0.2521 -0.0613 -0.0988
11304SOL    HW138759   1.125   0.651  10.011  1.5457  0.6441 -1.1711
11304SOL    HW238760   1.147   0.515  10.072  1.0920  1.4719  0.8919
11305SOL     OW38761   3.213   9.154   8.643 -0.2013  0.3110  0.0097
11305SOL    HW138762   3.144   9.167   8.577  0.2229 -0.7633 -0.6575
11305SOL    HW238763   3.245   9.243   8.661  1.0252  0.4658 -2.7009
11306SOL     OW38764   1.731   9.716   9.274  0.2855  0.1640  0.0646
11306SOL    HW138765   1.772   9.645   9.322 -1.1629 -1.2965 -0.8267
11306SOL    HW238766   1.792   9.790   9.284  2.1609 -1.3897  0.3759
11307SOL     OW38767   3.231   9.539   7.065  0.2807 -0.3187 -0.0725
11307SOL    HW138768   3.304   9.478   7.052 -0.2017 -1.1296  0.9370
11307SOL    HW238769   3.165   9.511   7.002 -0.2258 -1.3040  0.8879
11308SOL     OW38770   9.735   1.228   9.140  0.3458 -0.3737  0.4294
11308SOL    HW138771   9.643   1.208   9.122 -0.1487  2.8332 -1.0025
11308SOL    HW238772   9.778   1.220   9.054  1.2118 -0.9146  0.9080
11309SOL     OW38773   2.564   1.198   9.554  0.2395 -0.3367 -0.3311
11309SOL    HW138774   2.631   1.173   9.491  0.1985 -0.9584 -0.1307
11309SOL    HW238775   2.493   1.136   9.539  0.9328 -1.6116  1.5104
11310SOL     OW38776   2.954   9.273   8.562  0.0871  0.4156  0.3928
11310SOL    HW138777   2.983   9.362   8.580 -1.7150  1.5574 -2.0032
11310SOL    HW238778   2.909   9.245   8.641  1.3989  1.2830  1.4713
11311SOL     OW38779   2.656   9.928   8.810 -0.3587 -0.0261  0.6059
11311SOL    HW138780   2.670   9.942   8.717  0.4277 -1.0794  0.5614
11311SOL    HW238781   2.680   9.837   8.825  2.0175  0.8183  2.2934
11312SOL     OW38782   3.442   9.770   7.844 -0.1052  0.3046  0.4269
11312SOL    HW138783   3.411   9.698   7.789  1.0373 -0.8061  1.1950
11312SOL    HW238784   3.369   9.788   7.903  0.6732 -2.3979  2.3448
11313SOL     OW38785   2.176   9.033   7.522 -0.5655  0.2131  0.7213
11313SOL    HW138786   2.223   9.008   7.601 -1.1643 -0.2047  0.9435
11313SOL    HW238787   2.109   9.094   7.552  1.1203  2.4162  0.1454
11314SOL     OW38788   4.007   9.396   7.791 -0.2414 -0.0787 -0.1471
11314SOL    HW138789   3.962   9.430   7.714 -1.4594  0.4373  0.7590
11314SOL    HW238790   4.050   9.472   7.830  0.1476 -0.2811 -0.1831
11315SOL     OW38791   3.240   9.412   8.480  0.2490 -0.2054  0.1564
11315SOL    HW138792   3.189   9.492   8.478  1.6810  0.7309  0.3456
11315SOL    HW238793   3.298   9.422   8.556  1.2227 -0.9079 -0.4760
11316SOL     OW38794   3.003   1.128   7.731  0.0505 -0.0393 -0.1853
11316SOL    HW138795   2.938   1.065   7.761  1.0294 -0.3917  1.2436
11316SOL    HW238796   2.985   1.138   7.637 -3.2129  1.2369  0.4945
11317SOL     OW38797   1.523   0.760   0.232 -0.2566  0.5816  0.1180
11317SOL    HW138798   1.616   0.739   0.234 -0.0292  1.5430  0.1881
11317SOL    HW238799   1.520   0.852   0.205 -1.2444  0.2336 -0.9795
11318SOL     OW38800   2.013   9.248   7.596 -0.6507  0.0119 -0.4267
11318SOL    HW138801   2.029   9.319   7.533  1.0852 -0.5009 -0.5962
11318SOL    HW238802   2.023   9.290   7.681 -0.7922  0.2324 -0.5178
11319SOL     OW38803   2.618   1.535   7.671  0.5362  0.3329  0.2915
11319SOL    HW138804   2.625   1.455   7.724  0.9679 -0.1960 -0.5605
11319SOL    HW238805   2.590   1.505   7.585 -0.3576  1.2191  0.2619
11320SOL     OW38806   2.693   9.521   8.464  0.3379  0.2406 -0.0520
11320SOL    HW138807   2.671   9.577   8.389  0.3131  0.0184 -0.2085
11320SOL    HW238808   2.784   9.543   8.485 -0.4924  2.3715  1.6201
11321SOL     OW38809   1.968   1.236   9.566 -0.3982 -0.3594 -0.2639
11321SOL    HW138810   1.917   1.307   9.605  0.8598 -0.2436  1.2230
11321SOL    HW238811   1.904   1.187   9.513 -1.0635  2.3717 -2.0583
11322SOL     OW38812   1.544   9.495   9.412 -0.3789  0.9093  0.1370
11322SOL    HW138813   1.553   9.584   9.378  2.3525  1.2177  1.5759
11322SOL    HW238814   1.633   9.463   9.422 -1.1979 -0.7234  2.9508
11323SOL     OW38815   2.165   9.146   8.050  0.3597  0.4159  0.3277
11323SOL    HW138816   2.255   9.135   8.079  0.2758 -0.7265  0.1785
11323SOL    HW238817   2.117   9.075   8.093 -0.1850  0.1125 -0.7656
11324SOL     OW38818   2.731   0.371   9.126 -0.0870  0.2059  0.3708
11324SOL    HW138819   2.705   0.351   9.215 -0.6275  1.5037  0.5033
11324SOL    HW238820   2.728   0.466   9.120 -0.1885  0.1284 -1.0714
11325SOL     OW38821   2.441   0.267   6.937 -0.4501  0.6711  0.0511
11325SOL    HW138822   2.374   0.237   6.998  1.0457 -1.9996  0.4557
11325SOL    HW238823   2.445   0.199   6.869  0.6160  1.6643 -0.9213
11326SOL     OW38824   1.302   1.185   9.163 -0.5973 -0.4736  0.5360
11326SOL    HW138825   1.227   1.216   9.215 -0.8298 -0.3337  0.1199
11326SOL    HW238826   1.354   1.264   9.146 -0.2659 -0.6005  0.9741
11327SOL     OW38827   3.318   0.347   8.084 -0.0296  0.0908 -0.5899
11327SOL    HW138828   3.271   0.317   8.007  0.2138  0.7955 -1.0175
11327SOL    HW238829   3.307   0.442   8.084  1.8483  0.3327 -1.0011
11328SOL     OW38830   1.953   9.559   7.686 -0.6729  0.2122 -0.4556
11328SOL    HW138831   1.971   9.633   7.744 -0.9815 -1.3647  1.7182
11328SOL    HW238832   1.868   9.527   7.714 -0.0780 -1.5978 -0.6684
11329SOL     OW38833   2.647   9.932   7.064 -0.2082  0.4831  0.0011
11329SOL    HW138834   2.673  10.022   7.083 -0.4330  0.1047  2.2615
11329SOL    HW238835   2.633   9.893   7.150 -1.5725 -1.2884 -1.0023
11330SOL     OW38836   2.743   9.841   7.851 -0.1968 -0.2469 -0.4791
11330SOL    HW138837   2.771   9.758   7.813 -1.4946 -0.8867 -0.0862
11330SOL    HW238838   2.729   9.822   7.944  0.8723  0.7721 -0.0900
11331SOL     OW38839   3.672   9.465   9.347  0.4186  0.1492 -0.0480
11331SOL    HW138840   3.641   9.551   9.375  0.8174  0.2307  0.1465
11331SOL    HW238841   3.605   9.404   9.378  1.5795  0.0795  2.3956
11332SOL     OW38842   2.944   9.306   7.231 -0.2798 -0.4505 -0.7838
11332SOL    HW138843   2.999   9.258   7.293 -0.6004 -0.6696 -0.6670
11332SOL    HW238844   2.857   9.303   7.269 -0.0605  1.4086 -0.1000
11333SOL     OW38845   5.120   0.661   8.461 -0.1992 -0.3440  0.7555
11333SOL    HW138846   5.133   0.710   8.542  3.7180  2.2620 -1.2391
11333SOL    HW238847   5.086   0.726   8.399  0.2955 -1.3601 -0.6108
11334SOL     OW38848   9.998   9.938   9.470 -0.2437  0.3899 -0.3256
11334SOL    HW138849  10.091   9.939   9.493 -0.1072  0.0985 -0.8451
11334SOL    HW238850   9.956   9.996   9.533  0.5690  2.0454 -1.2724
11335SOL     OW38851   2.153   9.290   9.110 -0.0261  0.2468 -0.2775
11335SOL    HW138852   2.071   9.241   9.114  0.3546 -0.3518  0.4662
11335SOL    HW238853   2.172   9.299   9.017 -0.6645 -0.0721 -0.4387
11336SOL     OW38854   2.351   0.796   8.240  1.0256 -0.3907 -0.5083
11336SOL    HW138855   2.295   0.781   8.316  1.5348  1.2496  0.2041
11336SOL    HW238856   2.319   0.734   8.175  0.4799 -1.7073  0.9796
11337SOL     OW38857   2.247   9.497   7.655 -1.2521 -0.4490  0.3741
11337SOL    HW138858   2.156   9.513   7.629 -1.6399 -2.1918  0.5680
11337SOL    HW238859   2.240   9.442   7.733 -0.0409 -1.9331 -0.5236
11338SOL     OW38860   1.627   0.016   7.916  0.7579  0.0349  0.4584
11338SOL    HW138861   1.605   0.109   7.914  0.1613 -0.1122 -1.8014
11338SOL    HW238862   1.637  -0.005   8.009 -2.4268  1.5832  1.2110
11339SOL     OW38863   2.426   9.026   8.167  0.5166  0.3894  0.0970
11339SOL    HW138864   2.439   9.028   8.261  1.6828  0.3274 -0.0453
11339SOL    HW238865   2.512   9.048   8.131  0.3412 -0.6170 -0.9572
11340SOL     OW38866   3.248   0.619   6.901  0.2851  0.0718  0.1797
11340SOL    HW138867   3.183   0.679   6.866  0.0420  0.5925  1.4925
11340SOL    HW238868   3.332   0.650   6.865 -0.2875 -1.3048 -2.4567
11341SOL     OW38869   1.890   8.955   7.641 -0.5159  0.4099  0.6505
11341SOL    HW138870   1.811   8.948   7.588 -1.8675  0.9002  2.5477
11341SOL    HW238871   1.919   9.045   7.630  0.4310 -0.0619 -0.9070
11342SOL     OW38872   2.264   0.048   9.754  0.1455  0.2325 -0.2909
11342SOL    HW138873   2.339   0.084   9.801 -0.2272 -1.5562  1.7101
11342SOL    HW238874   2.303   0.005   9.677  1.2346 -1.0263  0.9325
11343SOL     OW38875   2.857   0.113   8.836  0.1527  0.3036  0.2384
11343SOL    HW138876   2.790   0.053   8.804  0.6924  0.4552 -1.2223
11343SOL    HW238877   2.827   0.199   8.807  1.1303  0.3331 -0.7222
11344SOL     OW38878   2.822   8.912   8.652 -0.9984  0.4847 -0.2154
11344SOL    HW138879   2.728   8.912   8.633 -1.1745 -0.5422  0.5895
11344SOL    HW238880   2.838   8.994   8.698 -1.9067 -0.2714  1.5025
11345SOL     OW38881   1.443   9.502   0.451  0.0030 -0.2649 -0.5150
11345SOL    HW138882   1.451   9.596   0.468 -1.0263 -0.1739 -0.5102
11345SOL    HW238883   1.519   9.464   0.494  1.5980  0.7870 -2.3324
11346SOL     OW38884   0.314   0.866   9.449 -0.5352  0.0811 -0.0468
11346SOL    HW138885   0.289   0.802   9.515  0.8030  0.1952  0.5804
11346SOL    HW238886   0.407   0.849   9.433  0.1379  2.6228  0.9703
11347SOL     OW38887   0.751   9.667   9.462 -0.0121  0.5733 -0.5635
11347SOL    HW138888   0.838   9.693   9.431  0.2786  0.3513  0.0634
11347SOL    HW238889   0.766   9.630   9.549 -0.4057 -1.8231 -1.4921
11348SOL     OW38890   3.809   0.206   8.669  0.1795 -0.1278 -0.2277
11348SOL    HW138891   3.833   0.119   8.638  0.1811 -0.0276 -0.5061
11348SOL    HW238892   3.714   0.201   8.685  0.2305 -0.2643  0.0278
11349SOL     OW38893   3.713   1.188   8.090  0.2889  0.0115 -0.0707
11349SOL    HW138894   3.689   1.102   8.056  0.5732  0.0951 -0.4732
11349SOL    HW238895   3.659   1.197   8.169 -0.1544 -0.2958 -0.3346
11350SOL     OW38896   3.146   0.115   8.338  0.0292  0.2011  0.3415
11350SOL    HW138897   3.168   0.025   8.361 -1.1625 -0.2287 -0.1786
11350SOL    HW238898   3.062   0.131   8.380 -1.2694  0.0346 -2.0735
11351SOL     OW38899   3.606   0.124   8.462 -0.7118  0.8365 -0.0212
11351SOL    HW138900   3.576   0.093   8.547  1.2876 -0.4481  0.2437
11351SOL    HW238901   3.573   0.213   8.456 -0.6220  1.0507  2.2371
11352SOL     OW38902   2.127   9.410   8.854  0.4863 -0.0213 -0.6287
11352SOL    HW138903   2.078   9.430   8.934  0.2357 -2.4195 -0.1518
11352SOL    HW238904   2.074   9.448   8.784 -1.5242 -1.5474  0.0012
11353SOL     OW38905   2.983   8.739   8.884 -0.1305 -0.4310  0.1806
11353SOL    HW138906   2.981   8.756   8.790  1.4700 -0.4340  0.1330
11353SOL    HW238907   2.948   8.818   8.924  0.0236 -0.0717 -0.3888
11354SOL     OW38908   3.586   0.289   9.336 -0.8854  0.2359 -0.3474
11354SOL    HW138909   3.626   0.374   9.320  4.0402 -1.6495  1.1299
11354SOL    HW238910   3.611   0.236   9.260 -1.1992 -0.7925  0.2568
11355SOL     OW38911   2.359   8.902   1.197  0.1565 -0.6468 -0.3261
11355SOL    HW138912   2.298   8.939   1.261 -0.6947 -0.6661 -1.1149
11355SOL    HW238913   2.359   8.808   1.215  1.5819 -0.3998  1.0521
11356SOL     OW38914   2.466   0.384   7.840 -0.1534 -0.4943  0.3147
11356SOL    HW138915   2.391   0.371   7.782 -0.7857 -1.3738  1.3066
11356SOL    HW238916   2.515   0.456   7.800 -1.3080 -0.1732 -0.5608
11357SOL     OW38917   0.409   8.418   6.755  0.1876 -0.7453  0.1397
11357SOL    HW138918   0.342   8.435   6.820  0.5432 -0.2699  0.3868
11357SOL    HW238919   0.451   8.337   6.785 -2.0703 -2.5964 -1.5020
11358SOL     OW38920   2.508   9.082   0.703 -0.7471 -0.7116 -0.0391
11358SOL    HW138921   2.442   9.015   0.721  0.1250 -0.9782  2.3612
11358SOL    HW238922   2.537   9.111   0.789  2.1502 -0.4571 -1.0356
11359SOL     OW38923   4.728   9.180   5.603  0.0631  0.1845  0.4620
11359SOL    HW138924   4.713   9.262   5.649 -2.5326 -0.0430  0.1005
11359SOL    HW238925   4.652   9.171   5.545 -0.0501 -2.8219  1.0245
11360SOL     OW38926   2.964   9.873   9.387  0.1515  0.1052  0.2073
11360SOL    HW138927   3.015   9.822   9.449 -0.9331 -0.6641  0.4744
11360SOL    HW238928   2.925   9.943   9.439  0.9636  0.7260 -0.0073
11361SOL     OW38929   1.883   9.795   6.489 -0.0659 -0.0787 -0.0756
11361SOL    HW138930   1.815   9.810   6.554 -1.9141  0.4275 -2.0562
11361SOL    HW238931   1.899   9.881   6.450 -0.5126 -0.7047 -1.7034
11362SOL     OW38932   2.088   0.538   8.290 -0.0207  0.1790  0.2991
11362SOL    HW138933   2.039   0.492   8.358 -0.5125  0.4926  0.1599
11362SOL    HW238934   2.053   0.627   8.291  1.8407  0.9315  1.4825
11363SOL     OW38935   2.562   0.058   7.419 -0.2506 -0.0470  0.8246
11363SOL    HW138936   2.481   0.110   7.415  0.4021  1.0482  1.4158
11363SOL    HW238937   2.624   0.107   7.366  0.5956  0.2013  2.0219
11364SOL     OW38938   3.091   0.046   8.975  0.1704  0.0018 -0.7007
11364SOL    HW138939   3.144   0.124   8.990 -0.3675  0.3943 -0.8033
11364SOL    HW238940   3.018   0.077   8.922  1.5539 -1.1747 -3.3817
11365SOL     OW38941   2.994   2.107   9.370  0.2463  0.7933 -0.0231
11365SOL    HW138942   3.066   2.162   9.401  1.1265 -0.3220 -0.0190
11365SOL    HW238943   3.030   2.062   9.293 -0.8391  1.1040 -0.7186
11366SOL     OW38944   3.417   0.135   9.852  0.2907  0.3559  0.7060
11366SOL    HW138945   3.509   0.109   9.855  0.5020  1.0528  0.2596
11366SOL    HW238946   3.409   0.203   9.919 -0.0845 -0.2770  1.3116
11367SOL     OW38947   3.212   0.372   9.527  0.4255  0.0723 -0.1283
11367SOL    HW138948   3.211   0.423   9.446  1.5104  3.1790  1.7624
11367SOL    HW238949   3.304   0.367   9.552  0.1210 -1.0816  0.8275
11368SOL     OW38950   3.551   9.700   9.398  0.3499 -0.6883  0.1895
11368SOL    HW138951   3.472   9.731   9.441  0.6261  0.0093  0.2040
11368SOL    HW238952   3.538   9.719   9.305 -0.4277 -2.5879 -0.1019
11369SOL     OW38953   3.044   2.237   9.660 -0.3114  0.4034  0.2281
11369SOL    HW138954   2.993   2.170   9.706 -0.5905  0.7488  0.4330
11369SOL    HW238955   3.081   2.290   9.731  0.3418  0.1491  0.0789
11370SOL     OW38956   3.068   9.526   8.987 -0.3497  0.1676  0.0710
11370SOL    HW138957   3.155   9.486   8.993 -0.4469  0.0267  0.6583
11370SOL    HW238958   3.081   9.616   9.018 -0.2230  0.4533 -0.7962
11371SOL     OW38959   3.163   8.608   9.265  0.2682  0.2312  0.3173
11371SOL    HW138960   3.158   8.586   9.172  1.2572 -0.9590  0.5317
11371SOL    HW238961   3.183   8.701   9.268  0.9381  0.1172 -0.6736
11372SOL     OW38962   2.658   9.362   9.717  0.1392  0.3975 -0.1775
11372SOL    HW138963   2.705   9.378   9.799 -0.7741  1.3408  0.1650
11372SOL    HW238964   2.673   9.269   9.699 -0.6772 -0.1353  1.7135
11373SOL     OW38965   3.236   9.697   9.380 -0.0520  0.1300 -0.0197
11373SOL    HW138966   3.200   9.736   9.460 -0.8067 -0.2330 -0.1837
11373SOL    HW238967   3.231   9.603   9.395 -1.1013  0.0420 -0.8971
11374SOL     OW38968   2.560   9.505   7.704  0.4041  0.1794 -0.1169
11374SOL    HW138969   2.548   9.599   7.692  0.6061  0.2283  0.0579
11374SOL    HW238970   2.482   9.466   7.663  0.8491  0.3622 -1.1564
11375SOL     OW38971   3.285   8.814   0.397 -0.9033  0.4792 -0.3798
11375SOL    HW138972   3.320   8.773   0.476  2.3508 -0.8271 -2.4501
11375SOL    HW238973   3.195   8.782   0.391  0.1003 -2.6096  0.5939
11376SOL     OW38974   2.613   9.122   9.458 -0.4611 -0.2084 -0.1115
11376SOL    HW138975   2.638   9.161   9.373 -0.8571  1.5378  0.5409
11376SOL    HW238976   2.525   9.156   9.474  0.4136  1.1342  1.9565
11377SOL     OW38977   3.525   1.810   9.319  0.3574 -0.2332  0.2931
11377SOL    HW138978   3.553   1.764   9.398 -1.1450 -1.9165 -0.1150
11377SOL    HW238979   3.477   1.886   9.352  0.2171 -0.6206  1.0110
11378SOL     OW38980   2.865   9.095   9.553  0.0487  0.1846 -0.1635
11378SOL    HW138981   2.775   9.103   9.520 -0.4053 -0.3192  0.8965
11378SOL    HW238982   2.881   9.177   9.599 -0.7101 -0.6065  1.5730
11379SOL     OW38983   4.736   0.017   0.460 -0.3562 -0.2069 -0.7387
11379SOL    HW138984   4.705  -0.056   0.514 -2.4816  2.1306  1.3960
11379SOL    HW238985   4.811   0.052   0.508 -0.3697  0.0297 -0.8913
11380SOL     OW38986   3.899   9.616   0.531 -0.2370 -0.2809  0.8128
11380SOL    HW138987   3.834   9.649   0.593 -1.6537 -0.7825 -0.3862
11380SOL    HW238988   3.924   9.531   0.566 -0.1245 -0.0269  1.3504
11381SOL     OW38989   1.948   9.255   0.574  0.4853  0.3516 -0.6575
11381SOL    HW138990   2.012   9.223   0.511 -1.8123  0.8045 -3.3245
11381SOL    HW238991   1.983   9.340   0.602  2.6332 -0.8492  0.4494
11382SOL     OW38992   4.501   0.077   9.944 -0.0585  0.3288 -0.0405
11382SOL    HW138993   4.560   0.110   9.876  0.2826 -1.8240 -0.8221
11382SOL    HW238994   4.545   0.096  10.026  1.8723 -1.4907 -0.6206
11383SOL     OW38995   3.674   9.482   9.812 -0.1202 -0.0578 -0.1509
11383SOL    HW138996   3.696   9.460   9.722 -0.2555 -1.9139  0.2312
11383SOL    HW238997   3.578   9.484   9.814 -0.1183 -0.0385 -0.0507
11384SOL     OW38998   3.403   0.322   8.408  0.3012  0.3639  0.2129
11384SOL    HW138999   3.318   0.353   8.438  0.2532  0.6020 -0.1754
11384SOL    HW239000   3.465   0.389   8.438  0.1693  0.9462 -0.8233
11385SOL     OW39001   5.576   9.215   8.868 -0.1438  0.0269 -0.7774
11385SOL    HW139002   5.657   9.241   8.825  1.1376 -1.0109  0.9284
11385SOL    HW239003   5.564   9.123   8.845 -0.9690  0.2425 -1.2267
11386SOL     OW39004   9.601   0.163   8.843  0.0773  0.5115  0.2587
11386SOL    HW139005   9.545   0.095   8.880 -0.1498  0.8271  0.4998
11386SOL    HW239006   9.675   0.169   8.904  1.0038 -0.7748 -0.7244
11387SOL     OW39007   1.981   9.888   0.137 -0.1409 -0.1047 -0.5630
11387SOL    HW139008   1.912   9.829   0.167 -0.2880  0.7190  0.7507
11387SOL    HW239009   1.990   9.869   0.044 -1.5455 -0.8134 -0.5637
11388SOL     OW39010   3.759   9.351   0.127 -0.2202  0.2479  0.5451
11388SOL    HW139011   3.668   9.334   0.106  0.0241  0.9438 -1.1747
11388SOL    HW239012   3.770   9.320   0.217 -1.7522 -1.2238  0.2278
11389SOL     OW39013   2.225   0.318   8.649  0.6161 -0.1504 -0.0718
11389SOL    HW139014   2.210   0.327   8.743 -2.5358  2.8707 -0.7240
11389SOL    HW239015   2.246   0.407   8.620  3.1220 -1.3328 -2.0304
11390SOL     OW39016   1.504   9.233   9.908 -0.2390 -0.1024  0.0895
11390SOL    HW139017   1.472   9.268   9.991 -0.4599  3.2477 -1.3469
11390SOL    HW239018   1.434   9.249   9.846  1.1396  0.2614 -1.4098
11391SOL     OW39019   3.772   9.820   9.926 -0.5920 -0.3195 -0.6700
11391SOL    HW139020   3.763   9.900   9.979 -1.2074 -0.5947 -0.3604
11391SOL    HW239021   3.741   9.845   9.839  0.2739  0.0914 -0.8684
11392SOL     OW39022   3.241   8.880   9.290  0.2413  0.1788 -0.3438
11392SOL    HW139023   3.240   8.929   9.373  1.5347 -1.2900  0.5674
11392SOL    HW239024   3.172   8.920   9.238 -1.3946  0.3763  1.8956
11393SOL     OW39025   4.191   0.964   0.303 -0.5952  0.2824 -0.8038
11393SOL    HW139026   4.139   0.953   0.224  0.1824  0.0724 -1.2949
11393SOL    HW239027   4.281   0.972   0.272 -0.1242 -1.0952  0.1454
11394SOL     OW39028   3.249   0.485   0.419 -0.1764 -0.0273  0.2505
11394SOL    HW139029   3.273   0.492   0.511  0.9274 -0.3846 -0.0029
11394SOL    HW239030   3.184   0.415   0.417 -0.6751  0.4186  0.8434
11395SOL     OW39031   3.334   0.220   9.290  0.3857 -0.4517 -0.4293
11395SOL    HW139032   3.428   0.234   9.296  0.1250  0.6984  1.2230
11395SOL    HW239033   3.306   0.273   9.215  0.9101 -0.0508 -0.3390
11396SOL     OW39034   4.586   1.657   0.473 -0.1463  0.0816  0.3363
11396SOL    HW139035   4.658   1.622   0.526 -0.7619 -2.2687 -0.3130
11396SOL    HW239036   4.545   1.579   0.435 -3.0377  1.3664  0.7035
11397SOL     OW39037   5.235   1.402   1.173  0.2115  0.3467 -0.0759
11397SOL    HW139038   5.274   1.375   1.256 -2.5174 -2.0404  0.4971
11397SOL    HW239039   5.162   1.459   1.198 -0.2383  0.1147 -0.8432
11398SOL     OW39040   5.586   0.274   0.529 -0.7999 -0.2642  0.5647
11398SOL    HW139041   5.621   0.185   0.529  1.0627  0.4019 -2.1693
11398SOL    HW239042   5.618   0.312   0.611 -0.7046 -1.7277  1.2374
11399SOL     OW39043   6.312   0.080   1.221 -0.2075  0.0481  0.1017
11399SOL    HW139044   6.219   0.055   1.220  0.2150 -1.5601  0.3365
11399SOL    HW239045   6.310   0.176   1.223 -1.8645  0.1569 -2.7463
11400SOL     OW39046   6.551   0.778   9.183  0.2249  0.3735  0.0123
11400SOL    HW139047   6.612   0.851   9.173  1.4461 -0.2864  2.1881
11400SOL    HW239048   6.567   0.723   9.106 -0.0899  1.9272 -1.1916
11401SOL     OW39049   5.536   0.650   2.735  0.0113 -0.0436  0.1666
11401SOL    HW139050   5.617   0.660   2.786  0.1441 -2.3711  0.4445
11401SOL    HW239051   5.526   0.734   2.690  2.2748  0.4851  0.5899
11402SOL     OW39052   4.015   1.599   0.372  0.2871  0.2471 -0.7635
11402SOL    HW139053   3.964   1.534   0.324  1.0222 -1.3422  0.5688
11402SOL    HW239054   4.035   1.557   0.456  1.6621  1.7995 -0.2826
11403SOL     OW39055   3.718   0.462   0.579  0.1319  0.1894 -0.0854
11403SOL    HW139056   3.656   0.411   0.631  0.6338  1.5918  1.9843
11403SOL    HW239057   3.666   0.498   0.508 -1.6441  1.9367  2.0205
11404SOL     OW39058   3.498   1.756   1.289 -1.2284 -0.6249 -0.0293
11404SOL    HW139059   3.518   1.772   1.381 -1.6809  1.3124 -0.2429
11404SOL    HW239060   3.576   1.712   1.254 -0.1311  0.7054  0.7372
11405SOL     OW39061   4.367   3.782   2.822 -0.3902  0.5979 -0.4387
11405SOL    HW139062   4.291   3.745   2.867  1.3177 -0.7616  1.4125
11405SOL    HW239063   4.442   3.735   2.858  1.3436  1.8074 -2.3298
11406SOL     OW39064   4.271   0.131   0.135  0.8156  0.0225 -0.0479
11406SOL    HW139065   4.317   0.172   0.208  1.6048 -1.7564  0.5000
11406SOL    HW239066   4.335   0.132   0.063  0.9046 -0.3703  0.0211
11407SOL     OW39067   5.451   0.477   1.561  0.4487  0.3925  0.0373
11407SOL    HW139068   5.434   0.401   1.506 -0.4721  1.2948 -0.9697
11407SOL    HW239069   5.536   0.509   1.533 -0.2082  1.1030 -1.1886
11408SOL     OW39070   4.148   1.216   9.517  0.0633 -0.4051  0.0231
11408SOL    HW139071   4.237   1.214   9.552 -0.7379 -2.2152  2.1276
11408SOL    HW239072   4.099   1.157   9.575 -2.6026  0.9245 -0.8258
11409SOL     OW39073   4.713   1.386   0.897 -0.1876 -0.1162 -0.3055
11409SOL    HW139074   4.634   1.401   0.844 -1.2113  0.4209  1.3431
11409SOL    HW239075   4.752   1.473   0.907 -0.4505 -0.0864  0.5053
11410SOL     OW39076   2.937   2.608   9.741  0.2366  0.0887  0.6679
11410SOL    HW139077   2.875   2.584   9.672  0.5455 -0.5297  0.5968
11410SOL    HW239078   2.900   2.687   9.781 -0.6176 -0.2916  0.6443
11411SOL     OW39079   3.917   0.624   1.936 -0.5959  0.4222 -0.3577
11411SOL    HW139080   3.904   0.716   1.914  1.4941  0.1185 -3.1575
11411SOL    HW239081   3.946   0.625   2.027  0.1255  2.5923 -0.5896
11412SOL     OW39082   4.305   1.525   1.257  0.1189  0.0180  0.4380
11412SOL    HW139083   4.212   1.542   1.246 -0.0566 -0.6192  0.8787
11412SOL    HW239084   4.329   1.473   1.180 -0.0744 -0.5164  0.7380
11413SOL     OW39085   3.812   1.104   9.442  0.3535  0.3442  0.4143
11413SOL    HW139086   3.905   1.109   9.464  0.2431 -0.0883  1.0279
11413SOL    HW239087   3.771   1.072   9.523 -0.2899  0.2891  0.0667
11414SOL     OW39088   5.230   0.283   1.452  0.4936  0.0607 -0.2279
11414SOL    HW139089   5.204   0.316   1.538 -0.7327 -0.4236 -0.3971
11414SOL    HW239090   5.174   0.330   1.390 -0.1471 -1.1364 -0.5900
11415SOL     OW39091   3.853   0.538   0.837  0.0511  0.1056  0.3854
11415SOL    HW139092   3.838   0.466   0.776  2.2382  1.3426 -1.6968
11415SOL    HW239093   3.926   0.509   0.891  1.2967  0.9183 -0.8146
11416SOL     OW39094   5.645   2.910   0.611  0.1596  0.2791 -0.0090
11416SOL    HW139095   5.577   2.908   0.679 -1.4033 -1.0637 -1.5404
11416SOL    HW239096   5.637   2.997   0.572  1.8213  1.4726  2.2255
11417SOL     OW39097   2.675   1.045   1.220 -0.4524 -0.7079  0.2445
11417SOL    HW139098   2.580   1.058   1.219 -0.2530  0.7691 -0.0214
11417SOL    HW239099   2.688   0.972   1.281 -1.7439 -0.8353  0.3876
11418SOL     OW39100   6.002   9.906   9.502 -0.1034  0.2414  0.2714
11418SOL    HW139101   5.961   9.981   9.545 -0.1018  1.0869 -1.1639
11418SOL    HW239102   6.095   9.913   9.525 -0.2566  0.0874  0.9650
11419SOL     OW39103   6.077   1.229   0.471 -0.1362 -0.0474 -0.0643
11419SOL    HW139104   6.001   1.254   0.418 -0.5981  0.4437  0.8218
11419SOL    HW239105   6.149   1.283   0.436 -0.0033 -1.0653 -1.4055
11420SOL     OW39106   3.216   0.902   2.043 -0.4563  0.1462  0.0800
11420SOL    HW139107   3.251   0.970   1.986 -0.6924 -0.2460 -0.5359
11420SOL    HW239108   3.126   0.890   2.014 -0.2369 -0.8494 -0.2242
11421SOL     OW39109   5.423   0.631   2.230  0.5945 -0.5122 -0.1233
11421SOL    HW139110   5.516   0.615   2.243  0.5192 -0.3958  0.6043
11421SOL    HW239111   5.387   0.546   2.205  0.5962 -0.9713  1.3844
11422SOL     OW39112   4.539   9.827   0.670  0.3322 -0.6598 -0.0236
11422SOL    HW139113   4.613   9.818   0.731  1.2426 -0.4066 -1.0627
11422SOL    HW239114   4.536   9.920   0.650  1.0988 -0.9567 -1.6270
11423SOL     OW39115   3.572   0.844   0.745  0.2050  0.2414 -0.1932
11423SOL    HW139116   3.619   0.821   0.825  2.0950  0.3681 -1.2360
11423SOL    HW239117   3.640   0.853   0.679 -1.2697  0.7737 -1.6819
11424SOL     OW39118   6.517   2.605   0.147  0.1487 -0.0483  0.3142
11424SOL    HW139119   6.424   2.584   0.138 -0.4791  2.3787  0.7925
11424SOL    HW239120   6.519   2.700   0.163  2.7198 -0.0117  0.0006
11425SOL     OW39121   4.722   1.178   0.595  0.8862 -0.1870  0.3671
11425SOL    HW139122   4.777   1.110   0.557  1.2221 -0.2565  0.9707
11425SOL    HW239123   4.652   1.191   0.531  0.4389 -1.5710  0.5581
11426SOL     OW39124   4.163   9.921   0.766 -0.3634  0.1240  0.5209
11426SOL    HW139125   4.093   9.967   0.720 -0.9889  0.0625  1.4192
11426SOL    HW239126   4.155   9.830   0.737  2.0311  0.8571 -2.7091
11427SOL     OW39127   5.754   1.934   0.125  0.6197  0.2984 -0.2189
11427SOL    HW139128   5.833   1.886   0.098  0.5507 -0.0024  0.1184
11427SOL    HW239129   5.753   1.928   0.220  0.2221  0.3602 -0.2171
11428SOL     OW39130   4.943   1.849   0.275  0.7339 -0.0170  0.0431
11428SOL    HW139131   5.034   1.852   0.303  0.3485 -1.0801  1.4738
11428SOL    HW239132   4.928   1.933   0.232  2.0623  0.6384  0.8480
11429SOL     OW39133   3.616   9.115   1.400  0.2033 -0.6620 -0.3671
11429SOL    HW139134   3.548   9.057   1.365 -1.0862 -0.0435  1.0408
11429SOL    HW239135   3.623   9.185   1.335 -1.6230  0.0844  0.2084
11430SOL     OW39136   5.757   1.650   0.570 -0.0057  0.0657  0.3961
11430SOL    HW139137   5.793   1.596   0.500 -0.2992 -0.5648  0.7239
11430SOL    HW239138   5.824   1.716   0.588 -1.6003  2.9335 -3.3890
11431SOL     OW39139   5.433   1.032   1.227  0.6039  0.2677  0.5329
11431SOL    HW139140   5.379   0.962   1.262  1.2751 -0.8842 -0.6580
11431SOL    HW239141   5.441   1.095   1.298 -1.5463  0.0337  1.0040
11432SOL     OW39142   3.513   0.192   0.562  0.5966 -0.0182  0.2111
11432SOL    HW139143   3.436   0.241   0.590  1.9036  1.3984  1.3906
11432SOL    HW239144   3.559   0.173   0.643  3.0949  1.8496 -0.7257
11433SOL     OW39145   4.581   1.179   1.060  0.0865 -0.3461 -0.1262
11433SOL    HW139146   4.629   1.232   1.124  0.3936 -2.0442  1.1020
11433SOL    HW239147   4.535   1.114   1.113 -2.7201  0.5645 -1.3833
11434SOL     OW39148   6.320   0.125   1.698  0.1062  0.2217  0.4938
11434SOL    HW139149   6.275   0.056   1.650 -1.0277 -0.8583  3.0346
11434SOL    HW239150   6.251   0.188   1.721  0.7203  0.9868  0.2914
11435SOL     OW39151   4.573   1.608   0.176 -0.1709 -0.5401  0.5610
11435SOL    HW139152   4.518   1.576   0.104  1.1903 -0.2355 -0.6610
11435SOL    HW239153   4.561   1.544   0.246 -2.1782 -0.3888  0.3822
11436SOL     OW39154   3.940   3.054   0.228  0.0802 -0.2002  0.6605
11436SOL    HW139155   3.911   2.978   0.177 -0.5407 -1.3440  2.6545
11436SOL    HW239156   4.010   3.020   0.283  0.0755  0.7745  1.2767
11437SOL     OW39157   4.240   0.957   0.591  0.1693  0.0516  0.3431
11437SOL    HW139158   4.210   0.873   0.626 -0.6840  0.5692  0.8559
11437SOL    HW239159   4.201   0.962   0.504  2.1774 -1.1728 -0.6560
11438SOL     OW39160   5.942   8.780   1.366  0.6241  0.0865 -0.2013
11438SOL    HW139161   5.859   8.801   1.323  0.0283 -1.2051  0.3125
11438SOL    HW239162   6.008   8.795   1.298 -0.1062  0.2961 -0.8714
11439SOL     OW39163   4.459   1.709   0.823  0.3334  0.3827 -0.7279
11439SOL    HW139164   4.442   1.775   0.756 -0.6290 -0.5940 -1.4645
11439SOL    HW239165   4.417   1.629   0.790 -1.6980  0.3326  1.8505
11440SOL     OW39166   3.423   9.699   2.077 -0.6994 -0.3279  0.0817
11440SOL    HW139167   3.498   9.745   2.115 -1.0945  0.6628 -0.3301
11440SOL    HW239168   3.417   9.618   2.129  1.8129 -1.3522 -1.1007
11441SOL     OW39169   6.325   0.282   0.565  0.5087 -0.4195 -0.6966
11441SOL    HW139170   6.415   0.274   0.596  0.5803 -0.9910 -1.0434
11441SOL    HW239171   6.281   0.205   0.600  0.3104 -0.4660 -1.0415
11442SOL     OW39172   3.392   2.083   1.070  0.3357 -0.1649 -0.2945
11442SOL    HW139173   3.380   2.113   0.980  0.3872  0.1502 -0.1975
11442SOL    HW239174   3.335   2.007   1.079 -1.2308  1.0141  0.0239
11443SOL     OW39175   4.391   0.498   1.753  0.4448  0.3633  0.6390
11443SOL    HW139176   4.463   0.544   1.710  0.4951 -0.3607 -0.0639
11443SOL    HW239177   4.331   0.475   1.682 -0.8507  1.6002  1.3108
11444SOL     OW39178   6.317   1.296   1.965  0.3647 -0.6304  0.3945
11444SOL    HW139179   6.226   1.325   1.958  0.7650  0.5104 -0.2624
11444SOL    HW239180   6.312   1.204   1.988 -0.9749 -0.9912 -1.2734
11445SOL     OW39181   6.827   1.268   8.700  0.2339  0.2061 -0.2535
11445SOL    HW139182   6.797   1.180   8.680 -0.8459  0.5427 -0.1075
11445SOL    HW239183   6.755   1.325   8.673  1.3699  1.1304 -1.4257
11446SOL     OW39184   5.280   2.523   9.518  0.0528 -0.0547  0.1937
11446SOL    HW139185   5.257   2.489   9.604 -0.9873 -0.4100 -0.2140
11446SOL    HW239186   5.247   2.456   9.457  1.2021 -0.0339 -0.4550
11447SOL     OW39187   5.040   0.981   1.103 -0.2490 -0.0865 -0.2129
11447SOL    HW139188   4.946   0.991   1.096 -0.4678 -1.0380  1.2151
11447SOL    HW239189   5.075   1.021   1.023 -1.8877 -0.3345 -1.0643
11448SOL     OW39190   6.488   1.881   8.634  1.3074  0.0526 -0.2015
11448SOL    HW139191   6.472   1.788   8.649 -2.3413  0.6211 -0.0527
11448SOL    HW239192   6.435   1.925   8.701 -0.2597  2.2762 -2.7760
11449SOL     OW39193   4.214   1.638   0.135 -0.1056 -0.0793 -0.6579
11449SOL    HW139194   4.187   1.654   0.226  0.7118 -0.2081 -0.3920
11449SOL    HW239195   4.245   1.547   0.135 -0.4299 -0.1909 -1.1483
11450SOL     OW39196   2.586   1.394   2.322  0.8391  0.1233 -0.2191
11450SOL    HW139197   2.640   1.336   2.268  0.6979  1.9748 -2.4175
11450SOL    HW239198   2.496   1.366   2.305  0.8940 -0.5576  0.5839
11451SOL     OW39199   3.700   2.100   9.910 -0.2616 -1.3689  0.1064
11451SOL    HW139200   3.733   2.013   9.933 -0.3537 -1.1004  1.2853
11451SOL    HW239201   3.651   2.129   9.988  0.2465 -0.0272 -0.0593
11452SOL     OW39202   3.063   9.590   2.051  0.0435  0.4535 -0.1331
11452SOL    HW139203   3.104   9.627   2.129  0.3753  0.4913 -0.3212
11452SOL    HW239204   2.998   9.529   2.084  2.3485 -1.9139  0.2014
11453SOL     OW39205   5.056   8.537   3.173  0.1875  0.9873  0.1070
11453SOL    HW139206   5.061   8.620   3.220 -0.5961  1.0728  0.0587
11453SOL    HW239207   5.080   8.471   3.238  0.7149  1.2475  0.1722
11454SOL     OW39208   5.310   9.201   9.750  0.1534 -0.1499  1.1436
11454SOL    HW139209   5.313   9.238   9.662  0.3643  1.5029  1.8186
11454SOL    HW239210   5.386   9.144   9.756  2.3314  2.6604  1.4888
11455SOL     OW39211   4.613   8.699   3.133  0.0708  0.2279 -0.3051
11455SOL    HW139212   4.688   8.662   3.085  0.7514  0.9355  0.2088
11455SOL    HW239213   4.594   8.780   3.086  0.3016  0.5789  0.2149
11456SOL     OW39214   4.529   0.381   1.985  0.1135  0.3161  0.2373
11456SOL    HW139215   4.453   0.388   2.043 -0.1406  0.6608 -0.1354
11456SOL    HW239216   4.497   0.411   1.900  0.8098  0.9567  0.1975
11457SOL     OW39217   4.396   0.330   1.275 -0.4359  0.4171  0.3657
11457SOL    HW139218   4.414   0.321   1.368  2.1375 -0.1450 -0.1261
11457SOL    HW239219   4.473   0.291   1.232 -1.1492  1.4838 -1.9793
11458SOL     OW39220   4.050   0.028   1.006  0.8015 -0.0041  0.3129
11458SOL    HW139221   4.083  -0.041   0.949 -0.4488  0.0240 -0.4480
11458SOL    HW239222   3.995  -0.018   1.070  0.9281  0.1470  0.5301
11459SOL     OW39223   2.879   0.984   0.125 -0.0186  0.2441 -0.3532
11459SOL    HW139224   2.797   0.982   0.077  0.2971 -2.3740 -0.8281
11459SOL    HW239225   2.909   0.893   0.128  1.6093  0.7802  1.9692
11460SOL     OW39226   7.163   9.033   0.757  0.2061 -0.3416 -0.4378
11460SOL    HW139227   7.175   8.943   0.787  1.1595 -0.7686 -2.0664
11460SOL    HW239228   7.238   9.080   0.793  1.0169 -0.7258 -1.5852
11461SOL     OW39229   4.727   0.784   9.281 -0.0960 -0.1337  0.2403
11461SOL    HW139230   4.738   0.857   9.220 -1.0643 -0.7569 -0.6985
11461SOL    HW239231   4.662   0.815   9.344  0.7950  0.4549  0.8920
11462SOL     OW39232   4.482   0.823   1.835 -0.3183  0.2088  0.1107
11462SOL    HW139233   4.461   0.795   1.924 -0.0575 -1.6470 -0.3831
11462SOL    HW239234   4.398   0.845   1.796 -0.6205 -0.5986  0.2922
11463SOL     OW39235   4.934   0.962   1.477  0.0431 -0.2605  0.4871
11463SOL    HW139236   4.953   0.868   1.471 -0.1255 -0.2600 -0.0556
11463SOL    HW239237   4.867   0.969   1.545  0.8293 -0.4247  1.2922
11464SOL     OW39238   4.523   1.213   9.964 -0.1017 -0.2530  0.4550
11464SOL    HW139239   4.564   1.219   9.877 -0.8697  1.6673  0.1817
11464SOL    HW239240   4.452   1.150   9.952  0.3797 -0.7053 -0.0752
11465SOL     OW39241   4.947   2.923   8.416  0.6830  0.6181 -0.2078
11465SOL    HW139242   4.956   2.832   8.443  0.2098  1.0243  1.3580
11465SOL    HW239243   5.009   2.971   8.472 -1.9607  1.7700  1.8575
11466SOL     OW39244   5.839   0.975   0.300 -0.2767 -0.7867 -0.1019
11466SOL    HW139245   5.764   0.993   0.357 -0.0013 -1.5099  0.4877
11466SOL    HW239246   5.803   0.919   0.231 -0.2524 -1.2590  0.2639
11467SOL     OW39247   5.046   1.217   0.461  0.4594  0.5534 -0.8511
11467SOL    HW139248   4.995   1.146   0.424  1.2557 -0.3932 -0.1524
11467SOL    HW239249   5.136   1.186   0.459  0.6932  1.1064  0.4341
11468SOL     OW39250   3.308   1.513   1.166  0.0166  0.3890 -0.3416
11468SOL    HW139251   3.253   1.437   1.150  0.4050 -0.1707  0.9195
11468SOL    HW239252   3.250   1.588   1.151 -0.9054 -0.1843  0.3166
11469SOL     OW39253   3.356   0.922   1.271  0.4141  0.0374 -0.7272
11469SOL    HW139254   3.437   0.873   1.283  0.9848  1.2811  0.6671
11469SOL    HW239255   3.335   0.957   1.358 -1.3529  0.1461 -1.1669
11470SOL     OW39256   5.663   1.158   2.204 -0.7912 -0.6207 -0.2198
11470SOL    HW139257   5.706   1.074   2.223  1.4829  0.6458  0.3736
11470SOL    HW239258   5.685   1.175   2.112  1.5610  0.8783  0.5703
11471SOL     OW39259   6.467   9.939   1.045 -0.5268 -0.2838 -0.2026
11471SOL    HW139260   6.420  10.004   1.098 -0.9132  0.4274 -1.3857
11471SOL    HW239261   6.512   9.884   1.109 -3.3750 -1.3261  1.0053
11472SOL     OW39262   4.483   0.654   9.973 -0.1455  0.4919 -0.6684
11472SOL    HW139263   4.578   0.648   9.963 -0.3843 -0.5715 -2.5178
11472SOL    HW239264   4.470   0.665  10.067  1.7582 -0.4906 -0.2518
11473SOL     OW39265   5.617   9.430   0.825  0.1881 -0.3095  0.1961
11473SOL    HW139266   5.643   9.522   0.823 -1.2441  0.0875 -0.6458
11473SOL    HW239267   5.532   9.429   0.867 -1.4658 -0.7898 -2.9835
11474SOL     OW39268   2.880   2.222   0.492  0.2086 -1.0098 -0.4073
11474SOL    HW139269   2.849   2.161   0.559  0.3178  0.4217  0.9807
11474SOL    HW239270   2.802   2.273   0.469  1.1514  1.6655  2.0798
11475SOL     OW39271   5.929   1.413   0.728  0.0763  0.2255 -0.3190
11475SOL    HW139272   5.949   1.485   0.788  0.2614 -0.0134 -0.0906
11475SOL    HW239273   5.930   1.453   0.641 -0.0955  0.5548 -0.1727
11476SOL     OW39274   5.233   0.379   0.554  0.4365 -0.3602 -0.1894
11476SOL    HW139275   5.299   0.376   0.485 -0.7113  0.5131 -1.3582
11476SOL    HW239276   5.175   0.305   0.536 -0.3028  0.3162 -0.6290
11477SOL     OW39277   4.582   9.200   0.734  0.5504  0.0867  0.7017
11477SOL    HW139278   4.571   9.251   0.814  2.5830  2.6474 -0.6048
11477SOL    HW239279   4.538   9.251   0.666 -1.2407 -2.1046  0.1398
11478SOL     OW39280   5.886   1.195   1.469  0.3578 -0.0127  0.5732
11478SOL    HW139281   5.933   1.232   1.544  1.4826 -2.2210  1.0142
11478SOL    HW239282   5.797   1.181   1.500  1.0301 -1.7128  1.8271
11479SOL     OW39283   5.673   1.600   2.138 -0.1033 -0.0763 -0.5470
11479SOL    HW139284   5.760   1.621   2.103 -0.2089  1.9142  0.3325
11479SOL    HW239285   5.690   1.532   2.204  0.3944 -1.9345 -2.5389
11480SOL     OW39286   4.726   9.746   0.264  0.1182 -0.0094 -0.2744
11480SOL    HW139287   4.801   9.781   0.311 -1.1911  2.3645  0.0989
11480SOL    HW239288   4.754   9.745   0.172  0.2509  1.8883 -0.2752
11481SOL     OW39289   4.544   0.201   1.554  0.6399  0.2784  0.2418
11481SOL    HW139290   4.608   0.220   1.485  1.7204  3.2544  1.9792
11481SOL    HW239291   4.593   0.152   1.619  0.5321  0.4545  0.4565
11482SOL     OW39292   3.637   9.893   2.146 -0.2370  1.0858 -0.5411
11482SOL    HW139293   3.727   9.879   2.116 -0.1919  0.1943 -0.0114
11482SOL    HW239294   3.647   9.951   2.222 -0.0900  0.7432 -0.3002
11483SOL     OW39295   5.340   2.757   1.518 -0.2740  0.2724  0.6308
11483SOL    HW139296   5.389   2.776   1.438 -0.1009  0.5213  0.7933
11483SOL    HW239297   5.406   2.729   1.581 -0.6903 -2.3520 -0.0325
11484SOL     OW39298   4.133   0.002   9.194  0.2423 -0.4894 -0.2181
11484SOL    HW139299   4.200  -0.013   9.127  1.1254 -1.1473  0.7982
11484SOL    HW239300   4.051  -0.026   9.152  0.7112 -0.4435 -1.1867
11485SOL     OW39301   4.442   1.026   0.781  0.1403 -0.4444  0.1533
11485SOL    HW139302   4.389   1.026   0.701 -0.4570  0.4408  0.5370
11485SOL    HW239303   4.430   0.939   0.819  1.3228 -1.2625 -1.2955
11486SOL     OW39304   4.527   0.315   0.419 -0.2404  0.4012 -0.4541
11486SOL    HW139305   4.540   0.409   0.422 -2.4544  0.7692 -1.8079
11486SOL    HW239306   4.450   0.299   0.473  0.4433 -0.7175  0.2251
11487SOL     OW39307   3.798   0.980   1.200  0.1189  0.2726 -0.3405
11487SOL    HW139308   3.800   1.055   1.140 -0.3233  0.8733  0.3837
11487SOL    HW239309   3.797   0.904   1.142 -0.0235  0.8349 -1.0955
11488SOL     OW39310   4.510   0.099   0.629 -0.2847 -0.0188 -0.3805
11488SOL    HW139311   4.541   0.154   0.557 -0.1556 -1.0521 -1.1162
11488SOL    HW239312   4.426   0.065   0.600 -1.0104  0.8700  0.6384
11489SOL     OW39313   5.475   0.963   1.976 -0.2706  0.1501 -0.1749
11489SOL    HW139314   5.410   1.033   1.972 -1.7210 -1.1360  0.6547
11489SOL    HW239315   5.547   1.001   2.026 -0.3483  1.5891 -1.1160
11490SOL     OW39316   5.489   1.116   0.760  0.2597  0.3927 -0.1866
11490SOL    HW139317   5.406   1.106   0.714 -0.0143  0.0204  0.3871
11490SOL    HW239318   5.467   1.165   0.839  0.7022  0.8848 -0.3672
11491SOL     OW39319   4.798   0.020   1.951 -0.2066 -0.6291 -0.1884
11491SOL    HW139320   4.790   0.102   1.902  0.7008  1.6496  3.2942
11491SOL    HW239321   4.709  -0.015   1.955 -0.4776 -0.2532 -2.3742
11492SOL     OW39322   4.763   9.376   1.595  0.1210  0.4251 -1.0567
11492SOL    HW139323   4.842   9.363   1.544  0.3175  1.7845 -1.1290
11492SOL    HW239324   4.757   9.299   1.652  1.8467  0.6235 -0.5898
11493SOL     OW39325   4.118   0.012   3.027 -0.3019 -0.0337  0.2743
11493SOL    HW139326   4.132  -0.082   3.017  0.7226  0.1658 -0.2267
11493SOL    HW239327   4.124   0.028   3.121 -0.1641 -0.4140  0.3305
11494SOL     OW39328   2.954   0.700   0.014  0.3044  0.1454 -0.2130
11494SOL    HW139329   3.008   0.668   0.086 -1.2815  0.2690  1.0533
11494SOL    HW239330   2.915   0.621  -0.024  1.0467  0.0905 -0.8827
11495SOL     OW39331   4.723   0.569   1.355  0.1473  0.1529 -0.3873
11495SOL    HW139332   4.689   0.480   1.354  1.5028 -0.4304  2.1393
11495SOL    HW239333   4.799   0.567   1.296 -0.2889 -0.1282 -0.9529
11496SOL     OW39334   4.729   1.879   0.657 -0.1299 -0.1754 -0.5785
11496SOL    HW139335   4.730   1.954   0.597 -0.4159 -0.4151 -0.8861
11496SOL    HW239336   4.639   1.876   0.689 -0.1555 -0.4819 -0.6823
11497SOL     OW39337   5.188   9.160   2.824 -0.0468 -0.4621  0.7284
11497SOL    HW139338   5.229   9.106   2.756  0.0129  0.0291  0.3707
11497SOL    HW239339   5.228   9.246   2.813  0.3270 -0.4968  1.7047
11498SOL     OW39340   5.301   9.670   0.330 -0.9842 -0.6438  0.5664
11498SOL    HW139341   5.264   9.758   0.324 -0.0296 -0.2424  0.5613
11498SOL    HW239342   5.305   9.639   0.240  0.0977 -0.1071  0.4299
11499SOL     OW39343   5.412   0.367   0.335 -0.1826 -0.3142 -0.1981
11499SOL    HW139344   5.458   0.376   0.252 -0.2580  0.2874 -0.1784
11499SOL    HW239345   5.472   0.317   0.391 -0.3638 -1.2038 -0.7885
11500SOL     OW39346   4.367   0.605   1.227  0.0154 -0.4531 -0.1949
11500SOL    HW139347   4.384   0.606   1.133 -2.9702 -0.6076 -0.7832
11500SOL    HW239348   4.387   0.515   1.254  0.9103 -0.3992 -0.6800
11501SOL     OW39349   3.761   0.088   0.014  0.1501 -0.6127  0.5806
11501SOL    HW139350   3.746   0.137   0.095  0.9846 -1.2891  1.1583
11501SOL    HW239351   3.846   0.119  -0.018 -0.4927  0.1521 -0.4135
11502SOL     OW39352   5.505   0.196   0.971  0.4305  0.6041 -0.4830
11502SOL    HW139353   5.426   0.234   1.010  0.1930 -0.1285 -0.2530
11502SOL    HW239354   5.577   0.242   1.016  0.1474  0.8013 -0.2204
11503SOL     OW39355   5.010   1.403   0.121 -0.0168  0.2045 -0.3889
11503SOL    HW139356   4.935   1.432   0.173 -1.3253 -1.7428 -1.1459
11503SOL    HW239357   5.086   1.439   0.167 -1.2130 -0.5411  2.2490
11504SOL     OW39358   5.694   0.701   1.518  0.1601 -0.7634  0.0583
11504SOL    HW139359   5.610   0.748   1.510  1.2569  1.0936 -0.8041
11504SOL    HW239360   5.759   0.763   1.487  2.0907 -1.5520  2.3736
11505SOL     OW39361   5.246   0.579   0.313  0.5635 -0.0625  0.5119
11505SOL    HW139362   5.260   0.571   0.218 -1.6288 -0.3326  0.1904
11505SOL    HW239363   5.293   0.505   0.351  0.0761 -0.9061 -0.5125
11506SOL     OW39364   4.600   0.607   0.396 -0.2811  0.6652  0.6847
11506SOL    HW139365   4.596   0.677   0.461 -0.5080  0.5635  0.7832
11506SOL    HW239366   4.531   0.629   0.333 -0.9417  0.0749  1.1837
11507SOL     OW39367   5.967   9.508   9.663  0.0807 -0.4261 -0.1150
11507SOL    HW139368   5.928   9.436   9.713 -0.3963  1.5796  2.4966
11507SOL    HW239369   5.891   9.555   9.627  0.3171 -0.2392 -0.3688
11508SOL     OW39370   5.019   1.090   0.155 -0.0066 -0.3927 -0.3482
11508SOL    HW139371   5.051   1.180   0.159  1.2430 -0.8517  0.0626
11508SOL    HW239372   4.956   1.091   0.083  1.0883  0.4640 -1.3123
11509SOL     OW39373   2.967   1.240   0.697  0.5474 -0.2953  0.5828
11509SOL    HW139374   2.884   1.241   0.743  0.7650 -1.3460  1.0064
11509SOL    HW239375   3.028   1.285   0.757  1.0846 -2.6050  1.8573
11510SOL     OW39376   4.563   0.965   0.409  0.2134 -0.3632 -0.0576
11510SOL    HW139377   4.540   1.056   0.428 -0.4370 -0.3266 -0.9644
11510SOL    HW239378   4.497   0.936   0.346  1.6626 -0.7922 -1.4334
11511SOL     OW39379   5.598   0.848   0.796 -1.0651  0.1825  0.0764
11511SOL    HW139380   5.568   0.937   0.779  1.9784  1.2613 -0.0553
11511SOL    HW239381   5.622   0.847   0.888  1.5988  0.3908 -0.5726
11512SOL     OW39382   4.465   0.164   2.177 -0.3861 -0.6320 -0.0282
11512SOL    HW139383   4.517   0.138   2.101  0.2783 -0.8384  0.4996
11512SOL    HW239384   4.418   0.084   2.202 -2.1473 -0.0844 -1.4275
11513SOL     OW39385   4.688   0.215   0.814  0.2184  0.3935  0.4557
11513SOL    HW139386   4.618   0.160   0.779 -0.2395  0.6186  1.0248
11513SOL    HW239387   4.666   0.304   0.785  1.5873  0.1474 -1.4853
11514SOL     OW39388   3.524   0.473   0.257 -0.0440  0.4422 -0.0360
11514SOL    HW139389   3.448   0.478   0.315 -1.1842 -1.5553 -1.3133
11514SOL    HW239390   3.563   0.561   0.261 -1.6067  1.0919  1.6937
11515SOL     OW39391   3.730   1.370   0.538  0.9702  0.0458  0.1921
11515SOL    HW139392   3.710   1.280   0.565 -0.5953  0.2036 -0.3544
11515SOL    HW239393   3.728   1.367   0.442 -1.1652  1.0672  0.1709
11516SOL     OW39394   3.750   9.978   0.874  0.7810  0.3958 -0.2083
11516SOL    HW139395   3.796   9.944   0.950 -0.4779 -0.3744  0.2233
11516SOL    HW239396   3.707   9.902   0.835 -1.1875  1.2903  0.1466
11517SOL     OW39397   4.031   0.306   2.113 -0.2675  0.0494 -0.2552
11517SOL    HW139398   4.099   0.275   2.053 -0.7666 -0.0607 -0.7673
11517SOL    HW239399   4.019   0.398   2.091 -2.3325 -0.6298 -2.1587
11518SOL     OW39400   3.839   1.115   9.968  0.1006  0.0072 -0.0141
11518SOL    HW139401   3.851   1.209   9.985  1.6552 -0.1590 -0.1326
11518SOL    HW239402   3.926   1.077   9.981 -0.3413 -1.2974 -0.7988
11519SOL     OW39403   5.701   0.013   0.558 -0.3086  0.4021 -0.1202
11519SOL    HW139404   5.767   0.057   0.612  1.0811 -0.8373 -0.7809
11519SOL    HW239405   5.730  -0.078   0.553 -1.3157  0.1393 -1.5711
11520SOL     OW39406   3.242   2.741   0.484  0.0741  0.3391  0.0513
11520SOL    HW139407   3.238   2.680   0.411 -3.1300  1.3219 -0.6550
11520SOL    HW239408   3.206   2.693   0.558  1.1239  0.1245  0.4296
11521SOL     OW39409   4.573   2.082   1.380 -0.5431  1.0089 -0.3919
11521SOL    HW139410   4.484   2.074   1.414 -0.1998 -0.4037  0.2082
11521SOL    HW239411   4.589   2.000   1.334  1.7419 -0.3549  2.6562
11522SOL     OW39412   5.636   1.198   1.581  0.2282  0.3379 -0.3712
11522SOL    HW139413   5.554   1.167   1.542  0.8009  0.4302 -1.6791
11522SOL    HW239414   5.609   1.247   1.659 -0.8107 -1.6050  0.5257
11523SOL     OW39415   3.920   1.402   9.432 -0.2137  0.6128 -0.6363
11523SOL    HW139416   3.904   1.332   9.495  1.3441  1.1491  0.3751
11523SOL    HW239417   3.982   1.364   9.369  0.4908  1.0110 -0.1893
11524SOL     OW39418   3.630   1.453   1.681  0.2879  0.0023 -0.0809
11524SOL    HW139419   3.564   1.464   1.612 -0.7323 -1.7001  0.5807
11524SOL    HW239420   3.708   1.422   1.635 -0.4586 -1.3481 -0.4858
11525SOL     OW39421   5.367   9.970   1.181 -0.6456  0.3839  0.6111
11525SOL    HW139422   5.298   9.996   1.120  0.4015  0.9389 -0.3557
11525SOL    HW239423   5.390  10.051   1.228  0.6267  0.6185 -0.3863
11526SOL     OW39424   5.830   0.578   1.103  0.3531 -0.5154  0.0126
11526SOL    HW139425   5.758   0.618   1.152  0.0536  0.7081 -1.3899
11526SOL    HW239426   5.825   0.618   1.016  1.8287 -1.5052 -0.5466
11527SOL     OW39427   4.323   1.775   9.284 -0.5347  0.0683 -0.2727
11527SOL    HW139428   4.357   1.864   9.274 -1.6506  0.5020 -0.2879
11527SOL    HW239429   4.363   1.744   9.365 -2.7890  1.8602  1.6154
11528SOL     OW39430   5.352   1.891   0.723  0.2395 -0.2609  0.2007
11528SOL    HW139431   5.318   1.803   0.740  2.2088 -0.9944  0.5812
11528SOL    HW239432   5.406   1.881   0.645  0.1394  0.7085  0.0000
11529SOL     OW39433   3.080   0.924   1.244 -0.2936 -0.0155 -0.1279
11529SOL    HW139434   3.174   0.935   1.230 -0.1539 -0.1791  0.6619
11529SOL    HW239435   3.067   0.946   1.336 -0.7792 -1.6579  0.1979
11530SOL     OW39436   5.313   1.690   1.865  0.5209  0.4863  0.1395
11530SOL    HW139437   5.265   1.710   1.946 -1.7368 -0.9433 -0.7944
11530SOL    HW239438   5.314   1.595   1.861  0.7043  0.5452 -1.4425
11531SOL     OW39439   4.116   9.849   9.928  0.4577 -0.4930  0.3337
11531SOL    HW139440   4.134   9.859  10.021 -1.1829 -2.5855  0.9106
11531SOL    HW239441   4.049   9.915   9.909 -0.0234 -0.8273  0.8778
11532SOL     OW39442   5.403   0.852   0.102  0.0919  0.0089  0.3299
11532SOL    HW139443   5.327   0.809   0.064  0.7548 -1.4263  0.5988
11532SOL    HW239444   5.440   0.904   0.030  1.2750 -2.6003 -1.0149
11533SOL     OW39445   5.425   1.219   1.012  0.5048 -1.0052 -0.0182
11533SOL    HW139446   5.391   1.305   1.037  4.1718  0.6557 -0.3304
11533SOL    HW239447   5.387   1.159   1.076 -1.8067  0.8849  0.4762
11534SOL     OW39448   3.022   2.606   1.775  0.4204  0.1930 -0.0674
11534SOL    HW139449   3.035   2.623   1.682 -0.8711 -0.1064 -0.3129
11534SOL    HW239450   2.943   2.552   1.778  0.0847  0.7516  1.2519
11535SOL     OW39451   4.054   9.308   0.796 -0.0570  0.1021  0.0265
11535SOL    HW139452   4.060   9.237   0.859 -0.3158  1.5509  1.7055
11535SOL    HW239453   4.018   9.382   0.845 -0.4757  1.1990 -1.8569
11536SOL     OW39454   3.647   8.851   0.573  0.5720  0.3843  0.2440
11536SOL    HW139455   3.708   8.801   0.628  0.7425  0.9073  0.5348
11536SOL    HW239456   3.660   8.816   0.485  0.6062 -0.1677  0.4659
11537SOL     OW39457   4.714   2.048   0.201 -0.3672  0.0821  0.1444
11537SOL    HW139458   4.770   2.093   0.137  0.3855  0.2284  0.9004
11537SOL    HW239459   4.630   2.037   0.156  0.3771 -0.4606 -1.1238
11538SOL     OW39460   5.053   0.622   0.555  0.6277 -0.1525  0.2774
11538SOL    HW139461   5.097   0.624   0.470  0.8577  0.7856  0.4061
11538SOL    HW239462   5.114   0.574   0.612  0.4397 -0.8445 -0.0989
11539SOL     OW39463   6.681   9.492   0.139 -0.3562 -0.1833  0.4491
11539SOL    HW139464   6.649   9.436   0.210 -1.5141  1.5048  1.2725
11539SOL    HW239465   6.725   9.431   0.079 -3.4953 -2.3385  0.2131
11540SOL     OW39466   5.031   9.883   0.258 -0.0183  0.0638  0.0398
11540SOL    HW139467   5.064   9.966   0.292 -0.1736  0.6847 -1.2729
11540SOL    HW239468   5.002   9.835   0.335  0.1542  1.1960  0.8244
11541SOL     OW39469   6.379   2.147   8.390 -0.1819 -0.3279 -0.0400
11541SOL    HW139470   6.300   2.117   8.344 -2.1485 -0.5779  3.3650
11541SOL    HW239471   6.439   2.072   8.385 -1.0709 -1.0256 -0.5579
11542SOL     OW39472   3.773   1.824   1.921 -0.1095  0.4163  0.1697
11542SOL    HW139473   3.854   1.782   1.894 -0.0080  0.2676  0.7071
11542SOL    HW239474   3.747   1.778   2.001 -0.3474  0.9270  0.3888
11543SOL     OW39475   5.311   0.547   0.750  0.4448  0.2112  0.3752
11543SOL    HW139476   5.272   0.479   0.695 -1.0414 -0.1244  1.8029
11543SOL    HW239477   5.401   0.519   0.763 -0.0196 -1.2301  0.5303
11544SOL     OW39478   5.667   0.287   9.647 -0.4963 -0.0456 -0.5267
11544SOL    HW139479   5.615   0.356   9.606  0.8399  0.6277 -1.1088
11544SOL    HW239480   5.745   0.331   9.681 -0.8259 -0.8469  1.3834
11545SOL     OW39481   5.923   0.994   2.129 -0.1751 -0.0883  0.1692
11545SOL    HW139482   5.856   0.932   2.157  0.2352 -1.4791 -1.8475
11545SOL    HW239483   5.881   1.047   2.062 -0.3913  1.5488  1.5787
11546SOL     OW39484   6.026   8.970   0.925  0.0996  0.0003 -0.0240
11546SOL    HW139485   5.969   9.012   0.989  0.7374  0.2048  0.4136
11546SOL    HW239486   6.106   9.023   0.926  1.1024 -1.5221  0.9016
11547SOL     OW39487   5.508   1.937   9.572 -0.3688  0.5443 -0.1129
11547SOL    HW139488   5.424   1.923   9.530 -1.2492 -0.2253  1.8449
11547SOL    HW239489   5.512   2.032   9.585 -1.7672  0.4136  1.4143
11548SOL     OW39490   3.588   1.222   0.868 -0.0842  0.5594  0.5230
11548SOL    HW139491   3.542   1.217   0.952  0.7748 -0.5468  0.9417
11548SOL    HW239492   3.547   1.154   0.814  1.1674 -0.5542  0.9588
11549SOL     OW39493   4.587   0.812   1.329  0.0126 -0.2778 -0.5451
11549SOL    HW139494   4.496   0.802   1.357 -0.5641 -0.3496 -2.3939
11549SOL    HW239495   4.633   0.742   1.374 -0.6426  0.3603  1.1949
11550SOL     OW39496   3.865   8.745   9.981 -0.0668  0.0855  0.3709
11550SOL    HW139497   3.888   8.682   9.913  1.2293 -0.6884  1.4941
11550SOL    HW239498   3.934   8.812   9.976 -0.5125  0.5429  0.2815
11551SOL     OW39499   4.507   1.959   9.592 -0.1064 -0.5007  0.3615
11551SOL    HW139500   4.531   2.041   9.634  0.8856 -0.2044 -0.7549
11551SOL    HW239501   4.418   1.973   9.560 -0.9396 -0.7953  2.4860
11552SOL     OW39502   5.491   9.749   1.349 -0.2046 -0.1016 -0.2518
11552SOL    HW139503   5.436   9.805   1.295  0.3917 -0.6054 -1.4009
11552SOL    HW239504   5.527   9.808   1.416  0.7291  0.9793 -1.6868
11553SOL     OW39505   5.148   1.343   0.912  0.1006 -1.0078 -0.3562
11553SOL    HW139506   5.143   1.248   0.911 -0.9006 -0.9913  0.8955
11553SOL    HW239507   5.179   1.364   1.000  1.2930 -0.2097 -0.9572
11554SOL     OW39508   5.823   2.010   0.955 -0.3084  0.1513  0.0382
11554SOL    HW139509   5.915   2.017   0.929 -0.3208 -0.8710 -0.3303
11554SOL    HW239510   5.795   1.926   0.919 -1.0199 -0.1601  1.2787
11555SOL     OW39511   5.146   9.601   1.972 -0.0966  0.8819  0.0936
11555SOL    HW139512   5.106   9.622   1.888 -0.3257 -0.4294 -0.1430
11555SOL    HW239513   5.075   9.562   2.023 -0.3998  3.2364  1.5251
11556SOL     OW39514   3.633   3.060   1.537  0.6882 -0.3119  0.3024
11556SOL    HW139515   3.649   3.121   1.466 -1.1285 -0.9864 -0.7209
11556SOL    HW239516   3.581   3.109   1.600  1.5001 -0.0033  0.7410
11557SOL     OW39517   4.424   0.792   0.936 -0.0833  0.3973 -0.0772
11557SOL    HW139518   4.410   0.716   0.879 -0.2921  1.0872 -0.9600
11557SOL    HW239519   4.517   0.790   0.957  0.5492  1.6511 -2.6414
11558SOL     OW39520   4.373   9.664   0.049 -0.0267  0.3002 -0.4857
11558SOL    HW139521   4.308   9.683  -0.019  1.9073  1.0598 -2.1766
11558SOL    HW239522   4.419   9.586   0.018  1.3537  1.0734 -0.4355
11559SOL     OW39523   3.739   9.677   3.926  0.1165 -0.2146 -0.2013
11559SOL    HW139524   3.765   9.600   3.976  2.2751  1.9089  2.0526
11559SOL    HW239525   3.697   9.734   3.990 -0.9229  0.7870 -1.7305
11560SOL     OW39526   3.622   1.054   1.398  0.0418 -0.1992  0.0163
11560SOL    HW139527   3.672   1.001   1.336 -2.2337 -0.1659 -1.9359
11560SOL    HW239528   3.621   1.142   1.359 -0.7768 -0.0038  0.4664
11561SOL     OW39529   5.392   2.114   0.353  0.1796 -0.0684  0.4117
11561SOL    HW139530   5.417   2.072   0.271 -1.0895  2.5077 -1.3857
11561SOL    HW239531   5.465   2.172   0.374 -0.5460  1.1290 -0.2798
11562SOL     OW39532   4.200   1.148   0.903  0.0588 -0.0899 -0.1409
11562SOL    HW139533   4.162   1.100   0.976  0.0656 -1.5128 -1.0656
11562SOL    HW239534   4.261   1.087   0.863 -0.4042  0.4702 -1.7254
11563SOL     OW39535   3.653   9.723   0.964 -0.1941  0.5474 -0.1438
11563SOL    HW139536   3.573   9.757   1.005 -0.9988 -1.8146  0.3557
11563SOL    HW239537   3.719   9.726   1.034 -0.1580  1.3756 -0.2075
11564SOL     OW39538   4.732   0.978   9.675 -0.3202  0.1225  0.4245
11564SOL    HW139539   4.744   1.073   9.673 -0.9510  0.1972 -1.6850
11564SOL    HW239540   4.674   0.962   9.749  1.1152  1.1850  1.8323
11565SOL     OW39541   6.835   1.518   1.800 -0.2588 -0.1939  0.0958
11565SOL    HW139542   6.869   1.473   1.878  0.0717 -0.8468 -0.4209
11565SOL    HW239543   6.740   1.508   1.806 -0.2703  0.2530  0.7088
11566SOL     OW39544   4.029   1.264   2.159  0.3905  0.4668  0.5278
11566SOL    HW139545   3.961   1.199   2.180 -0.2949  1.0314  0.0751
11566SOL    HW239546   4.033   1.320   2.236  0.8180  0.0235  0.8260
11567SOL     OW39547   2.798   1.734   0.402  0.0108 -0.2782 -0.5387
11567SOL    HW139548   2.714   1.699   0.371 -0.6454  1.1247 -0.4159
11567SOL    HW239549   2.847   1.752   0.322 -0.1254 -0.3490 -0.6385
11568SOL     OW39550   2.499   2.349   1.836 -0.4130 -0.4692  0.2203
11568SOL    HW139551   2.441   2.295   1.783 -0.2503  0.5569 -1.0166
11568SOL    HW239552   2.553   2.286   1.884  0.5150 -1.4070 -2.0090
11569SOL     OW39553   5.776   9.739   2.055  0.0561 -0.2095 -0.4170
11569SOL    HW139554   5.737   9.742   1.968  0.9477  0.0919 -0.8071
11569SOL    HW239555   5.701   9.731   2.115 -0.4656 -3.1390 -1.3569
11570SOL     OW39556   3.926   0.992   2.267  0.2400  0.4868  0.0678
11570SOL    HW139557   3.920   0.898   2.282  0.2039  0.4037 -0.4591
11570SOL    HW239558   3.836   1.023   2.272 -0.1486  0.0157 -2.8025
11571SOL     OW39559   5.569   9.167   1.832  0.1061  0.0825  0.2619
11571SOL    HW139560   5.560   9.142   1.740  1.2494  0.7588 -0.0453
11571SOL    HW239561   5.492   9.220   1.851  0.7291  1.4058 -0.8158
11572SOL     OW39562   3.011   9.731   0.545  0.6272  0.6889  0.1365
11572SOL    HW139563   2.972   9.815   0.522 -1.4156 -0.5138 -1.0015
11572SOL    HW239564   2.960   9.702   0.621  1.8765  0.8370  1.0500
11573SOL     OW39565   2.834   0.667   9.613 -0.0805  0.1003 -0.2271
11573SOL    HW139566   2.809   0.754   9.644  1.2060  0.2725  0.3705
11573SOL    HW239567   2.811   0.609   9.686  2.2995  0.4149  0.8232
11574SOL     OW39568   4.531   0.501   9.213  0.3593 -0.3782  0.7502
11574SOL    HW139569   4.456   0.444   9.197  1.0416 -1.2846  0.6905
11574SOL    HW239570   4.510   0.545   9.296 -0.2161 -0.6562  0.7567
11575SOL     OW39571   5.126   2.185   8.364  0.1824 -0.6219  0.1868
11575SOL    HW139572   5.112   2.233   8.283  0.8687  1.2871  1.1567
11575SOL    HW239573   5.040   2.185   8.407 -0.0968 -1.3102 -0.3810
11576SOL     OW39574   5.727   9.346   8.690  0.0357  0.0491 -0.0188
11576SOL    HW139575   5.706   9.429   8.646  1.2757 -0.1181 -0.9537
11576SOL    HW239576   5.744   9.285   8.618  0.4890 -0.6452  0.6770
11577SOL     OW39577   4.670   0.463   0.720 -0.2477  0.5942  0.0336
11577SOL    HW139578   4.611   0.520   0.670 -1.1404  0.2415  0.6750
11577SOL    HW239579   4.754   0.469   0.674 -0.7280  1.2642 -0.7661
11578SOL     OW39580   4.242   0.875   1.688  0.4138 -0.3871 -0.4116
11578SOL    HW139581   4.181   0.813   1.647  0.2594 -0.5350  0.0423
11578SOL    HW239582   4.274   0.928   1.615  1.9838 -2.2180 -1.1004
11579SOL     OW39583   2.799   0.717   3.544 -0.2533  0.3056  0.3205
11579SOL    HW139584   2.706   0.699   3.534 -0.5913  1.6770  0.7398
11579SOL    HW239585   2.823   0.674   3.626 -1.9330  4.7118  3.3267
11580SOL     OW39586   3.701   2.244   3.828  0.0417  0.1726 -0.5283
11580SOL    HW139587   3.618   2.275   3.866  0.6495  0.5567  0.5269
11580SOL    HW239588   3.676   2.173   3.770 -1.1408  1.0009 -1.0612
11581SOL     OW39589   4.538   1.737   4.195  0.0939  0.0157  0.1306
11581SOL    HW139590   4.493   1.821   4.183  1.2264  0.7972  1.3016
11581SOL    HW239591   4.472   1.681   4.237 -0.4936  0.4691 -0.1706
11582SOL     OW39592   4.519   2.829   0.854  0.3474 -0.0494 -0.0029
11582SOL    HW139593   4.519   2.738   0.825 -0.4087 -0.4793  1.3004
11582SOL    HW239594   4.599   2.838   0.906  0.2735 -0.0540  0.1126
11583SOL     OW39595   6.169   1.067   1.679  0.1074  0.4884  0.1284
11583SOL    HW139596   6.199   0.990   1.728 -1.2998  0.5790  1.1966
11583SOL    HW239597   6.108   1.032   1.614 -0.5580  0.6898  0.6352
11584SOL     OW39598   5.402   2.992   3.698  0.2408  0.5793 -0.1807
11584SOL    HW139599   5.402   3.063   3.761 -1.8797  0.1012  0.4165
11584SOL    HW239600   5.413   2.912   3.750  0.9957  0.3535 -0.6737
11585SOL     OW39601   4.630   0.438   2.925  0.3905  0.6533 -0.1418
11585SOL    HW139602   4.675   0.521   2.906  1.3527  0.3790  0.8853
11585SOL    HW239603   4.587   0.415   2.842 -0.6967  2.6655 -0.1464
11586SOL     OW39604   3.251   2.157   2.972  0.0113 -0.5147  0.3216
11586SOL    HW139605   3.338   2.194   2.983 -1.0241  1.7559  1.2697
11586SOL    HW239606   3.263   2.063   2.980  2.1669 -0.1476  1.8177
11587SOL     OW39607   5.172   1.071   3.598  0.4017 -0.0494 -0.2227
11587SOL    HW139608   5.105   1.066   3.666 -1.8506  0.8015 -2.3118
11587SOL    HW239609   5.203   1.161   3.603 -0.1028  0.1488 -0.6261
11588SOL     OW39610   4.419   0.852   2.951  0.4021 -0.1074  0.3064
11588SOL    HW139611   4.405   0.825   3.042 -0.4257  0.2398  0.2866
11588SOL    HW239612   4.400   0.774   2.900  2.1184 -0.6736  0.4972
11589SOL     OW39613   5.331   8.955   2.071  0.1664  0.4453 -0.2041
11589SOL    HW139614   5.337   8.886   2.138  1.6181 -1.3534 -2.1166
11589SOL    HW239615   5.404   9.014   2.091  1.1634 -0.5921 -0.7119
11590SOL     OW39616   4.427   0.746   2.518  0.2386  0.5654 -0.5034
11590SOL    HW139617   4.427   0.824   2.573 -0.2635  0.8528 -0.9076
11590SOL    HW239618   4.440   0.674   2.579  1.1046  0.9858 -0.1700
11591SOL     OW39619   3.971   9.956   2.344 -0.7409 -0.1316 -0.5635
11591SOL    HW139620   3.887  10.002   2.339 -0.8686 -0.4443 -1.2551
11591SOL    HW239621   3.999   9.946   2.253  0.3337  0.4900 -0.3163
11592SOL     OW39622   3.306   0.555   3.032  0.0323 -0.6004 -0.5258
11592SOL    HW139623   3.400   0.565   3.017  0.0020  0.1083 -0.2413
11592SOL    HW239624   3.265   0.594   2.955 -0.0700  0.9530  0.3002
11593SOL     OW39625   4.304   1.887   1.693  0.5952 -0.4521  0.3524
11593SOL    HW139626   4.263   1.802   1.681  0.4474  0.1632 -4.3692
11593SOL    HW239627   4.396   1.868   1.709  0.7974 -1.4908 -1.9243
11594SOL     OW39628   3.731   0.108   2.345  0.2056  0.5178 -0.3357
11594SOL    HW139629   3.640   0.117   2.373  1.0436  0.2291  2.6305
11594SOL    HW239630   3.753   0.195   2.310 -0.7917  1.0029  0.2106
11595SOL     OW39631   7.483   1.378   2.934  0.3804 -0.7611  0.0823
11595SOL    HW139632   7.396   1.339   2.933 -0.5120  1.0014  3.3210
11595SOL    HW239633   7.469   1.470   2.913  1.5626 -0.5857  0.0269
11596SOL     OW39634   6.011   1.344   1.971 -0.2166  0.9884  0.1685
11596SOL    HW139635   6.014   1.398   2.050  1.6346 -2.6192  2.7662
11596SOL    HW239636   5.925   1.302   1.973 -0.0752  0.7086  0.4238
11597SOL     OW39637   4.307   0.465   2.186 -0.1454  0.0737  0.2773
11597SOL    HW139638   4.266   0.513   2.258 -1.3150  0.5348 -0.6864
11597SOL    HW239639   4.256   0.489   2.109 -0.2081 -2.0645 -0.3709
11598SOL     OW39640   6.193   1.114   3.164  0.0150 -0.5609  0.1069
11598SOL    HW139641   6.261   1.069   3.215 -0.1070 -1.0512 -0.1653
11598SOL    HW239642   6.181   1.059   3.087 -0.6384 -0.4336  0.1188
11599SOL     OW39643   4.751   0.854   1.821 -0.0384  0.6068 -0.7231
11599SOL    HW139644   4.662   0.831   1.795 -0.3768 -0.6991  1.4741
11599SOL    HW239645   4.800   0.772   1.814  0.2866  0.6462  0.8549
11600SOL     OW39646   4.199   1.071   4.366  0.4936 -0.0063 -0.6268
11600SOL    HW139647   4.143   1.118   4.303 -2.3678 -0.4748  1.4663
11600SOL    HW239648   4.198   0.981   4.336 -0.4514 -0.1347 -0.2330
11601SOL     OW39649   3.877   1.771   4.023 -0.2823  0.0600 -0.2281
11601SOL    HW139650   3.783   1.761   4.004 -0.0775  0.0822 -1.3066
11601SOL    HW239651   3.884   1.758   4.117 -1.6730  2.2095  0.2340
11602SOL     OW39652   6.925   1.402   2.445 -0.8775 -0.1401 -0.2703
11602SOL    HW139653   6.954   1.459   2.373 -0.3294  0.2801  0.2740
11602SOL    HW239654   6.957   1.315   2.421 -0.5229  0.0359 -0.4392
11603SOL     OW39655   5.011   9.502   0.799 -0.4377  0.1606  0.2439
11603SOL    HW139656   4.978   9.590   0.819  1.3177  0.7792  0.4286
11603SOL    HW239657   4.969   9.479   0.716 -0.0808  1.6013 -0.3400
11604SOL     OW39658   3.257   1.193   2.283  0.4218  0.0015  0.5055
11604SOL    HW139659   3.319   1.179   2.212 -0.2896 -1.9959  0.2412
11604SOL    HW239660   3.175   1.215   2.239  0.9618  3.0281  0.8610
11605SOL     OW39661   6.956   0.650   2.365  0.1869  0.1905  0.3444
11605SOL    HW139662   6.996   0.710   2.302 -0.0185  0.9411  0.9148
11605SOL    HW239663   6.951   0.566   2.320  0.9349  0.4887 -0.2886
11606SOL     OW39664   4.965   1.180   3.771  0.0814 -0.1868  0.5010
11606SOL    HW139665   4.893   1.137   3.726  0.3447 -0.7646  0.6155
11606SOL    HW239666   4.943   1.273   3.771 -1.2820 -0.4918  1.6668
11607SOL     OW39667   3.533   2.038   3.999  0.7254 -0.3816  0.0152
11607SOL    HW139668   3.446   2.060   3.967  0.4265  0.4229  1.3313
11607SOL    HW239669   3.549   1.949   3.968 -0.7124 -0.6710  0.0801
11608SOL     OW39670   6.403   1.012   3.317  0.0696 -0.5567  0.1541
11608SOL    HW139671   6.419   1.005   3.411  1.9692  2.2229  0.0700
11608SOL    HW239672   6.481   0.974   3.276  1.3465  2.3620 -0.2469
11609SOL     OW39673   4.594   9.707   0.917  0.3178  0.1165 -0.2767
11609SOL    HW139674   4.658   9.773   0.890  1.5908 -1.2560 -0.7350
11609SOL    HW239675   4.515   9.756   0.940  1.2027  1.7630 -0.7348
11610SOL     OW39676   5.188   1.751   3.639 -0.2938 -0.5624  0.7140
11610SOL    HW139677   5.193   1.737   3.733 -0.0640 -1.0156  0.6369
11610SOL    HW239678   5.267   1.800   3.618  0.5748 -2.0049  0.4963
11611SOL     OW39679   3.220   1.252   1.016  0.8272 -0.4448 -0.1581
11611SOL    HW139680   3.304   1.245   0.970  0.8290  4.1037 -1.0293
11611SOL    HW239681   3.244   1.248   1.109  1.4382 -3.6654 -0.3732
11612SOL     OW39682   4.770   0.103   2.421 -0.5736  0.2148 -0.6659
11612SOL    HW139683   4.862   0.104   2.395 -0.6254  1.9341 -0.8235
11612SOL    HW239684   4.755   0.189   2.461 -1.6467 -0.7126  1.0139
11613SOL     OW39685   4.339   1.308   3.565 -0.0140 -0.1166  0.5564
11613SOL    HW139686   4.316   1.301   3.657 -0.7770 -1.9987  0.2354
11613SOL    HW239687   4.434   1.296   3.563 -0.2004 -1.7200  0.9393
11614SOL     OW39688   3.321   1.184   3.095  0.2511 -0.4475  0.0780
11614SOL    HW139689   3.296   1.091   3.090 -0.4464 -0.1770 -2.0316
11614SOL    HW239690   3.259   1.228   3.037 -0.1598  1.5249  1.9229
11615SOL     OW39691   5.640   9.702   1.782 -0.0409 -0.2111 -0.8179
11615SOL    HW139692   5.622   9.622   1.731 -2.1832 -1.0881  1.2462
11615SOL    HW239693   5.560   9.754   1.775 -0.0629  0.0286  0.9352
11616SOL     OW39694   2.821   2.759   2.977  0.1144 -0.7836  0.0409
11616SOL    HW139695   2.857   2.693   3.037 -1.0017 -1.6481 -0.2428
11616SOL    HW239696   2.896   2.816   2.957  1.6080 -3.1355 -1.3161
11617SOL     OW39697   6.983   9.721   1.911  0.2307  0.3137  0.4573
11617SOL    HW139698   6.986   9.632   1.945 -1.2053  0.4112  0.8330
11617SOL    HW239699   6.982   9.777   1.989 -2.4375  0.5513  0.2851
11618SOL     OW39700   5.552   2.680   3.504  0.0588  0.0160 -0.3089
11618SOL    HW139701   5.629   2.718   3.462 -0.6818  3.1841  1.0806
11618SOL    HW239702   5.580   2.660   3.593 -0.7477  1.3243  0.2480
11619SOL     OW39703   5.381   0.881   3.513  0.2635 -0.4251 -0.3065
11619SOL    HW139704   5.316   0.946   3.541 -0.7283 -1.7759  0.5669
11619SOL    HW239705   5.343   0.841   3.435  0.3802 -0.7141 -0.2146
11620SOL     OW39706   4.041   2.064   2.456  0.4502  0.1372  0.0589
11620SOL    HW139707   4.039   2.041   2.363 -1.9132  0.1997  0.0639
11620SOL    HW239708   3.949   2.069   2.482  1.0513  1.1901  2.1481
11621SOL     OW39709   6.038   1.016   2.484 -0.1690  0.9347 -0.1483
11621SOL    HW139710   6.072   0.992   2.570  0.0300  1.2547 -0.1367
11621SOL    HW239711   6.024   0.932   2.439  1.7560  0.8300 -0.5811
11622SOL     OW39712   5.430   0.952   2.655 -0.0762  0.6478 -0.0675
11622SOL    HW139713   5.423   0.918   2.565  1.2402  0.4069 -0.0783
11622SOL    HW239714   5.509   1.006   2.655 -0.3227  1.0228  0.8344
11623SOL     OW39715   4.190   3.075   2.332 -0.6914 -0.3587 -0.7537
11623SOL    HW139716   4.245   3.001   2.358 -1.9767 -1.5455 -1.3279
11623SOL    HW239717   4.129   3.086   2.405 -1.2006 -0.5832 -1.1416
11624SOL     OW39718   5.390   1.453   3.023 -0.5296  0.2648 -0.1342
11624SOL    HW139719   5.304   1.495   3.034 -0.7612  0.0595 -1.1096
11624SOL    HW239720   5.387   1.378   3.083 -0.9636  0.3587 -0.0314
11625SOL     OW39721   4.904   0.810   0.691 -0.2038  0.1487  0.5176
11625SOL    HW139722   4.952   0.768   0.620 -0.4345 -1.0382  1.0537
11625SOL    HW239723   4.937   0.769   0.771 -0.8336  0.5826  1.0135
11626SOL     OW39724   5.297   2.297   1.039  0.2417 -0.1085  0.1113
11626SOL    HW139725   5.233   2.229   1.020  0.5830  0.0406 -1.7395
11626SOL    HW239726   5.371   2.251   1.078  0.3912 -0.7889 -0.9530
11627SOL     OW39727   4.959   1.657   1.947 -0.1852  0.2839  0.3999
11627SOL    HW139728   4.931   1.720   2.013 -0.7601  1.5802 -1.0368
11627SOL    HW239729   5.043   1.691   1.916  1.2275 -1.5741  2.0626
11628SOL     OW39730   3.505   0.934   2.898  0.6295 -0.0792  0.2888
11628SOL    HW139731   3.497   0.865   2.833  1.5190  1.4918 -1.5284
11628SOL    HW239732   3.598   0.933   2.923  0.6610  0.5264  0.1933
11629SOL     OW39733   5.327   0.278   2.707  0.1098 -0.1133 -0.5449
11629SOL    HW139734   5.301   0.311   2.793  1.6662 -0.7667  0.1872
11629SOL    HW239735   5.341   0.184   2.721 -1.4627 -0.5846 -1.9460
11630SOL     OW39736   5.197   1.288   4.758  0.2833  0.3244 -0.8001
11630SOL    HW139737   5.146   1.280   4.678  0.1295 -1.7330 -0.5238
11630SOL    HW239738   5.165   1.218   4.814  1.7636  0.4924  0.2942
11631SOL     OW39739   4.169   0.265   0.874 -0.6373 -0.1263  0.2563
11631SOL    HW139740   4.080   0.285   0.844 -0.7405  0.0631  0.6914
11631SOL    HW239741   4.163   0.175   0.906 -0.8519  0.1500  0.9974
11632SOL     OW39742   4.851   0.357   3.390 -0.3977  0.4840 -0.4265
11632SOL    HW139743   4.940   0.382   3.365  0.0444 -0.8279 -0.2227
11632SOL    HW239744   4.808   0.440   3.412  0.9732  1.0711  0.1159
11633SOL     OW39745   3.327   0.780   1.800  0.2356  0.0484  0.2147
11633SOL    HW139746   3.368   0.785   1.886  0.7429 -0.9001  0.0365
11633SOL    HW239747   3.296   0.869   1.783  2.2534  0.8175  0.3375
11634SOL     OW39748   3.545   9.969   3.822 -0.2324  0.1662 -0.2652
11634SOL    HW139749   3.475  10.034   3.825 -0.0558  0.4746 -2.1055
11634SOL    HW239750   3.622  10.013   3.858 -0.7048  0.1662  0.7659
11635SOL     OW39751   5.122   1.430   2.366 -0.4562  0.2548 -0.5524
11635SOL    HW139752   5.072   1.364   2.415  0.7098 -0.9143 -0.9057
11635SOL    HW239753   5.060   1.502   2.353 -1.3279 -0.1699  1.0648
11636SOL     OW39754   4.887   0.579   4.071 -0.8716 -0.1009 -0.2275
11636SOL    HW139755   4.961   0.527   4.039 -1.4216  0.1955 -2.0478
11636SOL    HW239756   4.853   0.623   3.993 -0.4214  3.0268  1.2569
11637SOL     OW39757   6.573   1.845   3.286 -0.0332  0.0649 -0.1705
11637SOL    HW139758   6.515   1.769   3.290  0.4619 -0.3079  0.0065
11637SOL    HW239759   6.514   1.919   3.275 -0.6526 -0.1428  1.5706
11638SOL     OW39760   4.758   9.034   0.134 -0.2245 -0.5164  0.1235
11638SOL    HW139761   4.679   9.023   0.187 -0.1912  0.6584  0.4443
11638SOL    HW239762   4.829   9.041   0.198  0.0035 -0.5056 -0.1299
11639SOL     OW39763   4.557   9.924   3.673  0.3451 -0.2452  0.3297
11639SOL    HW139764   4.582   9.890   3.587 -3.1745 -0.9584 -0.5146
11639SOL    HW239765   4.638   9.954   3.712  2.0439 -0.0066 -3.2166
11640SOL     OW39766   5.033   0.966   2.541  0.5744  0.0697  0.4842
11640SOL    HW139767   5.067   1.052   2.564 -1.6125  0.9221  0.6642
11640SOL    HW239768   4.985   0.980   2.459 -1.1019 -0.6209  1.3171
11641SOL     OW39769   4.666   1.265   1.890  0.2943  0.5514  0.1217
11641SOL    HW139770   4.618   1.202   1.943  0.8383  0.0519  0.0228
11641SOL    HW239771   4.598   1.318   1.848 -0.1678 -0.0429  0.1183
11642SOL     OW39772   5.631   1.499   2.913 -0.0153 -0.1280  0.3326
11642SOL    HW139773   5.672   1.432   2.967  1.3565  0.5734  0.1846
11642SOL    HW239774   5.539   1.500   2.941  0.3719 -0.7664  1.6355
11643SOL     OW39775   4.375   0.586   2.873  0.1869 -0.2110  1.0818
11643SOL    HW139776   4.385   0.543   2.789 -0.2237  1.0382  0.3855
11643SOL    HW239777   4.408   0.522   2.937  2.5504 -0.3163 -0.2090
11644SOL     OW39778   4.246   2.700   4.342 -0.3900 -0.6128 -0.1633
11644SOL    HW139779   4.341   2.703   4.335 -0.5302  0.1472 -2.0503
11644SOL    HW239780   4.214   2.731   4.257 -2.3210  0.7207  0.9779
11645SOL     OW39781   4.075   1.967   3.984  0.0488 -0.1665 -0.1354
11645SOL    HW139782   4.005   1.903   3.972 -0.4772  0.5327 -0.8123
11645SOL    HW239783   4.035   2.037   4.035  0.5838 -0.3054  0.4810
11646SOL     OW39784   4.696   9.686   3.200  0.8661 -0.5034 -0.7965
11646SOL    HW139785   4.621   9.671   3.257  1.7810  0.2621  0.6424
11646SOL    HW239786   4.709   9.781   3.201  2.6891 -0.7315  0.1097
11647SOL     OW39787   6.425   0.048   3.929  0.0023  0.1074  0.4021
11647SOL    HW139788   6.379   0.047   3.845  2.0727  2.3049 -0.8391
11647SOL    HW239789   6.485   0.123   3.922  1.6700 -0.9157  3.0577
11648SOL     OW39790   4.897   1.947   2.380  0.4765 -0.0220 -0.1649
11648SOL    HW139791   4.913   1.927   2.472 -0.2940  0.9153  0.1670
11648SOL    HW239792   4.981   1.979   2.348  0.2669  1.3638  0.6588
11649SOL     OW39793   4.205   1.037   1.955 -0.3852 -0.7939  0.1952
11649SOL    HW139794   4.132   1.019   2.014 -0.4141  0.2549  0.4820
11649SOL    HW239795   4.181   0.993   1.873 -1.4946 -0.1607  0.1711
11650SOL     OW39796   2.945   2.259   1.812 -0.4921 -0.3972  0.1769
11650SOL    HW139797   3.039   2.258   1.794 -0.3999  1.0767  0.5207
11650SOL    HW239798   2.920   2.166   1.810  0.8034 -0.7587 -0.7155
11651SOL     OW39799   5.541   9.591   4.217  0.1397  0.2011 -0.0715
11651SOL    HW139800   5.616   9.636   4.255 -0.5963  0.2778  1.2881
11651SOL    HW239801   5.536   9.626   4.128  1.7632  0.1364 -0.2108
11652SOL     OW39802   4.606   2.103   2.157  0.0750 -0.5982  0.4141
11652SOL    HW139803   4.597   2.046   2.233  0.0788 -1.0228  0.1001
11652SOL    HW239804   4.590   2.191   2.190  2.0719 -0.5462  1.3222
11653SOL     OW39805   2.927   0.092   3.465 -0.1716 -0.0122  0.1835
11653SOL    HW139806   2.937  -0.000   3.440  1.1300 -0.6872  3.0185
11653SOL    HW239807   3.006   0.135   3.429 -1.0819  0.1685 -1.6791
11654SOL     OW39808   5.104   1.406   4.524  0.8126  0.5688 -0.2598
11654SOL    HW139809   5.058   1.454   4.456 -0.1122  1.1714  0.7715
11654SOL    HW239810   5.144   1.332   4.479  0.2539  0.9914 -1.4558
11655SOL     OW39811   5.481   8.848   3.538  0.7651 -0.3282 -0.0913
11655SOL    HW139812   5.534   8.882   3.466 -0.3587  0.1538 -0.6989
11655SOL    HW239813   5.405   8.906   3.542  1.2319  0.2112  2.0700
11656SOL     OW39814   7.204   2.597   3.684  0.7643  0.1828 -0.2843
11656SOL    HW139815   7.240   2.561   3.603  3.0821  0.4597  0.5801
11656SOL    HW239816   7.208   2.692   3.672 -1.6558  0.2299 -0.9877
11657SOL     OW39817   5.807   0.272   2.381 -0.2725 -0.4149 -0.0537
11657SOL    HW139818   5.880   0.299   2.325  0.4882 -1.9795  0.1610
11657SOL    HW239819   5.731   0.275   2.323 -0.0302  1.0267 -0.3343
11658SOL     OW39820   4.975   0.303   1.795  0.0495 -0.1846 -0.1998
11658SOL    HW139821   4.934   0.221   1.770  1.1280 -0.6285 -0.5270
11658SOL    HW239822   4.991   0.348   1.712 -0.7695  0.4813 -0.0105
11659SOL     OW39823   4.727   0.234   4.153  0.1390 -0.0882  0.9834
11659SOL    HW139824   4.736   0.328   4.138  0.0745 -0.2890 -0.4752
11659SOL    HW239825   4.775   0.217   4.233  0.5014  1.1269  1.0311
11660SOL     OW39826   4.023   0.895   2.923  0.7756 -0.3590  0.1298
11660SOL    HW139827   4.055   0.863   2.839  0.7159  0.5040 -0.2350
11660SOL    HW239828   4.056   0.832   2.988  0.9848 -0.9195 -0.5170
11661SOL     OW39829   5.275   1.818   2.476  0.3750  0.6818 -0.1402
11661SOL    HW139830   5.261   1.897   2.424 -0.3343  0.9809  0.5058
11661SOL    HW239831   5.188   1.790   2.503  0.6919  0.2189  0.4351
11662SOL     OW39832   4.961   1.067   3.344  0.1321 -0.7217 -0.9862
11662SOL    HW139833   4.959   0.973   3.326  0.3773 -0.5006 -2.2168
11662SOL    HW239834   5.033   1.077   3.406  0.2313 -1.3196 -0.9929
11663SOL     OW39835   4.089   2.548   3.616 -0.3758  0.2302  0.3579
11663SOL    HW139836   4.103   2.469   3.563  0.5637 -0.2374  1.3066
11663SOL    HW239837   4.012   2.528   3.668 -0.5715  0.2249  0.0708
11664SOL     OW39838   3.868   1.233   2.567  0.2928  0.6897  0.2234
11664SOL    HW139839   3.954   1.269   2.588  0.4740 -0.5671  1.7337
11664SOL    HW239840   3.882   1.138   2.561 -0.8761  0.5255 -0.0609
11665SOL     OW39841   6.092   1.207   2.246  0.1842  0.6642 -0.2894
11665SOL    HW139842   6.087   1.152   2.325 -1.4058  2.0930  0.6499
11665SOL    HW239843   6.062   1.151   2.175  1.0130 -0.4471  0.2352
11666SOL     OW39844   4.312   0.977   2.647 -0.0106 -0.1957 -0.2311
11666SOL    HW139845   4.246   0.909   2.638 -1.3126  1.0981 -0.7597
11666SOL    HW239846   4.288   1.023   2.727  0.1455  0.3661 -0.4994
11667SOL     OW39847   5.717   9.356   1.584  0.2101 -0.2974  0.2385
11667SOL    HW139848   5.806   9.346   1.616  0.3429 -1.5875 -0.5376
11667SOL    HW239849   5.675   9.271   1.601 -0.5047 -0.1123 -0.5339
11668SOL     OW39850   4.381   2.176   3.343 -0.5889 -0.3335 -0.4797
11668SOL    HW139851   4.406   2.136   3.427 -2.1228  1.7876  1.0344
11668SOL    HW239852   4.299   2.132   3.319  0.8471 -2.3347 -1.9208
11669SOL     OW39853   4.644   0.784   2.713  0.2691  0.0337  0.3980
11669SOL    HW139854   4.672   0.757   2.800  2.7031  1.7114  0.2009
11669SOL    HW239855   4.671   0.711   2.656 -0.7661 -0.7855  0.9332
11670SOL     OW39856   5.505   1.137   4.401  0.5258 -0.3572  0.3974
11670SOL    HW139857   5.582   1.144   4.457  2.0147  2.5753 -1.9032
11670SOL    HW239858   5.538   1.097   4.320 -0.4881  0.3150 -0.3611
11671SOL     OW39859   2.746   1.578   3.388  0.0651  0.1462 -0.0346
11671SOL    HW139860   2.730   1.636   3.313 -0.4143  0.2514  0.1461
11671SOL    HW239861   2.663   1.533   3.401  0.1878  0.0312  0.3500
11672SOL     OW39862   4.597   1.506   2.337  0.2599  0.3235 -0.2725
11672SOL    HW139863   4.644   1.463   2.266 -1.4316 -0.7320 -0.7980
11672SOL    HW239864   4.526   1.554   2.294 -0.0090  0.7211  0.5941
11673SOL     OW39865   4.306   0.221   2.889 -0.4343  0.6371  0.5402
11673SOL    HW139866   4.319   0.265   2.805  1.2698 -1.4484 -0.3286
11673SOL    HW239867   4.368   0.264   2.949  1.0397 -0.3767 -0.2389
11674SOL     OW39868   5.993   1.840   2.476  0.1245 -0.0567  0.2392
11674SOL    HW139869   6.056   1.874   2.539  0.3685  0.0451 -0.0545
11674SOL    HW239870   6.047   1.795   2.410  0.1323  2.2209 -1.3946
11675SOL     OW39871   3.288   0.927   3.067 -0.2930  0.0002 -0.1531
11675SOL    HW139872   3.368   0.926   3.016  0.3267  0.7146  0.7980
11675SOL    HW239873   3.229   0.867   3.020  0.2212  0.7087 -1.7382
11676SOL     OW39874   4.276   1.386   2.212  0.2531 -0.0140 -0.1349
11676SOL    HW139875   4.218   1.320   2.176  1.1277 -0.0265 -1.5663
11676SOL    HW239876   4.360   1.341   2.223  0.5902  0.5837 -0.2127
11677SOL     OW39877   4.232   1.145   2.863  0.0039 -0.3663  0.3940
11677SOL    HW139878   4.181   1.078   2.908 -0.3946  1.2796  2.5374
11677SOL    HW239879   4.281   1.189   2.934  1.6010  0.4465 -1.1629
11678SOL     OW39880   6.840   2.074   3.145 -0.0977  0.4588 -0.5967
11678SOL    HW139881   6.850   2.070   3.241 -0.0893 -0.9622 -0.6411
11678SOL    HW239882   6.827   1.983   3.119 -0.0041  0.8285 -1.9654
11679SOL     OW39883   5.017   0.648   2.278  0.4036 -0.1500 -0.0493
11679SOL    HW139884   4.926   0.676   2.265  0.5454  0.3171 -0.0314
11679SOL    HW239885   5.013   0.553   2.272 -0.3201 -0.2244  1.3519
11680SOL     OW39886   5.989   9.711   1.519  0.5249 -0.6232  0.2752
11680SOL    HW139887   5.913   9.686   1.466 -0.3427  1.2673  0.5606
11680SOL    HW239888   5.963   9.691   1.609 -0.1328  1.0892  0.4940
11681SOL     OW39889   5.672   1.284   3.946 -0.2019 -0.5663  0.4488
11681SOL    HW139890   5.742   1.235   3.988  0.2346 -0.4965 -0.1825
11681SOL    HW239891   5.594   1.230   3.959  0.1555 -1.1285  0.2975
11682SOL     OW39892   5.209   2.508   2.595  0.3079 -0.0176  0.2684
11682SOL    HW139893   5.124   2.501   2.552  0.9732 -0.1072 -1.0454
11682SOL    HW239894   5.187   2.528   2.687 -1.1160  0.6201 -0.1816
11683SOL     OW39895   4.929   2.225   2.239 -0.4387 -0.6750 -0.4997
11683SOL    HW139896   4.858   2.242   2.300 -1.4925 -0.9779 -1.6284
11683SOL    HW239897   4.940   2.129   2.241  2.4199 -0.3467  2.4242
11684SOL     OW39898   6.306   0.574   0.837  0.3375  0.2512  0.0718
11684SOL    HW139899   6.285   0.548   0.748 -1.9219  0.2343  0.5859
11684SOL    HW239900   6.366   0.648   0.827 -0.0608  0.3811 -1.4569
11685SOL     OW39901   4.525   0.482   0.979  0.6648  0.0675 -0.6637
11685SOL    HW139902   4.564   0.415   1.036  3.7937  1.4191 -1.1201
11685SOL    HW239903   4.594   0.503   0.916 -1.0892  2.0339 -1.9839
11686SOL     OW39904   3.905   0.905   1.931  0.3504 -0.4404 -0.2237
11686SOL    HW139905   3.966   0.904   2.004 -0.9432 -1.2015  0.8774
11686SOL    HW239906   3.856   0.987   1.942  0.2317 -0.4998 -0.3087
11687SOL     OW39907   4.569   9.311   2.654  0.3888  0.1576 -0.2126
11687SOL    HW139908   4.657   9.340   2.629 -0.3754  0.5779 -2.4967
11687SOL    HW239909   4.513   9.387   2.638 -0.4262 -0.1268  1.1885
11688SOL     OW39910   3.827   9.916   3.680 -0.2778 -0.1710  0.3837
11688SOL    HW139911   3.838   9.836   3.731 -2.2422 -0.4444  0.4187
11688SOL    HW239912   3.804   9.983   3.744 -1.8010 -0.3000 -0.0012
11689SOL     OW39913   4.520   1.558   1.477  0.5193  0.2255  0.1996
11689SOL    HW139914   4.607   1.530   1.448 -0.7730 -2.4080 -1.3176
11689SOL    HW239915   4.502   1.636   1.424  0.1843 -1.7639 -2.7058
11690SOL     OW39916   2.729   1.286   2.109 -0.0393  0.1979 -0.4695
11690SOL    HW139917   2.708   1.366   2.060 -2.4804 -0.6046 -0.8144
11690SOL    HW239918   2.708   1.215   2.049 -1.8138 -0.7760  1.2471
11691SOL     OW39919   4.544   1.484   2.763 -0.3172  0.5178  0.2168
11691SOL    HW139920   4.581   1.402   2.730  1.3195  0.4554  2.0833
11691SOL    HW239921   4.619   1.544   2.764 -1.4553  1.9844 -0.9115
11692SOL     OW39922   4.910   9.875   2.510 -0.4883 -0.0826 -0.3408
11692SOL    HW139923   4.956   9.944   2.559  3.6829 -0.8283 -2.9799
11692SOL    HW239924   4.842   9.921   2.461  0.6887  1.8424 -0.2057
11693SOL     OW39925   5.009   9.766   0.934  0.8099 -0.9196 -0.1196
11693SOL    HW139926   5.103   9.756   0.949  1.6994  4.7654 -0.6303
11693SOL    HW239927   4.974   9.794   1.019  0.0489 -0.5956 -0.5330
11694SOL     OW39928   4.468   0.724   4.150  0.2422  0.0106 -0.1724
11694SOL    HW139929   4.449   0.643   4.198  0.9207  0.8970  1.6529
11694SOL    HW239930   4.409   0.722   4.075  0.2178 -2.1557 -0.1348
11695SOL     OW39931   3.534   1.347   3.795 -0.2125 -0.1569 -0.8524
11695SOL    HW139932   3.514   1.299   3.876 -1.6052 -0.7426 -1.5292
11695SOL    HW239933   3.629   1.353   3.793 -0.2006  1.0361  1.5212
11696SOL     OW39934   4.325   2.047   1.464 -0.1637  0.3537  0.5048
11696SOL    HW139935   4.249   2.069   1.409 -0.0589  1.8275  0.9398
11696SOL    HW239936   4.287   2.020   1.548 -0.2389  0.2193  0.4280
11697SOL     OW39937   4.751   0.717   2.283 -0.3128 -0.7222 -0.8511
11697SOL    HW139938   4.742   0.688   2.374  1.0061 -1.2287 -0.8702
11697SOL    HW239939   4.720   0.807   2.283  0.3314 -0.4965  0.2517
11698SOL     OW39940   5.289   0.047   2.377  0.1337  0.5621  0.4442
11698SOL    HW139941   5.278   0.141   2.395 -1.0113  0.3596  0.8125
11698SOL    HW239942   5.221   0.004   2.428  1.1548 -0.5493  0.9027
11699SOL     OW39943   4.238   1.284   3.833 -0.3961  0.6451  0.3119
11699SOL    HW139944   4.195   1.199   3.843  0.4681  0.3086  1.3575
11699SOL    HW239945   4.167   1.348   3.834 -0.8971  0.0742  1.5863
11700SOL     OW39946   3.669   0.837   4.059  0.7910 -0.0865 -0.2509
11700SOL    HW139947   3.689   0.774   4.128  0.1619  0.2475  0.2393
11700SOL    HW239948   3.729   0.815   3.987  0.9779 -0.8574  0.1472
11701SOL     OW39949   5.000   0.355   2.542 -0.0343  0.3411  0.3358
11701SOL    HW139950   4.923   0.371   2.487  1.4236  0.0341 -1.8551
11701SOL    HW239951   4.985   0.408   2.620 -1.9166  1.2041 -0.5718
11702SOL     OW39952   6.563   0.309   1.978  0.4870  0.3253  0.6228
11702SOL    HW139953   6.599   0.320   2.066  3.1465 -0.8508 -0.2474
11702SOL    HW239954   6.586   0.390   1.933  0.0346  0.5092  0.7260
11703SOL     OW39955   6.198   1.986   2.581  0.0863  0.3219  0.1335
11703SOL    HW139956   6.278   1.935   2.596 -0.5933 -0.0829  2.5372
11703SOL    HW239957   6.224   2.076   2.597  0.0457  0.1790  1.0211
11704SOL     OW39958   4.225   2.814   4.081  0.1406  0.4968 -0.4459
11704SOL    HW139959   4.176   2.890   4.049 -1.8086 -0.7160 -0.4214
11704SOL    HW239960   4.207   2.746   4.016 -0.7726 -0.8916  1.2434
11705SOL     OW39961   4.519   1.422   4.524 -0.4430  0.1474  0.6934
11705SOL    HW139962   4.516   1.327   4.534 -1.0117  0.2120  1.1367
11705SOL    HW239963   4.542   1.455   4.611 -0.7234  0.4412  0.6565
11706SOL     OW39964   5.814   9.957   4.602  1.1178  0.2476  0.0555
11706SOL    HW139965   5.733   9.972   4.553  2.0937  0.4768 -1.5001
11706SOL    HW239966   5.803   9.871   4.641  0.0430  0.3646  0.0258
11707SOL     OW39967   5.315   3.382   1.940  0.5407  0.5330 -0.0052
11707SOL    HW139968   5.300   3.299   1.895  0.0452  0.9950 -0.7052
11707SOL    HW239969   5.321   3.359   2.033 -2.1965  0.0104  0.0915
11708SOL     OW39970   4.495   2.623   4.334 -0.2125  0.6657 -0.3240
11708SOL    HW139971   4.584   2.593   4.353 -0.8294 -1.2852 -0.3665
11708SOL    HW239972   4.500   2.657   4.244  0.0924 -1.2036 -1.0359
11709SOL     OW39973   6.121   0.660   1.978  0.0582  0.3370 -0.3827
11709SOL    HW139974   6.064   0.583   1.979  2.8526 -1.7988 -0.5093
11709SOL    HW239975   6.101   0.703   1.895  0.4707 -1.8273 -1.6468
11710SOL     OW39976   4.640   0.650   3.185 -0.2803  0.1895 -0.6475
11710SOL    HW139977   4.548   0.636   3.208 -0.3892 -0.2279 -1.3084
11710SOL    HW239978   4.677   0.697   3.260 -0.3493 -2.0686  0.8389
11711SOL     OW39979   7.070   2.557   2.111  0.0379  0.0425  0.2512
11711SOL    HW139980   6.983   2.536   2.146  0.1888 -1.2838 -0.1341
11711SOL    HW239981   7.072   2.514   2.026  1.0208  0.2094  0.1848
11712SOL     OW39982   4.689   1.274   2.650 -0.3668  0.2860  0.0830
11712SOL    HW139983   4.648   1.188   2.645 -0.4399  0.3375 -0.1878
11712SOL    HW239984   4.759   1.272   2.585 -0.4974  0.5008 -0.0679
11713SOL     OW39985   4.248   0.197   1.583 -0.2632 -0.0668 -0.5217
11713SOL    HW139986   4.344   0.202   1.582 -0.3888  2.4673 -0.8158
11713SOL    HW239987   4.227   0.140   1.509  0.9825 -0.0186 -0.9261
11714SOL     OW39988   5.647   0.005   3.376  0.7908 -0.6098  0.2416
11714SOL    HW139989   5.732   0.023   3.417  0.5164  0.8517  0.1782
11714SOL    HW239990   5.666  -0.002   3.283  1.0022 -1.3489  0.3349
11715SOL     OW39991   6.290   1.672   3.176 -0.1409 -0.2809  0.4877
11715SOL    HW139992   6.277   1.697   3.268  1.5447  0.6850  0.4790
11715SOL    HW239993   6.210   1.623   3.153 -1.3195  0.9000  1.9567
11716SOL     OW39994   3.967   1.394   1.818 -0.1658 -0.4047 -0.3199
11716SOL    HW139995   3.914   1.353   1.886 -0.0172 -2.8929 -1.6672
11716SOL    HW239996   3.915   1.385   1.738  1.1402 -0.5475 -1.1742
11717SOL     OW39997   4.784   9.061   2.101  0.6825 -0.1248 -0.1434
11717SOL    HW139998   4.868   9.024   2.075  0.5764 -0.0698 -0.5654
11717SOL    HW239999   4.721   9.023   2.040  0.3466 -0.4574  0.4033
11718SOL     OW40000   5.716   1.379   1.825 -0.4078  0.4469  0.4013
11718SOL    HW140001   5.764   1.436   1.765  1.1981 -2.1780 -0.9023
11718SOL    HW240002   5.624   1.385   1.797 -0.0956  1.5641 -0.3664
11719SOL     OW40003   4.175   1.204   4.911 -0.0310 -0.5671 -0.2747
11719SOL    HW140004   4.151   1.135   4.849  1.7702 -1.5197  0.0546
11719SOL    HW240005   4.111   1.274   4.895 -1.4583 -2.0284 -1.0832
11720SOL     OW40006   4.581   1.029   2.629  0.6089 -0.1064 -0.1303
11720SOL    HW140007   4.487   1.019   2.613  0.4151  2.1946 -0.7409
11720SOL    HW240008   4.611   0.942   2.655 -1.7058 -0.8536  0.1700
11721SOL     OW40009   2.065   1.931   3.179 -0.4957 -0.0573 -1.0043
11721SOL    HW140010   2.033   1.972   3.098 -0.7479  0.6520 -0.5505
11721SOL    HW240011   1.985   1.908   3.227 -0.3519 -1.0110 -1.2206
11722SOL     OW40012   6.349   0.072   3.648 -0.4864  0.0044 -0.1701
11722SOL    HW140013   6.327   0.161   3.676  0.7696  0.6534 -1.1884
11722SOL    HW240014   6.300   0.059   3.567  0.8454  0.4987 -1.0636
11723SOL     OW40015   3.637   1.056   2.246 -0.3381  0.3080 -0.1058
11723SOL    HW140016   3.633   0.960   2.239 -1.6981  0.1945  1.8363
11723SOL    HW240017   3.558   1.086   2.200 -0.3335  0.4483 -0.0216
11724SOL     OW40018   5.955   9.320   2.603 -0.0700 -0.3238 -0.5594
11724SOL    HW140019   6.042   9.316   2.562 -0.2019  0.8278 -0.9667
11724SOL    HW240020   5.915   9.399   2.567 -0.5697  0.1816  1.0637
11725SOL     OW40021   3.705   1.483   2.055 -0.4417  0.1347 -0.2246
11725SOL    HW140022   3.677   1.392   2.061 -2.7451  0.8599  0.5203
11725SOL    HW240023   3.783   1.488   2.111 -1.4188 -0.9412  1.2633
11726SOL     OW40024   4.175   1.475   3.432  0.0082  0.3248  0.4196
11726SOL    HW140025   4.258   1.440   3.465  0.1963  0.9586  0.6154
11726SOL    HW240026   4.152   1.416   3.360  0.8825  0.4402  0.0412
11727SOL     OW40027   4.547   0.885   2.301  0.3201  0.5042  0.4031
11727SOL    HW140028   4.523   0.973   2.330  0.5072  0.6929 -0.0138
11727SOL    HW240029   4.521   0.828   2.374  0.0579  0.8849  0.6105
11728SOL     OW40030   4.484   1.048   1.282 -0.4203  0.3856  0.4313
11728SOL    HW140031   4.568   1.005   1.297  0.6475  1.2318 -2.6066
11728SOL    HW240032   4.424   0.977   1.257 -0.0575  0.0160  0.6175
11729SOL     OW40033   6.242   8.519   2.597  0.2855 -0.2361 -0.4353
11729SOL    HW140034   6.252   8.444   2.656  0.5167  0.3011  0.2247
11729SOL    HW240035   6.325   8.566   2.604  0.2968 -0.1471 -1.1686
11730SOL     OW40036   2.838   0.625   0.352  0.4005  0.1950  0.7671
11730SOL    HW140037   2.838   0.551   0.412  0.6515 -1.1604 -0.8738
11730SOL    HW240038   2.930   0.648   0.341  0.2601  1.4825  2.1318
11731SOL     OW40039   4.902   2.489   1.504  0.4804  0.4362 -0.7960
11731SOL    HW140040   4.843   2.523   1.436 -0.9477 -2.7663 -1.2423
11731SOL    HW240041   4.989   2.501   1.467 -0.0701  2.0431 -1.6419
11732SOL     OW40042   6.328   1.632   2.628  0.0177  0.3741 -0.0805
11732SOL    HW140043   6.350   1.704   2.569 -0.3902  1.4484  1.0459
11732SOL    HW240044   6.404   1.625   2.686  0.8505 -1.3436 -1.3433
11733SOL     OW40045   4.740   0.038   3.949  0.5558 -0.2599  0.1691
11733SOL    HW140046   4.714   0.104   4.013  1.7068  0.5642 -0.1933
11733SOL    HW240047   4.729  -0.045   3.995 -1.0043  0.1665  0.5953
11734SOL     OW40048   6.326   1.312   3.371  0.0117 -0.0545  0.0249
11734SOL    HW140049   6.329   1.216   3.362  0.1022  0.0085 -0.6522
11734SOL    HW240050   6.325   1.344   3.281  0.2029  0.5917  0.2538
11735SOL     OW40051   3.891   2.581   4.298 -0.2998  0.0055  0.1655
11735SOL    HW140052   3.944   2.577   4.378  1.3490  2.0784 -0.7962
11735SOL    HW240053   3.874   2.674   4.285  0.6335 -0.1700 -2.6510
11736SOL     OW40054   5.080   0.452   3.277  0.4645  0.5285  0.3931
11736SOL    HW140055   5.123   0.531   3.308  0.8184  0.6512 -0.3843
11736SOL    HW240056   5.151   0.398   3.242 -0.1775  1.3797 -2.2917
11737SOL     OW40057   5.456   9.470   1.959 -0.6795 -0.4383 -0.8882
11737SOL    HW140058   5.381   9.431   1.916 -1.5967 -2.4151  2.3689
11737SOL    HW240059   5.440   9.565   1.953 -1.5043 -0.6888 -3.4338
11738SOL     OW40060   3.962   1.869   2.665  0.5547  0.5261  0.0714
11738SOL    HW140061   4.026   1.844   2.732  1.1361 -0.6432 -0.8996
11738SOL    HW240062   3.879   1.873   2.713  0.7496 -1.5427  0.6322
11739SOL     OW40063   5.115   0.397   2.047  0.3088 -0.4830 -0.0210
11739SOL    HW140064   5.108   0.413   1.953 -1.8606 -0.4138  0.1263
11739SOL    HW240065   5.026   0.374   2.074  0.8508 -0.2404  2.0652
11740SOL     OW40066   5.223   1.682   2.122 -0.3942 -0.5205  0.4541
11740SOL    HW140067   5.297   1.730   2.161  0.8005 -2.5411  0.7399
11740SOL    HW240068   5.161   1.673   2.194 -0.1058 -0.4436  0.7161
11741SOL     OW40069   6.232   1.405   2.552  0.2658 -0.4889 -0.0417
11741SOL    HW140070   6.136   1.412   2.548  0.3601  0.4157 -0.6506
11741SOL    HW240071   6.263   1.495   2.543  1.2666 -1.0402 -2.3203
11742SOL     OW40072   4.747   1.786   1.560  0.3760  0.1814  0.5017
11742SOL    HW140073   4.679   1.793   1.628 -0.8852  0.6014 -0.7820
11742SOL    HW240074   4.698   1.776   1.478  1.8965 -1.4772 -0.2362
11743SOL     OW40075   5.589   2.554   1.833  0.6528 -0.5876  0.4885
11743SOL    HW140076   5.588   2.565   1.928 -0.6849 -2.1992  0.6707
11743SOL    HW240077   5.662   2.609   1.804 -0.2267  1.5776  2.2236
11744SOL     OW40078   3.252   2.737   3.577 -0.1237 -0.1906 -0.1425
11744SOL    HW140079   3.248   2.761   3.670 -1.5100  1.2733 -0.5539
11744SOL    HW240080   3.183   2.672   3.566  0.0588 -0.3838 -0.1330
11745SOL     OW40081   3.073   0.915   2.277 -0.2836 -0.1901 -0.1770
11745SOL    HW140082   3.065   0.820   2.280  0.8455 -0.3235 -1.1258
11745SOL    HW240083   3.132   0.932   2.204  0.2424  1.1991  0.5497
11746SOL     OW40084   5.596   2.563   2.093 -0.5727 -0.0289  0.1678
11746SOL    HW140085   5.605   2.634   2.156 -1.1554  0.1937  0.0015
11746SOL    HW240086   5.588   2.484   2.147 -1.1672  0.1712  0.3814
11747SOL     OW40087   5.812   9.375   3.633 -0.4705 -0.0075 -0.5374
11747SOL    HW140088   5.738   9.433   3.646  1.0910  1.6924  1.1368
11747SOL    HW240089   5.800   9.306   3.698 -0.8036  0.0322 -0.5563
11748SOL     OW40090   4.345   0.211   3.311  0.2924  0.1527  0.4612
11748SOL    HW140091   4.271   0.235   3.366 -1.7517 -1.2775 -1.5837
11748SOL    HW240092   4.329   0.255   3.228  1.4426 -0.6423 -0.1925
11749SOL     OW40093   5.348   0.563   3.840  0.1485  0.1568  0.5253
11749SOL    HW140094   5.378   0.546   3.930  1.4415  0.9392  0.2584
11749SOL    HW240095   5.341   0.658   3.835  0.7543  0.1558 -0.4077
11750SOL     OW40096   2.292   0.537   4.266 -0.0089 -0.4907 -0.3891
11750SOL    HW140097   2.211   0.514   4.220 -0.9191  0.5156  0.6612
11750SOL    HW240098   2.270   0.531   4.359  0.6554  1.3047 -0.0807
11751SOL     OW40099   3.995   1.103   1.630  0.1826  0.3995  0.1625
11751SOL    HW140100   3.942   1.025   1.615  0.9171 -0.1016  0.1584
11751SOL    HW240101   3.949   1.150   1.699 -0.6898  0.3635 -0.3775
11752SOL     OW40102   5.416   0.842   2.392 -0.1867  0.1754  0.0634
11752SOL    HW140103   5.410   0.755   2.353  2.5307  0.7058 -1.6283
11752SOL    HW240104   5.347   0.892   2.347  0.7478 -0.1027 -1.7297
11753SOL     OW40105   4.481   9.673   2.374 -0.5057 -0.2681 -0.3043
11753SOL    HW140106   4.563   9.713   2.345 -1.0479  0.2756 -1.1031
11753SOL    HW240107   4.473   9.593   2.321  0.7540 -1.6370  1.5387
11754SOL     OW40108   5.637   0.163   0.219 -0.1648  0.4979  0.0626
11754SOL    HW140109   5.652   0.203   0.133 -1.4111 -1.0250 -0.9012
11754SOL    HW240110   5.667   0.073   0.209 -1.5993 -0.0780  0.7777
11755SOL     OW40111   5.938   1.259   2.671 -0.0995  0.3019 -0.0059
11755SOL    HW140112   5.923   1.196   2.601 -1.9578  0.9743 -0.2625
11755SOL    HW240113   5.992   1.213   2.735  3.3673  0.3343 -2.7683
11756SOL     OW40114   5.277   9.512   2.246 -0.4190  0.4446  0.5153
11756SOL    HW140115   5.211   9.453   2.210 -0.9045  0.8834  0.6741
11756SOL    HW240116   5.242   9.600   2.229  0.5724  0.7044 -0.2464
11757SOL     OW40117   4.737   1.687   3.380  0.4211 -0.2130 -0.3405
11757SOL    HW140118   4.702   1.626   3.316  0.3356 -0.2740 -0.2350
11757SOL    HW240119   4.690   1.666   3.461  1.2896 -0.8624  0.0076
11758SOL     OW40120   5.586   0.704   1.182 -0.1323 -0.5748 -1.1050
11758SOL    HW140121   5.502   0.726   1.142  0.0672  1.7192 -0.3010
11758SOL    HW240122   5.569   0.622   1.228 -2.0069 -0.0314 -0.7638
11759SOL     OW40123   3.801   0.927   2.612 -0.0870  0.0810  0.2775
11759SOL    HW140124   3.886   0.892   2.589  0.7483 -0.1302  3.4074
11759SOL    HW240125   3.742   0.852   2.607  0.0789  0.0367 -1.0469
11760SOL     OW40126   4.667   1.179   0.208  0.3173  0.1608 -0.2848
11760SOL    HW140127   4.618   1.227   0.274  1.2463  0.5087  0.1634
11760SOL    HW240128   4.620   1.196   0.126 -0.8004 -0.2189  0.2597
11761SOL     OW40129   2.521   9.457   4.001  0.2190 -0.0245  0.6097
11761SOL    HW140130   2.588   9.517   4.032  1.8286  0.1956 -3.0505
11761SOL    HW240131   2.461   9.512   3.951 -0.7343 -0.8014  0.8806
11762SOL     OW40132   3.731   0.513   3.954  0.1643  0.1069  0.0168
11762SOL    HW140133   3.637   0.513   3.972  0.2035 -1.3111  0.3079
11762SOL    HW240134   3.770   0.558   4.028 -0.3984  2.0226 -0.8177
11763SOL     OW40135   5.005   1.841   4.914  0.4794 -0.5243  0.0306
11763SOL    HW140136   4.934   1.830   4.851  0.9451  0.2359 -0.6430
11763SOL    HW240137   5.068   1.899   4.870  1.2084 -0.6583  0.8669
11764SOL     OW40138   5.318   2.527   3.954 -0.0355  0.4306 -0.7333
11764SOL    HW140139   5.368   2.459   3.909  0.9144  0.6094  0.0162
11764SOL    HW240140   5.231   2.525   3.914 -0.1475 -1.5196 -0.4209
11765SOL     OW40141   3.765   0.714   3.145 -0.0804  0.5401 -0.3373
11765SOL    HW140142   3.852   0.681   3.122 -0.0453  0.9651 -0.8252
11765SOL    HW240143   3.742   0.668   3.226  0.6318  0.4868 -0.1663
11766SOL     OW40144   5.304   9.667   4.080  0.1564  0.1608 -0.1549
11766SOL    HW140145   5.369   9.635   4.017  0.2198 -0.9452  0.4440
11766SOL    HW240146   5.331   9.757   4.099  1.4804 -0.2638  0.0279
11767SOL     OW40147   4.641   0.871   4.469  0.4377 -0.6430  0.9067
11767SOL    HW140148   4.663   0.927   4.544 -0.2255  0.5795  0.1937
11767SOL    HW240149   4.554   0.837   4.489  0.0207  0.1291  0.4496
11768SOL     OW40150   4.156   1.224   7.433 -0.7111 -0.0025  0.4785
11768SOL    HW140151   4.181   1.248   7.344 -2.3313 -1.0963 -0.2795
11768SOL    HW240152   4.218   1.272   7.488  0.5718  0.3634 -1.2323
11769SOL     OW40153   4.235   0.857   4.804 -0.5388 -0.5787 -0.1102
11769SOL    HW140154   4.276   0.773   4.826 -1.7469 -0.8801  1.0396
11769SOL    HW240155   4.179   0.838   4.729 -0.0625 -0.5812 -0.4681
11770SOL     OW40156   4.279   2.329   5.317 -0.3030  0.0775 -0.0832
11770SOL    HW140157   4.274   2.250   5.370  1.1376 -1.0964 -1.6312
11770SOL    HW240158   4.329   2.391   5.369  1.5872 -1.2500 -0.2489
11771SOL     OW40159   4.036   1.666   4.839  0.2799  0.0317 -0.4458
11771SOL    HW140160   4.058   1.702   4.925 -0.8038 -0.3116 -0.0248
11771SOL    HW240161   4.012   1.742   4.786  1.0814  0.2581 -0.4952
11772SOL     OW40162   5.315   1.590   5.524  0.2497  0.2082  0.0233
11772SOL    HW140163   5.255   1.584   5.449 -0.3918  0.9065  0.4632
11772SOL    HW240164   5.283   1.525   5.586  0.1369  0.3541  0.1209
11773SOL     OW40165   4.692   9.572   5.241 -0.3017 -0.0865 -0.3544
11773SOL    HW140166   4.697   9.585   5.336 -1.1375 -0.0829 -0.3070
11773SOL    HW240167   4.716   9.657   5.203  1.1449 -0.4036 -0.1695
11774SOL     OW40168   4.193   0.522   4.353  0.1959 -0.0001  0.3448
11774SOL    HW140169   4.255   0.583   4.393 -0.4701  0.7674  0.2064
11774SOL    HW240170   4.166   0.465   4.425  0.3568  0.2562  0.6076
11775SOL     OW40171   5.505   1.106   3.117  0.1768  0.2177 -0.4646
11775SOL    HW140172   5.577   1.154   3.076 -0.1875 -0.3182 -1.7777
11775SOL    HW240173   5.452   1.075   3.043 -0.3582 -1.0041  0.4138
11776SOL     OW40174   4.958   0.670   6.106  0.3367  0.2161  0.4681
11776SOL    HW140175   4.896   0.599   6.120 -0.6456  0.5559 -2.0280
11776SOL    HW240176   4.921   0.744   6.154 -0.5869  0.0871 -0.0390
11777SOL     OW40177   4.177   2.158   2.719 -0.5346 -0.0839  0.2888
11777SOL    HW140178   4.136   2.107   2.649  0.8414 -2.0713  0.8669
11777SOL    HW240179   4.215   2.092   2.776  1.6688  1.6280  0.8529
11778SOL     OW40180   3.848   0.499   3.319 -0.1753 -0.1145  0.3469
11778SOL    HW140181   3.941   0.517   3.334  0.3674 -2.0364 -0.6074
11778SOL    HW240182   3.842   0.404   3.319 -2.1876 -0.0019  0.5905
11779SOL     OW40183   2.300   0.365   2.742 -0.2318 -0.3702  0.7437
11779SOL    HW140184   2.241   0.296   2.710 -1.3417  1.1087 -0.4206
11779SOL    HW240185   2.310   0.425   2.668  0.5336  0.8586  1.8257
11780SOL     OW40186   2.245   0.147   2.323 -0.3972 -0.3831 -0.2666
11780SOL    HW140187   2.325   0.176   2.367 -1.1837  0.2992  0.7134
11780SOL    HW240188   2.258   0.053   2.309  1.7880  0.2070 -2.6386
11781SOL     OW40189   4.918   0.495   3.696  0.1743  0.3020 -0.1104
11781SOL    HW140190   4.875   0.539   3.624  0.2336 -0.1545 -0.4267
11781SOL    HW240191   4.863   0.419   3.715  1.1911 -0.6851 -0.9855
11782SOL     OW40192   4.057   1.046   3.621  0.3207 -0.1930 -0.1776
11782SOL    HW140193   4.058   0.951   3.625  2.1752 -0.1587  0.9243
11782SOL    HW240194   4.071   1.074   3.712 -0.3461  1.1231 -0.4706
11783SOL     OW40195   4.773   0.812   4.755  0.0933  0.1319  0.1792
11783SOL    HW140196   4.793   0.748   4.687  1.7076  1.8019 -1.0066
11783SOL    HW240197   4.805   0.772   4.836 -1.8652 -1.8868 -0.0171
11784SOL     OW40198   5.017   0.073   4.596 -0.3925 -0.6438 -0.3955
11784SOL    HW140199   5.105   0.050   4.628 -0.3208 -1.8063 -1.3931
11784SOL    HW240200   4.964   0.080   4.675  0.4582 -0.5521  0.1717
11785SOL     OW40201   2.681   0.850   4.973  0.2598  0.0927 -0.0215
11785SOL    HW140202   2.643   0.783   5.030  0.4297  0.1624  0.1716
11785SOL    HW240203   2.614   0.865   4.906  0.0241  0.0772  0.2123
11786SOL     OW40204   5.059   1.495   3.765 -0.0918  0.2457  0.2864
11786SOL    HW140205   5.094   1.504   3.676 -1.7298  0.1076 -0.3814
11786SOL    HW240206   4.964   1.492   3.754 -0.3097  0.0295  2.0304
11787SOL     OW40207   6.122   0.716   3.464 -0.0461 -0.3669 -0.0349
11787SOL    HW140208   6.182   0.694   3.392  0.0992 -2.2436  0.6322
11787SOL    HW240209   6.151   0.661   3.537 -1.8011 -0.3599  0.6780
11788SOL     OW40210   5.313   9.697   3.325 -0.0277 -0.0386 -0.3587
11788SOL    HW140211   5.257   9.774   3.323  0.9935  0.8395  2.3142
11788SOL    HW240212   5.392   9.724   3.277 -0.7271 -0.3174 -1.6740
11789SOL     OW40213   2.840   1.188   5.374  0.2687  0.3333  0.2518
11789SOL    HW140214   2.867   1.215   5.462  1.1177 -1.6545  0.6487
11789SOL    HW240215   2.749   1.159   5.385  0.1987  0.5981  0.3662
11790SOL     OW40216   5.259   9.882   3.750 -0.1512  0.2160  0.0872
11790SOL    HW140217   5.299   9.915   3.669  1.0154  1.0927  1.0074
11790SOL    HW240218   5.165   9.880   3.730  0.2121 -0.7344 -1.6888
11791SOL     OW40219   6.321   1.595   5.930  0.1313 -0.1681  0.6817
11791SOL    HW140220   6.396   1.614   5.873 -1.3914  0.2767 -1.2215
11791SOL    HW240221   6.320   1.499   5.936 -0.2972 -0.2702 -0.8806
11792SOL     OW40222   4.387   9.664   4.496 -0.0208  0.2828 -0.3231
11792SOL    HW140223   4.409   9.748   4.457  1.0149  1.0311  1.7969
11792SOL    HW240224   4.331   9.685   4.571 -0.8861 -1.0106 -0.5903
11793SOL     OW40225   4.353   1.178   5.527  0.0236 -0.4301  0.1034
11793SOL    HW140226   4.369   1.208   5.616  1.5741 -1.5375  0.2241
11793SOL    HW240227   4.323   1.088   5.537  0.5017 -0.6624 -0.5018
11794SOL     OW40228   5.408   1.969   4.809  0.4017  0.3036  0.2584
11794SOL    HW140229   5.491   1.924   4.825  0.3462 -0.9608 -2.7185
11794SOL    HW240230   5.356   1.906   4.760 -1.5666  1.8469  0.3103
11795SOL     OW40231   4.403   0.345   5.116  0.2322 -0.2531  0.4724
11795SOL    HW140232   4.477   0.295   5.150  0.3107 -0.4852 -0.0303
11795SOL    HW240233   4.443   0.414   5.063  0.1598  0.9792  1.9812
11796SOL     OW40234   6.253   1.775   4.505  0.0626 -0.0651  0.1060
11796SOL    HW140235   6.185   1.743   4.446 -1.2003  2.3816  0.2006
11796SOL    HW240236   6.207   1.832   4.566  1.4490 -2.0837  3.1456
11797SOL     OW40237   3.620   0.776   5.582 -0.2984  0.9160 -0.0407
11797SOL    HW140238   3.701   0.818   5.613  1.8704 -1.9426 -1.6146
11797SOL    HW240239   3.600   0.710   5.649 -0.3849  0.4745 -0.5007
11798SOL     OW40240   4.130   9.739   5.355 -0.3336 -0.8312 -0.0091
11798SOL    HW140241   4.181   9.756   5.276  1.3076 -1.9072  0.7809
11798SOL    HW240242   4.151   9.648   5.378 -1.6795 -0.9022  1.0299
11799SOL     OW40243   5.523   0.286   5.534 -0.5051 -0.0782 -0.0794
11799SOL    HW140244   5.437   0.274   5.573 -0.7336 -1.3255 -0.9201
11799SOL    HW240245   5.555   0.197   5.518 -0.1603  0.3775 -2.1064
11800SOL     OW40246   3.689   9.184   4.626 -0.0010 -0.0926 -0.2062
11800SOL    HW140247   3.727   9.110   4.672 -1.0216 -1.5810 -1.7103
11800SOL    HW240248   3.607   9.202   4.673  0.4455  0.3628  0.4081
11801SOL     OW40249   2.959   0.912   4.214  0.4071  0.1611  0.5025
11801SOL    HW140250   2.880   0.964   4.227  1.1772  1.5433 -0.2417
11801SOL    HW240251   3.004   0.954   4.141  0.3596 -2.3895 -1.0376
11802SOL     OW40252   4.036   8.589   4.551  0.3834 -0.0560 -0.5265
11802SOL    HW140253   4.108   8.601   4.613  0.6960 -1.3380 -0.6332
11802SOL    HW240254   3.974   8.659   4.573  0.4783 -0.4973  1.2274
11803SOL     OW40255   6.025   9.065   3.532  0.1175  0.0306  0.2487
11803SOL    HW140256   6.085   9.121   3.484  0.4123  0.4463  1.0841
11803SOL    HW240257   6.052   9.074   3.624 -1.0161 -0.0251  0.5946
11804SOL     OW40258   5.940   0.302   3.090  0.3745 -0.2037  0.0142
11804SOL    HW140259   5.904   0.390   3.105  0.9166  0.0006  0.1069
11804SOL    HW240260   5.952   0.265   3.178  2.3618  0.5195  0.0542
11805SOL     OW40261   4.989   7.765   6.134 -0.1480  0.7029  0.4424
11805SOL    HW140262   4.918   7.731   6.188 -0.2003  1.9511  1.1655
11805SOL    HW240263   4.946   7.797   6.055 -0.4975  2.2408  1.2458
11806SOL     OW40264   6.415   1.989   3.553 -0.6257  0.5799  0.3093
11806SOL    HW140265   6.469   2.068   3.565  1.1149 -0.2391 -1.7530
11806SOL    HW240266   6.473   1.917   3.580 -1.2360 -0.2004 -0.4629
11807SOL     OW40267   4.555   0.498   4.951  0.4716  0.3029  0.0812
11807SOL    HW140268   4.566   0.501   4.856  0.5991 -1.5259  0.0193
11807SOL    HW240269   4.643   0.483   4.985  0.0307 -1.9192  0.3036
11808SOL     OW40270   5.542   0.601   4.772 -0.0099 -0.1950  0.1984
11808SOL    HW140271   5.546   0.658   4.848 -0.3186 -0.8148  0.6805
11808SOL    HW240272   5.509   0.518   4.805  0.7594 -0.7694 -0.4341
11809SOL     OW40273   5.378   1.758   5.155 -0.1300  0.3763  0.0276
11809SOL    HW140274   5.338   1.733   5.238  0.7973 -0.2280  0.2914
11809SOL    HW240275   5.324   1.714   5.089 -0.5024  0.3714  0.3352
11810SOL     OW40276   8.000   0.899   2.994  0.0749  0.4131 -0.0735
11810SOL    HW140277   8.022   0.855   3.076 -1.4265  1.0578  0.7005
11810SOL    HW240278   7.983   0.990   3.020  0.3286  0.7874 -1.2078
11811SOL     OW40279   4.112   0.869   5.070  0.0324 -0.2350  0.7679
11811SOL    HW140280   4.068   0.832   4.994  0.8026 -0.4344  0.4089
11811SOL    HW240281   4.197   0.824   5.073  0.9800  1.4761  0.3186
11812SOL     OW40282   6.055   3.687   2.966 -0.8754  0.1424  0.3810
11812SOL    HW140283   6.144   3.710   2.938 -1.3972  3.8448  1.5358
11812SOL    HW240284   6.064   3.666   3.059 -0.8746 -1.8570 -0.0377
11813SOL     OW40285   2.743   9.290   3.635 -0.1274  0.5163 -0.3979
11813SOL    HW140286   2.677   9.253   3.576 -1.6538  0.6466  1.1877
11813SOL    HW240287   2.713   9.380   3.650  0.2726  0.4968  0.5472
11814SOL     OW40288   5.388   1.382   2.370  1.0407  0.2655 -0.2384
11814SOL    HW140289   5.295   1.405   2.380  0.7595 -0.7928 -0.3685
11814SOL    HW240290   5.408   1.406   2.279  0.5214 -0.7749 -0.6380
11815SOL     OW40291   4.468   3.483   2.777  0.5312  0.4790 -0.2436
11815SOL    HW140292   4.523   3.418   2.821  1.4071  2.0670  1.0865
11815SOL    HW240293   4.476   3.464   2.684 -1.2940 -2.9414  0.2232
11816SOL     OW40294   4.493   1.064   5.311  0.4952  0.1768  0.5870
11816SOL    HW140295   4.458   1.125   5.376  2.1926  0.5741  1.1479
11816SOL    HW240296   4.537   0.997   5.362  0.6395 -0.2615 -0.1069
11817SOL     OW40297   5.012   1.425   4.016  0.3244  0.2472 -0.0525
11817SOL    HW140298   4.936   1.481   4.000  2.7598  3.6822 -0.1758
11817SOL    HW240299   5.042   1.399   3.929 -0.4758 -0.8505 -0.0146
11818SOL     OW40300   6.789   0.200   5.137 -0.0992  0.1115 -0.5436
11818SOL    HW140301   6.834   0.240   5.211  0.7080 -0.4741 -0.7036
11818SOL    HW240302   6.716   0.152   5.175 -0.4201  0.8449 -0.2478
11819SOL     OW40303   2.321   9.654   4.304  0.4620  0.1581 -0.0856
11819SOL    HW140304   2.387   9.715   4.337 -1.0817  1.2520  1.0096
11819SOL    HW240305   2.372   9.576   4.279  2.1569  0.9182  0.8711
11820SOL     OW40306   5.109   3.105   2.921 -0.0532 -0.3933 -0.3870
11820SOL    HW140307   5.187   3.072   2.875 -0.0759 -0.4542 -0.3826
11820SOL    HW240308   5.125   3.084   3.013 -1.5258 -3.3590 -0.7414
11821SOL     OW40309   4.663   1.640   3.645 -0.0150 -0.5545 -0.1464
11821SOL    HW140310   4.689   1.703   3.712  0.1066  0.6058 -1.2609
11821SOL    HW240311   4.710   1.559   3.668 -2.0068 -0.9965  2.6573
11822SOL     OW40312   4.747   1.274   4.686  0.0303  0.0149  0.2925
11822SOL    HW140313   4.759   1.367   4.702 -0.9390  0.0189  1.0601
11822SOL    HW240314   4.738   1.235   4.773 -2.1663 -0.4188 -0.1065
11823SOL     OW40315   3.293   8.571   3.659  0.0045  0.3064 -0.1761
11823SOL    HW140316   3.212   8.588   3.611 -0.8903 -0.0894  1.1830
11823SOL    HW240317   3.362   8.611   3.605 -1.1908  1.4510 -0.8656
11824SOL     OW40318   3.840   0.543   4.939 -0.2551  0.1867 -0.1583
11824SOL    HW140319   3.918   0.487   4.934  0.2701  0.9695 -0.9003
11824SOL    HW240320   3.862   0.606   5.008  0.1424  0.9596 -0.9803
11825SOL     OW40321   3.790   0.068   3.178 -0.0776 -0.1391 -0.2323
11825SOL    HW140322   3.743   0.143   3.142  1.5480  1.4890  0.9233
11825SOL    HW240323   3.782   0.000   3.111 -0.9146  1.3202 -1.6492
11826SOL     OW40324   3.465   8.662   4.682  0.8273 -0.1893 -0.4407
11826SOL    HW140325   3.491   8.727   4.617 -1.8021  0.0555 -1.3073
11826SOL    HW240326   3.485   8.578   4.642 -0.1122 -0.0162 -1.3003
11827SOL     OW40327   5.381   0.818   5.686  0.1674 -0.6970  0.3951
11827SOL    HW140328   5.449   0.751   5.680  0.4350 -0.3440 -0.5081
11827SOL    HW240329   5.315   0.779   5.744  0.8341 -1.2941  0.7575
11828SOL     OW40330   5.336   2.406   6.417  0.3359 -0.0225  0.0112
11828SOL    HW140331   5.415   2.422   6.468  2.2488 -0.0522 -2.8484
11828SOL    HW240332   5.340   2.470   6.346 -1.4054 -1.0611 -1.0674
11829SOL     OW40333   6.297   2.337   5.884 -0.0750  0.1832 -0.3607
11829SOL    HW140334   6.253   2.421   5.868 -0.1758  0.2083  0.0430
11829SOL    HW240335   6.226   2.276   5.903  0.2039  0.8453  3.1232
11830SOL     OW40336   5.246   1.681   4.373 -0.2865  0.2666 -0.1844
11830SOL    HW140337   5.291   1.629   4.307 -0.4499 -0.8817  0.6007
11830SOL    HW240338   5.153   1.661   4.360 -0.4722  1.4896 -0.8284
11831SOL     OW40339   4.960   0.962   4.420  0.2633 -0.3370  0.4784
11831SOL    HW140340   4.891   1.024   4.395  1.2415  0.3379 -0.5861
11831SOL    HW240341   4.913   0.880   4.435 -0.8815  0.3287  0.6241
11832SOL     OW40342   3.089   0.934   3.258  0.0944 -0.0054  0.1511
11832SOL    HW140343   3.105   1.018   3.300  0.2391  0.1816 -0.2730
11832SOL    HW240344   3.162   0.923   3.197  0.3204 -0.6487  0.5266
11833SOL     OW40345   4.881   0.442   4.329 -0.2943 -0.3875  0.8745
11833SOL    HW140346   4.792   0.470   4.351  0.1277  0.2056  1.8892
11833SOL    HW240347   4.902   0.489   4.248 -0.2166  0.9690  1.6581
11834SOL     OW40348   4.643   9.403   4.437 -0.1399  0.7258 -0.7547
11834SOL    HW140349   4.557   9.445   4.444 -0.2072  0.3841  0.6138
11834SOL    HW240350   4.661   9.370   4.525 -0.0155 -1.9876 -1.7301
11835SOL     OW40351   4.417   1.523   4.010 -0.9224 -0.6594 -0.4995
11835SOL    HW140352   4.397   1.602   3.959  0.9344 -0.7362 -1.3850
11835SOL    HW240353   4.427   1.554   4.099 -0.5675  0.0427 -0.7810
11836SOL     OW40354   2.839   0.586   4.796 -0.0642 -0.6835  0.6644
11836SOL    HW140355   2.841   0.603   4.890 -0.5452  0.4492  0.4685
11836SOL    HW240356   2.804   0.496   4.789 -1.8825 -0.0743  1.4945
11837SOL     OW40357   4.943   0.080   3.160 -0.3691  0.7784 -0.3490
11837SOL    HW140358   4.867   0.041   3.117 -1.0143  1.9153 -0.2430
11837SOL    HW240359   4.909   0.158   3.203  1.2764  2.5688 -2.1940
11838SOL     OW40360   3.679   1.419   2.625  0.5157  1.0383 -0.1996
11838SOL    HW140361   3.736   1.343   2.615 -0.6384  0.1654 -0.2467
11838SOL    HW240362   3.618   1.413   2.551 -0.9047  0.8347  0.9800
11839SOL     OW40363   4.609   9.313   3.615  0.4012 -0.4727 -0.0863
11839SOL    HW140364   4.562   9.259   3.551 -0.5229  0.3442 -0.1038
11839SOL    HW240365   4.627   9.395   3.568  0.0732 -0.0230  0.5746
11840SOL     OW40366   1.167   1.382   3.369 -0.8067 -0.4371  0.1030
11840SOL    HW140367   1.155   1.368   3.275 -2.7296  1.9352 -0.0624
11840SOL    HW240368   1.078   1.393   3.404 -0.0598 -0.1465  2.0034
11841SOL     OW40369   6.257   0.870   4.602 -0.2573 -0.2363 -0.1594
11841SOL    HW140370   6.282   0.804   4.667 -0.4971 -0.4395 -0.2732
11841SOL    HW240371   6.194   0.825   4.546  3.3174 -1.5930 -3.3548
11842SOL     OW40372   6.349   1.187   4.364  0.0591 -0.1858 -0.2384
11842SOL    HW140373   6.334   1.092   4.358 -0.8018 -0.0573 -0.1827
11842SOL    HW240374   6.442   1.198   4.347  0.5722 -1.2471  1.7017
11843SOL     OW40375   5.159   1.518   5.305  0.4305  0.3353 -0.0137
11843SOL    HW140376   5.110   1.547   5.228 -0.7308  0.6116  0.8263
11843SOL    HW240377   5.107   1.446   5.340  2.1383 -1.3027 -0.7937
11844SOL     OW40378   4.926   3.048   3.779  0.4641 -0.5012  0.1196
11844SOL    HW140379   4.902   3.106   3.850 -1.4431 -0.8009 -0.2724
11844SOL    HW240380   4.863   2.977   3.782  0.1981 -0.4105 -1.9947
11845SOL     OW40381   5.587   0.849   4.918  0.3258  0.5266  0.1607
11845SOL    HW140382   5.527   0.886   4.854 -2.3209 -2.5733  0.7405
11845SOL    HW240383   5.553   0.878   5.003 -0.6185 -1.5030  0.5099
11846SOL     OW40384   4.135   0.219   6.317  0.0132  0.6956  0.2912
11846SOL    HW140385   4.196   0.146   6.310 -0.1332  0.4453  1.4103
11846SOL    HW240386   4.180   0.283   6.371  0.8530  2.2192 -2.1966
11847SOL     OW40387   5.681   9.738   3.422  0.3682 -0.1483 -0.6166
11847SOL    HW140388   5.632   9.811   3.384 -0.9755 -0.0754  1.1864
11847SOL    HW240389   5.768   9.773   3.438 -0.4007  1.2458  0.6622
11848SOL     OW40390   3.666   1.080   4.183 -0.0757  0.3693 -0.1780
11848SOL    HW140391   3.636   1.001   4.138 -1.1069  1.1491 -0.8717
11848SOL    HW240392   3.662   1.057   4.276  0.1417 -0.5760 -0.3956
11849SOL     OW40393   4.748   1.443   5.219 -0.1443 -0.5571  0.6648
11849SOL    HW140394   4.801   1.509   5.263 -0.3987 -1.2161  2.0096
11849SOL    HW240395   4.657   1.468   5.237 -0.2432 -1.2464  1.1690
11850SOL     OW40396   4.758   0.769   5.861  0.0010 -0.1290  0.1224
11850SOL    HW140397   4.672   0.731   5.878  0.5337 -0.9350  1.0171
11850SOL    HW240398   4.789   0.723   5.783 -0.2264 -0.0874  0.0075
11851SOL     OW40399   1.967   1.747   5.554 -0.0296  0.1442 -0.3802
11851SOL    HW140400   1.982   1.797   5.635 -0.4470 -0.1019 -0.1483
11851SOL    HW240401   2.041   1.687   5.549  0.2475  0.4955 -0.4301
11852SOL     OW40402   4.503   2.886   3.651  0.0341 -0.0161 -0.4509
11852SOL    HW140403   4.585   2.857   3.692 -0.3269 -0.4507 -0.0427
11852SOL    HW240404   4.450   2.919   3.723 -0.8264 -1.2992 -0.4807
11853SOL     OW40405   4.369   1.024   4.971  0.2529  0.1339  0.3278
11853SOL    HW140406   4.299   1.088   4.977  0.2029  0.1066  0.0488
11853SOL    HW240407   4.327   0.947   4.932  0.0594 -0.4328  1.6371
11854SOL     OW40408   3.858   0.338   3.700 -0.0581  0.1807  0.0588
11854SOL    HW140409   3.776   0.356   3.746 -0.1069  1.7333 -0.6156
11854SOL    HW240410   3.832   0.299   3.617 -0.0824  0.2707  0.0249
11855SOL     OW40411   5.253   0.427   5.448  0.1923 -0.6039  0.2683
11855SOL    HW140412   5.244   0.438   5.543  0.4426 -0.1311  0.2428
11855SOL    HW240413   5.203   0.500   5.411 -0.4860 -1.1947  0.0237
11856SOL     OW40414   1.403   0.567   5.030  0.2253  0.0521 -0.0903
11856SOL    HW140415   1.330   0.539   4.976 -0.6349 -0.4705  1.3228
11856SOL    HW240416   1.397   0.513   5.109  1.4456  0.8091  0.5366
11857SOL     OW40417   2.967   1.618   5.304 -0.6326  0.4231 -0.3137
11857SOL    HW140418   3.024   1.676   5.252 -0.9012  0.1393 -0.9206
11857SOL    HW240419   2.884   1.665   5.308 -1.4419 -0.7652 -2.4005
11858SOL     OW40420   5.046   1.059   4.655  0.2009  0.0028  0.1263
11858SOL    HW140421   5.045   1.018   4.568  2.3504  0.5813 -0.2080
11858SOL    HW240422   5.069   0.988   4.715  0.6487  0.0079 -0.0353
11859SOL     OW40423   4.376   8.224   4.728  0.4708 -0.4398  0.0097
11859SOL    HW140424   4.415   8.308   4.752 -0.7341 -0.4028  1.9568
11859SOL    HW240425   4.336   8.239   4.642  1.6184  0.5238 -0.3591
11860SOL     OW40426   3.314   1.294   4.875 -0.0172  0.1445  0.0799
11860SOL    HW140427   3.277   1.321   4.959  1.2735  1.2821  0.3066
11860SOL    HW240428   3.319   1.199   4.880 -0.8715  0.1358  0.8912
11861SOL     OW40429   3.970   2.374   5.439 -0.0543 -0.4369  0.5417
11861SOL    HW140430   4.063   2.358   5.420 -0.2682 -1.3168  0.1825
11861SOL    HW240431   3.969   2.454   5.490  0.6889  1.0235 -1.6658
11862SOL     OW40432   2.944   1.265   3.193 -0.5385 -0.9045 -0.1553
11862SOL    HW140433   3.017   1.270   3.255  0.5624  0.3951 -1.4974
11862SOL    HW240434   2.984   1.231   3.112 -0.8444  2.0909 -1.6448
11863SOL     OW40435   5.896   1.086   6.225 -0.1590  0.1392  0.0547
11863SOL    HW140436   5.982   1.081   6.267 -0.1641 -3.0497 -0.1862
11863SOL    HW240437   5.836   1.047   6.288 -0.7143 -1.5315 -1.4685
11864SOL     OW40438   4.684   8.986   4.652  0.4791 -0.0301  0.1200
11864SOL    HW140439   4.696   9.047   4.724  0.8500  0.4783 -0.3724
11864SOL    HW240440   4.705   8.900   4.689  0.8340  0.2519  0.5692
11865SOL     OW40441   7.237   0.441   4.297  0.0604 -0.6273  0.0459
11865SOL    HW140442   7.323   0.398   4.299  0.0717 -0.8139 -2.6757
11865SOL    HW240443   7.246   0.513   4.359  2.0363 -0.9461  0.1783
11866SOL     OW40444   4.584   2.119   4.606 -0.4611 -0.4845  0.4707
11866SOL    HW140445   4.490   2.137   4.611 -0.2405  0.3854  2.0000
11866SOL    HW240446   4.624   2.206   4.594  0.1978 -0.7664  0.5979
11867SOL     OW40447   4.986   1.176   4.919 -0.2959  0.3202  0.5864
11867SOL    HW140448   5.002   1.138   4.832  0.8185 -0.8998  1.3208
11867SOL    HW240449   4.920   1.244   4.903  0.0642  0.2631 -1.2538
11868SOL     OW40450   5.188   3.103   5.373  0.0542  0.0266  0.1900
11868SOL    HW140451   5.227   3.163   5.310  0.1227 -0.4155 -0.1947
11868SOL    HW240452   5.261   3.072   5.426  0.4460 -1.7661 -1.3358
11869SOL     OW40453   3.263   0.397   5.282 -0.1195  0.5366  0.1757
11869SOL    HW140454   3.304   0.479   5.309 -0.5779  1.2879 -1.3613
11869SOL    HW240455   3.176   0.400   5.321 -1.1355  2.0648 -2.0544
11870SOL     OW40456   5.206   0.574   4.325  0.4191 -0.3114  0.2393
11870SOL    HW140457   5.173   0.595   4.237  0.6761 -0.4895  0.0998
11870SOL    HW240458   5.278   0.636   4.339 -0.3999  0.5283  0.8149
11871SOL     OW40459   6.085   0.227   3.774  0.3736 -0.8244  0.0663
11871SOL    HW140460   6.069   0.188   3.860 -2.3841  1.7792  0.8337
11871SOL    HW240461   6.001   0.267   3.750  0.9525 -1.8821 -4.0630
11872SOL     OW40462   5.364   0.580   2.943  0.1990  0.1069  0.3044
11872SOL    HW140463   5.457   0.576   2.922 -0.2967 -1.4099 -1.8177
11872SOL    HW240464   5.327   0.638   2.877 -0.3921  0.6061  1.0639
11873SOL     OW40465   4.054   0.031   4.007 -0.3700 -0.0722  0.2472
11873SOL    HW140466   4.080  -0.061   4.011  1.6471  0.4256 -0.4190
11873SOL    HW240467   3.964   0.029   3.976  0.3362 -1.7691 -1.8757
11874SOL     OW40468   3.248   9.567   3.974 -0.0716 -0.4956 -0.5097
11874SOL    HW140469   3.159   9.590   4.000  1.0490  0.2322  2.9041
11874SOL    HW240470   3.290   9.650   3.954  0.2393 -0.7133 -0.7718
11875SOL     OW40471   5.015   0.155   5.369  0.7114 -0.2731 -0.1010
11875SOL    HW140472   4.949   0.139   5.302  0.4645  0.9974 -0.1698
11875SOL    HW240473   4.988   0.236   5.411  1.3228 -0.6187  0.9898
11876SOL     OW40474   2.489   1.987   5.238 -0.3135  0.6842  0.0753
11876SOL    HW140475   2.581   2.008   5.222  0.0209 -0.7298  0.0551
11876SOL    HW240476   2.481   1.987   5.334 -0.2048  0.4678  0.0846
11877SOL     OW40477   1.525   1.319   5.048 -0.2304 -0.2578 -0.2158
11877SOL    HW140478   1.478   1.266   4.984  0.2338  0.9954 -1.6304
11877SOL    HW240479   1.517   1.270   5.130 -1.6322 -1.4233 -1.0176
11878SOL     OW40480   3.667   0.996   4.438  0.3811  0.8173 -0.0256
11878SOL    HW140481   3.603   0.940   4.482 -0.3288  0.6933 -1.1852
11878SOL    HW240482   3.751   0.972   4.478  0.2679 -1.9842 -1.3132
11879SOL     OW40483   4.998   1.784   4.611 -0.6152 -0.4120 -0.0092
11879SOL    HW140484   5.083   1.823   4.587 -0.4080 -0.8463  0.0234
11879SOL    HW240485   4.937   1.819   4.546 -0.3653 -0.2831 -0.1767
11880SOL     OW40486   3.700   1.362   3.509  0.3387  0.0638 -0.2561
11880SOL    HW140487   3.648   1.283   3.497 -0.4834  0.7989 -1.7401
11880SOL    HW240488   3.778   1.348   3.455  0.3414  0.1408 -0.2718
11881SOL     OW40489   4.214   9.532   3.634 -0.0660 -0.3182 -0.5133
11881SOL    HW140490   4.281   9.560   3.697 -0.0464  0.8409 -1.0427
11881SOL    HW240491   4.213   9.602   3.568 -2.1317 -0.0810 -0.2446
11882SOL     OW40492   6.688   0.669   4.561  0.1352 -0.2718 -0.2617
11882SOL    HW140493   6.646   0.720   4.631 -0.6550  0.2146 -1.0783
11882SOL    HW240494   6.635   0.590   4.555 -1.0941  0.6264 -1.7287
11883SOL     OW40495   3.623   8.960   4.819  0.4798  0.1409  0.0866
11883SOL    HW140496   3.561   8.904   4.865  0.9047 -0.2082  0.2276
11883SOL    HW240497   3.675   9.001   4.888  1.2204 -0.5030 -0.0937
11884SOL     OW40498   4.795   1.151   5.197 -0.0314 -0.6328 -0.4962
11884SOL    HW140499   4.788   1.163   5.292  2.3963 -0.2229 -0.3238
11884SOL    HW240500   4.765   1.234   5.160 -1.0185 -0.8057 -0.1115
11885SOL     OW40501   4.321   0.551   5.348 -0.0607 -0.2038  0.1621
11885SOL    HW140502   4.366   0.493   5.286 -0.9765 -0.9664  0.1985
11885SOL    HW240503   4.349   0.519   5.434  1.4638  1.0574  0.1610
11886SOL     OW40504   4.788   9.823   4.126  0.2544  0.4972  0.0577
11886SOL    HW140505   4.816   9.732   4.118 -1.7747 -0.1019 -0.7091
11886SOL    HW240506   4.837   9.858   4.201  0.8489 -1.2949  0.5194
11887SOL     OW40507   7.233   1.584   5.127  0.4312  0.1662  0.2587
11887SOL    HW140508   7.312   1.617   5.170  0.5542  0.2694 -0.0433
11887SOL    HW240509   7.176   1.660   5.120  0.9913  0.4800 -1.0558
11888SOL     OW40510   4.337   1.953   4.028  0.0720 -0.2890  0.2590
11888SOL    HW140511   4.351   1.905   3.947 -1.5086  0.4136 -0.4485
11888SOL    HW240512   4.242   1.960   4.036  0.2472  1.3661  1.1466
11889SOL     OW40513   4.959   1.894   3.538  0.1818 -0.1485  0.4799
11889SOL    HW140514   5.053   1.880   3.551  0.3228  0.5224  0.1777
11889SOL    HW240515   4.920   1.809   3.557  0.9510 -0.7169 -0.4280
11890SOL     OW40516   4.203   0.196   5.450  0.1252 -0.0766 -0.1057
11890SOL    HW140517   4.107   0.196   5.452  0.1342 -2.4020  1.7775
11890SOL    HW240518   4.228   0.280   5.488 -1.1655  0.2665  0.0006
11891SOL     OW40519   5.521   1.226   4.894 -0.1694  0.5322  0.0247
11891SOL    HW140520   5.469   1.306   4.899  1.4098  1.5907 -0.1914
11891SOL    HW240521   5.482   1.176   4.822 -1.9282  0.5169  0.9483
11892SOL     OW40522   3.855   1.919   4.872 -0.1110  0.4939  0.9054
11892SOL    HW140523   3.796   1.993   4.888  1.2968  1.3802  2.1385
11892SOL    HW240524   3.864   1.876   4.957  0.2611 -0.2181  0.5099
11893SOL     OW40525   5.095   0.253   4.271  0.0277 -0.6005 -0.1153
11893SOL    HW140526   5.105   0.347   4.255 -0.3079 -0.8260 -1.7480
11893SOL    HW240527   5.176   0.214   4.239  0.3714 -0.8353  1.0022
11894SOL     OW40528   4.034   1.443   3.972  0.4073  0.3975  0.5155
11894SOL    HW140529   3.942   1.416   3.960  0.6429  0.5371 -1.8354
11894SOL    HW240530   4.044   1.519   3.915  2.0610  0.2324  0.5800
11895SOL     OW40531   4.873   1.361   3.429  0.8710 -0.0259 -0.2126
11895SOL    HW140532   4.846   1.359   3.521 -1.1703 -0.4875 -0.7929
11895SOL    HW240533   4.945   1.424   3.427  0.7704  0.1877  1.6569
11896SOL     OW40534   4.669   1.292   3.186  0.2337 -0.0165  0.9343
11896SOL    HW140535   4.640   1.275   3.096 -0.9314  0.1140  1.2787
11896SOL    HW240536   4.687   1.386   3.189  1.5992 -0.2495  0.4713
11897SOL     OW40537   3.951   0.385   4.277 -0.3453  0.2730  0.0692
11897SOL    HW140538   3.918   0.336   4.352 -2.5002  0.8996 -0.4340
11897SOL    HW240539   4.046   0.368   4.276 -0.3791 -0.1458  2.5972
11898SOL     OW40540   6.294   3.063   1.355 -0.5143 -0.1061  0.0324
11898SOL    HW140541   6.354   2.994   1.382  1.4514  1.0259 -1.3434
11898SOL    HW240542   6.242   3.023   1.285 -0.4431 -0.6661  0.2918
11899SOL     OW40543   2.128   1.049   4.757 -0.3984 -0.2526 -0.3071
11899SOL    HW140544   2.144   0.956   4.770 -0.6800 -0.1919  0.5621
11899SOL    HW240545   2.208   1.082   4.717  0.9787 -0.2898  2.2818
11900SOL     OW40546   4.775   1.868   3.802  0.1243  0.0306 -0.1438
11900SOL    HW140547   4.864   1.863   3.767 -0.1200  0.9031 -0.9368
11900SOL    HW240548   4.783   1.844   3.894  0.9375 -1.3859 -0.5808
11901SOL     OW40549   7.354   2.204   4.596 -0.0612 -0.2052  0.4529
11901SOL    HW140550   7.351   2.134   4.661 -0.0312 -1.4818 -0.8917
11901SOL    HW240551   7.446   2.232   4.597  0.2957 -1.2987 -0.1339
11902SOL     OW40552   4.437   1.679   6.055  0.2085  0.0893  0.0520
11902SOL    HW140553   4.480   1.765   6.052 -0.6996  0.5304 -0.7085
11902SOL    HW240554   4.484   1.627   5.990  1.7110 -0.4561  1.5500
11903SOL     OW40555   4.908   0.390   5.483  0.0681  0.8873 -0.1632
11903SOL    HW140556   4.957   0.468   5.458 -2.0904  2.1278 -0.6672
11903SOL    HW240557   4.818   0.409   5.455 -0.2936 -2.2110 -1.2317
11904SOL     OW40558   3.459   9.737   5.078  0.1861 -0.7107 -0.3254
11904SOL    HW140559   3.484   9.784   5.158 -2.2498 -0.7525  0.4816
11904SOL    HW240560   3.447   9.806   5.012 -1.2806 -0.3775  0.2885
11905SOL     OW40561   4.875   0.340   4.682 -0.3728  0.4230  0.5032
11905SOL    HW140562   4.894   0.263   4.736 -2.8189 -0.4463  0.1565
11905SOL    HW240563   4.864   0.411   4.746 -1.9564 -0.3324  1.1044
11906SOL     OW40564   5.397   0.356   4.728  0.2089 -0.2324  0.9067
11906SOL    HW140565   5.444   0.388   4.652  1.6639 -0.5271  1.6485
11906SOL    HW240566   5.454   0.288   4.764 -1.1617 -1.1626  1.3862
11907SOL     OW40567   3.778   1.424   3.040  0.3406 -0.1866  0.4243
11907SOL    HW140568   3.735   1.345   3.071  0.3579 -0.5752 -0.5385
11907SOL    HW240569   3.777   1.417   2.944  1.3288  0.4435  0.3577
11908SOL     OW40570   1.257   2.518   4.306  0.5325  0.0468 -0.0429
11908SOL    HW140571   1.168   2.550   4.293  1.1513  1.9022  0.1645
11908SOL    HW240572   1.286   2.491   4.219 -0.0534 -0.0782 -0.2014
11909SOL     OW40573   4.372   2.197   2.992  0.3920  0.2156  0.6272
11909SOL    HW140574   4.350   2.108   2.964  1.0258  0.0274  0.7083
11909SOL    HW240575   4.291   2.246   2.983 -0.5701 -0.9175  2.7676
11910SOL     OW40576   3.250   9.377   3.779  0.4998  0.7242 -0.3261
11910SOL    HW140577   3.288   9.306   3.829 -0.1039 -0.9428 -2.1635
11910SOL    HW240578   3.219   9.440   3.845  1.1112 -0.6616  1.3029
11911SOL     OW40579   3.953   9.409   4.818  0.1425  0.3270 -0.1766
11911SOL    HW140580   3.986   9.370   4.899 -0.1177 -1.9267 -1.1096
11911SOL    HW240581   3.871   9.451   4.844  0.2536 -0.0453  0.8149
11912SOL     OW40582   5.743   0.885   5.498 -0.1896  0.5874 -0.1867
11912SOL    HW140583   5.706   0.917   5.416  0.1269 -0.7393 -0.8599
11912SOL    HW240584   5.832   0.856   5.475 -0.8519 -1.8090  0.1268
11913SOL     OW40585   3.322   9.520   4.885  0.5169  0.0533  0.3243
11913SOL    HW140586   3.370   9.578   4.825 -0.8891  0.5636 -0.3219
11913SOL    HW240587   3.389   9.458   4.917  1.2670 -0.3210 -1.8834
11914SOL     OW40588   3.351   0.491   4.973  0.6161 -0.1569 -0.5705
11914SOL    HW140589   3.307   0.569   4.938  0.7180  0.0021 -0.3444
11914SOL    HW240590   3.358   0.507   5.067  0.0224 -0.7400 -0.4209
11915SOL     OW40591   4.418   1.335   4.810  0.6717  0.4441 -0.2601
11915SOL    HW140592   4.344   1.286   4.845  0.3331 -0.4133 -2.0903
11915SOL    HW240593   4.488   1.324   4.875  0.1524 -1.3012  0.0367
11916SOL     OW40594   4.208   9.781   5.099 -0.2414  0.2927 -0.0785
11916SOL    HW140595   4.232   9.869   5.073  0.7129 -0.3142 -1.2916
11916SOL    HW240596   4.245   9.724   5.032 -2.5961 -0.9047 -0.4373
11917SOL     OW40597   4.193   0.818   4.259  0.4892 -0.1161  0.4424
11917SOL    HW140598   4.265   0.781   4.311  1.3894  0.7276 -0.1769
11917SOL    HW240599   4.214   0.793   4.169 -0.2099 -0.2023  0.3062
11918SOL     OW40600   4.932   0.678   4.498 -0.7171  0.6050  0.1828
11918SOL    HW140601   4.996   0.608   4.509  0.8402  2.0261  0.4611
11918SOL    HW240602   4.848   0.634   4.493  0.1068 -1.2059  1.6726
11919SOL     OW40603   4.797   0.392   5.073  0.0165  0.5955 -0.0539
11919SOL    HW140604   4.855   0.424   5.142 -2.0110  2.4060  0.8625
11919SOL    HW240605   4.737   0.333   5.118 -0.1089  0.2574 -0.6569
11920SOL     OW40606   6.034   1.913   4.612  0.1284  0.1490  0.3250
11920SOL    HW140607   5.951   1.867   4.626 -0.9002  1.9839  0.4794
11920SOL    HW240608   6.029   1.989   4.669  1.7465  0.5115  0.0134
11921SOL     OW40609   5.274   2.267   3.857 -0.0809 -0.7515 -0.8680
11921SOL    HW140610   5.187   2.289   3.824 -1.2207 -1.2851  1.6319
11921SOL    HW240611   5.274   2.172   3.862 -0.1367 -0.6710  1.0719
11922SOL     OW40612   5.904   2.989   3.217 -0.4181  0.4502  0.6602
11922SOL    HW140613   5.827   3.045   3.221 -0.9373  0.1257 -3.1235
11922SOL    HW240614   5.880   2.910   3.265 -2.0061  0.8181  0.4709
11923SOL     OW40615   5.183   2.067   4.973  0.2435 -0.2792  0.3268
11923SOL    HW140616   5.164   2.051   5.065 -0.1267  1.2656  0.5391
11923SOL    HW240617   5.249   2.002   4.950  0.0354 -0.9387  1.5677
11924SOL     OW40618   4.612   0.453   4.692 -0.9782 -0.0176 -0.3860
11924SOL    HW140619   4.685   0.396   4.667 -0.6187  0.7295 -1.0729
11924SOL    HW240620   4.534   0.404   4.665 -0.6426  0.1556 -1.7351
11925SOL     OW40621   2.995   1.821   4.783  0.2147  0.2432  0.7316
11925SOL    HW140622   2.907   1.785   4.778 -0.1736  1.2159  0.3547
11925SOL    HW240623   3.000   1.861   4.870 -0.6652  2.5231 -0.2175
11926SOL     OW40624   3.579   1.574   5.479 -0.0434  0.0500  0.1449
11926SOL    HW140625   3.659   1.612   5.442 -0.1054  1.0523  1.0119
11926SOL    HW240626   3.607   1.535   5.562 -0.1469 -1.0700 -0.3328
11927SOL     OW40627   4.823   1.863   4.400 -0.0955 -0.3581  0.3722
11927SOL    HW140628   4.871   1.836   4.322  1.2657 -0.4457  1.2158
11927SOL    HW240629   4.809   1.957   4.389 -0.2308 -0.4407 -0.1447
11928SOL     OW40630   3.988   1.629   3.550 -0.6189  0.8475  0.3714
11928SOL    HW140631   4.001   1.711   3.503 -3.5111 -0.1860 -2.4108
11928SOL    HW240632   4.045   1.567   3.504 -2.5924  0.0932 -1.1154
11929SOL     OW40633   4.742   2.091   3.608  0.0635 -0.3147 -0.2439
11929SOL    HW140634   4.810   2.058   3.667  0.0679  1.3290  0.7080
11929SOL    HW240635   4.663   2.044   3.634  0.0820  0.3371  1.0703
11930SOL     OW40636   5.411   0.739   5.395 -0.3365 -0.2781  0.1362
11930SOL    HW140637   5.376   0.763   5.481 -1.2179 -0.1915 -0.2360
11930SOL    HW240638   5.336   0.702   5.348  0.2244 -0.6671 -0.4664
11931SOL     OW40639   3.965   9.971   5.153  0.2217 -0.7655  0.9955
11931SOL    HW140640   3.958   9.880   5.127  0.3830 -0.6257  0.4609
11931SOL    HW240641   4.056   9.981   5.183  1.2024  0.0375 -2.1176
11932SOL     OW40642   5.097   9.739   4.543  0.0461  0.1627  0.1624
11932SOL    HW140643   5.083   9.720   4.635  1.8808 -0.4063  0.3518
11932SOL    HW240644   5.077   9.657   4.497 -0.1446  0.2286  0.1273
11933SOL     OW40645   4.836   0.867   3.615 -0.0110  0.9183  0.2143
11933SOL    HW140646   4.809   0.958   3.630  0.5190  1.4791 -2.0236
11933SOL    HW240647   4.789   0.841   3.536  1.0998 -0.2016 -0.0919
11934SOL     OW40648   5.086   2.226   2.598 -0.1912  0.1177  0.6662
11934SOL    HW140649   5.080   2.283   2.674  0.5009  2.0088 -0.6759
11934SOL    HW240650   5.013   2.164   2.609  1.1180 -0.9526  3.8739
11935SOL     OW40651   4.440   1.428   7.748 -0.3617 -0.6049  0.0070
11935SOL    HW140652   4.500   1.361   7.781 -0.9238 -1.0079  0.2225
11935SOL    HW240653   4.385   1.450   7.823 -1.3426 -1.1886 -0.5277
11936SOL     OW40654   3.123   1.577   7.583 -0.3011 -0.4111 -0.4546
11936SOL    HW140655   3.200   1.521   7.586  0.5362  0.7576 -0.0828
11936SOL    HW240656   3.083   1.568   7.669 -0.8010 -1.3042 -0.7688
11937SOL     OW40657   4.131   0.598   6.509  0.4584  0.2904  0.7425
11937SOL    HW140658   4.126   0.574   6.417  0.9902  2.0489  0.2315
11937SOL    HW240659   4.220   0.573   6.535  0.6243  0.6412  0.5204
11938SOL     OW40660   4.516   1.095   8.507  0.4254 -0.2516 -0.1401
11938SOL    HW140661   4.464   1.147   8.446  1.1382 -0.8642 -1.2899
11938SOL    HW240662   4.460   1.084   8.584  0.6449  3.0753  0.5472
11939SOL     OW40663   4.150   0.797   6.238  0.3774 -0.4196  0.1408
11939SOL    HW140664   4.105   0.714   6.249  1.9561 -1.2506  0.5272
11939SOL    HW240665   4.117   0.852   6.309  0.1921 -1.1133  0.5963
11940SOL     OW40666   6.021   9.758   6.304  0.0920  0.2690 -0.2970
11940SOL    HW140667   6.083   9.770   6.376  0.9855  1.5923 -1.2685
11940SOL    HW240668   5.974   9.841   6.299 -1.3589 -0.5186  0.0345
11941SOL     OW40669   5.125   0.974   6.404  0.5780 -0.1006 -0.5640
11941SOL    HW140670   5.177   0.971   6.484 -0.2932 -2.2166 -0.0608
11941SOL    HW240671   5.127   1.066   6.378  1.4416  0.4929  1.5139
11942SOL     OW40672   4.639   1.195   7.776 -0.1949 -0.3129 -0.3551
11942SOL    HW140673   4.652   1.155   7.862 -0.1087 -1.3882 -0.8553
11942SOL    HW240674   4.712   1.255   7.766 -0.1843 -0.2045  0.3078
11943SOL     OW40675   5.323   0.896   6.063 -0.1841  0.2430 -0.4761
11943SOL    HW140676   5.262   0.839   6.017  1.8576 -1.2888 -1.3708
11943SOL    HW240677   5.270   0.940   6.130 -2.1023 -1.5079 -0.8144
11944SOL     OW40678   2.807   1.492   8.236 -0.2423 -0.2722  0.2328
11944SOL    HW140679   2.731   1.456   8.191 -0.6099  0.0174  0.6106
11944SOL    HW240680   2.787   1.585   8.247  0.3859 -0.0944 -0.1044
11945SOL     OW40681   2.685   2.258   7.996  0.1626 -0.1854  0.3330
11945SOL    HW140682   2.762   2.231   8.046  2.0692 -0.3547 -2.6187
11945SOL    HW240683   2.670   2.187   7.934 -1.3989  0.6023 -0.2240
11946SOL     OW40684   5.227   0.094   6.158  0.8466  0.2306 -0.6174
11946SOL    HW140685   5.253   0.075   6.068  0.3145 -0.6440 -0.6015
11946SOL    HW240686   5.173   0.173   6.151  1.1792  0.4266 -1.0069
11947SOL     OW40687   2.660   8.529   6.791 -0.7050 -0.2116  0.1693
11947SOL    HW140688   2.569   8.500   6.802 -0.2209 -1.5668  0.7251
11947SOL    HW240689   2.666   8.557   6.700 -0.7477 -3.6225 -0.9408
11948SOL     OW40690   6.452   0.853   5.161  0.3250 -0.1791  0.3552
11948SOL    HW140691   6.360   0.876   5.148 -0.5412 -3.3087  0.5453
11948SOL    HW240692   6.484   0.919   5.223 -1.4426  1.6403 -0.5963
11949SOL     OW40693   4.048   1.181   5.564 -0.0760 -0.1476  0.0239
11949SOL    HW140694   3.969   1.232   5.546 -0.7716 -0.6427  1.5112
11949SOL    HW240695   4.112   1.211   5.501 -0.7296  1.9687  0.3476
11950SOL     OW40696   4.424   1.602   7.057  0.1036  0.2281  0.2102
11950SOL    HW140697   4.377   1.648   7.126  0.3617  3.2501 -1.5523
11950SOL    HW240698   4.361   1.597   6.985  0.8878 -0.0128 -0.4676
11951SOL     OW40699   4.468   2.951   5.516  0.3610  0.3865  0.5636
11951SOL    HW140700   4.475   3.044   5.492 -0.7109  0.6555  1.2721
11951SOL    HW240701   4.516   2.944   5.598  0.8093  0.2281  0.2871
11952SOL     OW40702   4.362   1.766   5.614  0.2093 -0.0690  0.2163
11952SOL    HW140703   4.302   1.747   5.685  1.7865  0.2236  1.6657
11952SOL    HW240704   4.445   1.727   5.641  1.1809  1.1920 -0.8291
11953SOL     OW40705   4.244   3.024   6.339 -0.7486 -0.3576  0.0591
11953SOL    HW140706   4.229   2.930   6.337 -0.2095 -0.4414 -0.1006
11953SOL    HW240707   4.280   3.044   6.252 -0.5518 -0.0584  0.2102
11954SOL     OW40708   4.929   0.941   6.200  0.6578  0.1760 -0.1053
11954SOL    HW140709   4.989   0.953   6.273  1.1705  0.7299 -0.6096
11954SOL    HW240710   4.888   1.027   6.187 -1.4525 -0.5780  1.2552
11955SOL     OW40711   6.253   0.258   6.927  0.4883  0.1289  0.0799
11955SOL    HW140712   6.160   0.266   6.949  0.4708  0.4658 -0.1083
11955SOL    HW240713   6.290   0.205   6.998 -0.0151 -0.7648 -0.3280
11956SOL     OW40714   2.343   1.584   5.107  0.6932 -0.2050  0.4227
11956SOL    HW140715   2.295   1.656   5.147 -0.0107 -0.5849  0.2873
11956SOL    HW240716   2.277   1.516   5.095  0.7258  0.1528 -2.0345
11957SOL     OW40717   6.825   2.459   7.015  0.2138 -0.1634  0.0525
11957SOL    HW140718   6.845   2.492   6.927  2.0251  0.1373  0.5720
11957SOL    HW240719   6.910   2.452   7.058 -0.8007  1.6326  2.4812
11958SOL     OW40720   4.839   1.207   5.936  0.0486  0.2765  0.2072
11958SOL    HW140721   4.796   1.170   5.859 -0.0791  1.6385 -0.3898
11958SOL    HW240722   4.789   1.174   6.010 -1.5583  1.2162 -0.4403
11959SOL     OW40723   6.723   1.383   8.076 -0.2298 -0.2174  0.2600
11959SOL    HW140724   6.707   1.320   8.146 -2.5431 -0.3310 -0.3112
11959SOL    HW240725   6.713   1.333   7.995 -2.8081  0.9273 -0.2215
11960SOL     OW40726   5.701   1.310   5.974 -0.5929 -0.3177 -0.1709
11960SOL    HW140727   5.736   1.348   6.054 -0.1643  2.2634 -1.5047
11960SOL    HW240728   5.614   1.349   5.965 -1.1474 -1.5678 -0.3079
11961SOL     OW40729   3.800   0.478   7.901  0.0516  0.1636 -0.0444
11961SOL    HW140730   3.848   0.558   7.879  0.0598  0.6992  1.8471
11961SOL    HW240731   3.712   0.508   7.921 -0.7654 -0.6785 -2.2732
11962SOL     OW40732   4.458   2.091   7.220 -0.4139  0.0959  0.3292
11962SOL    HW140733   4.455   2.163   7.156  1.4018 -1.7670 -1.9529
11962SOL    HW240734   4.447   2.134   7.305 -0.0287  2.9970 -1.0147
11963SOL     OW40735   4.810   1.450   7.262  0.2545 -0.3508 -0.5141
11963SOL    HW140736   4.751   1.385   7.225 -0.2752  0.0252 -0.3508
11963SOL    HW240737   4.762   1.484   7.339  1.4370 -1.3050  0.6585
11964SOL     OW40738   3.844   0.470   5.452 -0.4074 -0.1701  0.0433
11964SOL    HW140739   3.914   0.525   5.416 -1.0984  1.2153  0.7544
11964SOL    HW240740   3.865   0.462   5.545 -0.8515 -0.2635  0.1379
11965SOL     OW40741   4.281   0.421   5.600  0.6176  0.7874  0.1667
11965SOL    HW140742   4.260   0.494   5.658 -0.2260  0.4906  0.2348
11965SOL    HW240743   4.369   0.394   5.627 -0.9990 -1.4491  3.5554
11966SOL     OW40744   6.267   9.987   6.003  0.4534  0.1209 -0.1855
11966SOL    HW140745   6.321   9.908   6.016 -0.6983 -0.9492 -1.6537
11966SOL    HW240746   6.270  10.001   5.908 -0.6696  0.9123 -0.1040
11967SOL     OW40747   3.182   2.319   7.504  0.3316  0.0616 -0.2407
11967SOL    HW140748   3.269   2.288   7.528  0.0980 -0.5642 -0.1980
11967SOL    HW240749   3.160   2.272   7.424  0.7990  1.5878 -1.2959
11968SOL     OW40750   4.015   0.759   8.083 -0.1148 -0.2361  0.1591
11968SOL    HW140751   4.016   0.840   8.133  0.7078 -0.5708  0.6976
11968SOL    HW240752   4.013   0.690   8.150 -2.2976 -0.6474 -0.2984
11969SOL     OW40753   5.283   0.717   7.697  0.3075  0.1485  0.5093
11969SOL    HW140754   5.260   0.792   7.641  0.2610  0.3053  0.7354
11969SOL    HW240755   5.279   0.752   7.786  0.5621 -0.0526  0.6006
11970SOL     OW40756   4.801   8.626   5.255  0.2039 -0.2030 -0.6082
11970SOL    HW140757   4.792   8.687   5.328 -3.9667  0.1874 -1.3552
11970SOL    HW240758   4.840   8.679   5.185 -1.4516  1.0980 -0.5822
11971SOL     OW40759   6.412   0.004   6.324 -0.2442 -0.4306  0.2150
11971SOL    HW140760   6.495   0.051   6.329 -0.6670  0.1538  2.2134
11971SOL    HW240761   6.426  -0.061   6.255  1.7146 -0.0509  0.2100
11972SOL     OW40762   4.160   1.369   6.387 -0.7883 -0.3859 -0.2488
11972SOL    HW140763   4.170   1.439   6.323 -0.6901  1.0078  1.2404
11972SOL    HW240764   4.249   1.352   6.418 -1.0715  0.7230  1.2961
11973SOL     OW40765   3.899   0.975   6.675 -0.1057 -0.0686  0.3251
11973SOL    HW140766   3.993   0.967   6.658  0.1043  0.6382  1.1105
11973SOL    HW240767   3.857   0.947   6.594  0.8048  0.4554 -0.3364
11974SOL     OW40768   4.974   1.932   6.286  0.3312  0.3112  0.2057
11974SOL    HW140769   5.069   1.934   6.280  0.3616  0.1992  0.6771
11974SOL    HW240770   4.953   1.839   6.300  0.1255  0.2698 -0.3521
11975SOL     OW40771   4.956   0.914   5.921  0.3627  0.0843  0.1402
11975SOL    HW140772   4.871   0.869   5.916  0.5150 -0.4146  1.7937
11975SOL    HW240773   4.969   0.929   6.014  2.0080  0.3579 -0.1311
11976SOL     OW40774   3.781   3.059   6.850  0.9890 -0.5046 -0.1019
11976SOL    HW140775   3.774   3.002   6.774 -0.4758  0.3346 -0.6271
11976SOL    HW240776   3.828   3.008   6.915 -0.9723 -2.5992 -0.2729
11977SOL     OW40777   5.502   0.476   7.051 -1.0111 -0.0289 -0.0466
11977SOL    HW140778   5.430   0.507   6.995 -0.4346  1.1975 -0.1366
11977SOL    HW240779   5.549   0.413   6.997 -1.5634 -0.2601 -0.2690
11978SOL     OW40780   5.480   1.711   6.440  0.0225  0.3788  0.2108
11978SOL    HW140781   5.567   1.695   6.403 -0.4989  0.7149 -1.1810
11978SOL    HW240782   5.490   1.692   6.533  1.4294 -0.2115 -0.0464
11979SOL     OW40783   4.718   9.182   8.321  0.1180  0.2674  0.0007
11979SOL    HW140784   4.693   9.092   8.300  1.5531 -0.6760  2.1240
11979SOL    HW240785   4.799   9.197   8.273 -1.4529  1.3478 -2.3777
11980SOL     OW40786   3.516   2.322   7.094  0.1583  0.4012 -0.2473
11980SOL    HW140787   3.496   2.299   7.003  0.2932  0.0827 -0.1957
11980SOL    HW240788   3.498   2.416   7.099 -0.7191  0.2417 -0.3620
11981SOL     OW40789   5.361   1.696   7.244  0.0939  0.2322 -0.4372
11981SOL    HW140790   5.408   1.634   7.187 -0.5755 -0.6376 -0.0498
11981SOL    HW240791   5.314   1.753   7.183 -2.1243 -1.8647 -0.7795
11982SOL     OW40792   3.837   1.365   5.495 -0.2953 -0.2875 -0.1355
11982SOL    HW140793   3.852   1.438   5.434 -0.1920 -0.4321 -0.2838
11982SOL    HW240794   3.754   1.386   5.538  0.9438  1.1934  1.6455
11983SOL     OW40795   3.706   0.323   6.285 -0.5225  0.2848  0.2017
11983SOL    HW140796   3.635   0.322   6.349 -0.1015  1.6159  0.7078
11983SOL    HW240797   3.667   0.359   6.206 -0.6460  0.0924  0.1730
11984SOL     OW40798   4.417   9.451   7.524 -0.0644 -0.6753  0.1954
11984SOL    HW140799   4.443   9.532   7.569 -0.3857 -1.2344  1.4081
11984SOL    HW240800   4.403   9.478   7.433 -1.8611  0.9749  0.9250
11985SOL     OW40801   4.500   1.347   6.056 -0.5474  0.3552  0.1235
11985SOL    HW140802   4.448   1.409   6.108 -2.1583 -0.4944 -0.4416
11985SOL    HW240803   4.528   1.398   5.980 -0.6863  0.7721  0.3479
11986SOL     OW40804   5.326   2.560   3.466 -0.5191  0.0598  0.0271
11986SOL    HW140805   5.328   2.484   3.408 -1.4918  1.7011 -2.1829
11986SOL    HW240806   5.414   2.597   3.459  0.1990 -1.2362  1.6898
11987SOL     OW40807   4.239   1.385   6.670  0.3126  0.3520 -0.3042
11987SOL    HW140808   4.247   1.342   6.585 -0.6268  0.0975 -0.2760
11987SOL    HW240809   4.319   1.363   6.716 -0.6291 -2.3041  0.1255
11988SOL     OW40810   4.247   2.550   7.737 -0.4614  0.3555  0.2795
11988SOL    HW140811   4.306   2.582   7.805 -3.1248  0.8884  2.4647
11988SOL    HW240812   4.284   2.467   7.709  0.4813 -0.0845  2.7279
11989SOL     OW40813   5.449   2.215   6.203 -0.0375  0.1543 -0.2101
11989SOL    HW140814   5.472   2.296   6.248 -0.5395 -0.1335  0.5781
11989SOL    HW240815   5.444   2.150   6.273 -2.0917 -0.0231 -0.5125
11990SOL     OW40816   3.832   9.415   6.677 -0.4423  0.1513  0.1624
11990SOL    HW140817   3.921   9.433   6.707  0.7142  0.9255 -3.5108
11990SOL    HW240818   3.783   9.495   6.698  0.9981  1.7452 -2.3339
11991SOL     OW40819   5.005   9.556   7.120  0.5599  0.2860  0.0936
11991SOL    HW140820   4.976   9.503   7.046  0.1421 -2.0313  1.8875
11991SOL    HW240821   4.992   9.646   7.091 -2.9084 -0.6011 -1.3573
11992SOL     OW40822   5.297   9.831   7.839 -0.4578  0.7186  0.2382
11992SOL    HW140823   5.333   9.749   7.806  0.9443  1.6627 -0.6267
11992SOL    HW240824   5.330   9.837   7.929 -0.4275  0.4266  0.2482
11993SOL     OW40825   3.384   9.759   7.078  0.3791 -0.1595  0.8719
11993SOL    HW140826   3.441   9.744   7.002  0.6133 -0.2233  1.0592
11993SOL    HW240827   3.334   9.678   7.087 -1.4176  0.7249 -0.7017
11994SOL     OW40828   2.593   2.667   6.155  0.2203  0.1445  0.0063
11994SOL    HW140829   2.644   2.587   6.167  0.0001  0.2940  2.1294
11994SOL    HW240830   2.658   2.737   6.151  0.3857 -0.0655 -1.4180
11995SOL     OW40831   5.240   0.631   6.456  0.1298  0.7264 -0.2782
11995SOL    HW140832   5.145   0.625   6.465  0.2821  1.4660  2.3622
11995SOL    HW240833   5.267   0.545   6.423 -1.2909 -0.0484  0.5471
11996SOL     OW40834   2.878   0.635   5.086 -0.0236  0.6219 -0.3048
11996SOL    HW140835   2.884   0.724   5.121 -1.4189  0.9761 -0.9282
11996SOL    HW240836   2.827   0.587   5.152  1.3014  0.0946  0.3588
11997SOL     OW40837   3.535   2.834   5.526 -0.2633 -0.4968 -0.1238
11997SOL    HW140838   3.576   2.779   5.459  0.3921 -0.8622  0.5728
11997SOL    HW240839   3.504   2.772   5.592 -2.6715 -0.2856 -1.0361
11998SOL     OW40840   3.956   9.359   6.407  0.4796  0.0062  0.4980
11998SOL    HW140841   3.957   9.273   6.364  0.5254  0.0633  0.3842
11998SOL    HW240842   3.919   9.342   6.494 -0.8712  0.1223 -0.0444
11999SOL     OW40843   4.761   0.431   6.796 -0.1249  0.2542  0.0825
11999SOL    HW140844   4.803   0.484   6.727  0.6447 -1.3257 -0.6986
11999SOL    HW240845   4.704   0.492   6.842  1.1690  1.8939 -0.4383
12000SOL     OW40846   4.031   9.698   7.144  0.0987 -0.1606  0.6808
12000SOL    HW140847   4.108   9.707   7.200 -0.3321  0.7085  1.1376
12000SOL    HW240848   3.989   9.784   7.146 -1.8898 -1.1067  1.8826
12001SOL     OW40849   4.733   0.611   5.284  0.3902 -0.0369 -0.4993
12001SOL    HW140850   4.807   0.636   5.339  0.4569  2.1434 -1.5524
12001SOL    HW240851   4.769   0.610   5.195 -0.5419 -0.1825 -0.8760
12002SOL     OW40852   4.842   1.109   5.496  0.0430 -0.8720 -0.2279
12002SOL    HW140853   4.874   1.033   5.545  0.1000 -1.6949 -1.5296
12002SOL    HW240854   4.768   1.141   5.548  0.0057 -1.8297  0.3200
12003SOL     OW40855   2.966   0.813   7.826 -0.1743 -0.1858 -0.4287
12003SOL    HW140856   2.888   0.862   7.802  1.4912  2.5930 -0.4153
12003SOL    HW240857   3.002   0.783   7.742 -0.3219  0.0205 -0.5651
12004SOL     OW40858   4.732   0.034   7.237 -0.8178 -0.1903  0.0964
12004SOL    HW140859   4.796   0.010   7.304 -0.4376  0.5521 -0.0013
12004SOL    HW240860   4.756   0.123   7.211 -2.5892  0.5707  0.9139
12005SOL     OW40861   3.493   9.465   6.999  0.3548  0.5225  0.1000
12005SOL    HW140862   3.585   9.446   7.019  0.2685 -0.5751 -0.4766
12005SOL    HW240863   3.496   9.508   6.913  0.3467  0.6086  0.1433
12006SOL     OW40864   5.771   0.693   5.681 -0.3444  0.1661 -0.4195
12006SOL    HW140865   5.710   0.717   5.611 -1.3285  0.4396  0.5191
12006SOL    HW240866   5.724   0.630   5.734  1.3892 -2.1346 -1.5229
12007SOL     OW40867   5.815   0.677   6.564  0.8123  0.1781  0.0652
12007SOL    HW140868   5.775   0.628   6.636  0.1829  0.8136  0.1550
12007SOL    HW240869   5.799   0.623   6.487 -1.6251  1.1199 -0.1660
12008SOL     OW40870   7.021   0.437   6.791 -0.0194 -0.3938 -0.2216
12008SOL    HW140871   6.926   0.446   6.788  0.0112 -0.0114 -0.0371
12008SOL    HW240872   7.054   0.501   6.728  0.2000  0.8429  1.1275
12009SOL     OW40873   4.018   2.062   5.201  0.3763 -0.4986 -0.3916
12009SOL    HW140874   4.097   2.057   5.256 -0.3729 -1.2560  0.6349
12009SOL    HW240875   4.019   1.981   5.151 -0.5259 -1.2030  0.7096
12010SOL     OW40876   5.016   1.214   6.299  0.5713  0.5939  0.5591
12010SOL    HW140877   4.987   1.209   6.390  0.1483  0.0035  0.3973
12010SOL    HW240878   4.989   1.301   6.270  1.3110  1.0427  1.1928
12011SOL     OW40879   5.179   9.661   5.986  0.1785  0.0069 -0.1618
12011SOL    HW140880   5.143   9.705   5.910 -0.4850 -1.2676 -0.6102
12011SOL    HW240881   5.270   9.641   5.962  0.0711 -0.0874 -0.4939
12012SOL     OW40882   3.776   1.614   5.092 -0.1444  0.1428  0.6497
12012SOL    HW140883   3.824   1.695   5.072 -0.6478  0.1840 -0.4313
12012SOL    HW240884   3.795   1.597   5.184  1.1584  0.6942  0.4923
12013SOL     OW40885   5.453   0.906   7.001 -0.0104  1.1541  0.3322
12013SOL    HW140886   5.404   0.961   7.064 -1.1749 -0.8144  1.1856
12013SOL    HW240887   5.423   0.817   7.019  4.9118 -0.3725  1.8706
12014SOL     OW40888   5.611   0.561   6.301  0.0338  0.0966  0.2953
12014SOL    HW140889   5.633   0.577   6.209 -1.4540 -0.9217 -0.2546
12014SOL    HW240890   5.585   0.646   6.335  1.4666  0.6572  0.0295
12015SOL     OW40891   6.070   0.673   6.265  0.0550 -0.0328 -0.2048
12015SOL    HW140892   6.076   0.731   6.342  0.2648  0.5797 -0.6838
12015SOL    HW240893   6.045   0.731   6.193  0.1767 -0.5566 -0.6705
12016SOL     OW40894   3.788   0.812   6.426 -0.5426 -0.4029 -0.0374
12016SOL    HW140895   3.707   0.787   6.381 -0.8966 -1.1080  0.9725
12016SOL    HW240896   3.768   0.800   6.519  0.8581 -1.0155  0.1963
12017SOL     OW40897   4.880   1.124   7.002 -0.2727  0.0208  0.1216
12017SOL    HW140898   4.869   1.213   6.967  0.5416 -0.3282 -1.0463
12017SOL    HW240899   4.809   1.074   6.962  1.6963 -0.7866 -2.4812
12018SOL     OW40900   3.380   0.655   5.238 -0.5853 -0.5241 -0.6829
12018SOL    HW140901   3.448   0.617   5.293 -0.3619 -1.7863 -1.8063
12018SOL    HW240902   3.427   0.695   5.165 -0.9556 -0.0758 -0.6816
12019SOL     OW40903   4.104   0.804   7.024  0.2850  0.2528  0.5309
12019SOL    HW140904   4.097   0.827   7.117 -0.9394  1.1965  0.2173
12019SOL    HW240905   4.134   0.884   6.982 -0.0405  0.0854 -0.0209
12020SOL     OW40906   5.621   0.381   7.266 -0.2666 -0.1845 -0.4226
12020SOL    HW140907   5.566   0.401   7.190 -1.1894 -0.8712  0.0667
12020SOL    HW240908   5.635   0.287   7.262  0.3893 -0.1041 -0.2035
12021SOL     OW40909   4.079   0.795   5.970  0.5666 -0.2115  0.2882
12021SOL    HW140910   3.996   0.836   5.994  1.9888  2.0757  1.4851
12021SOL    HW240911   4.117   0.765   6.053  1.2107 -0.7232 -0.1791
12022SOL     OW40912   4.327   0.736   8.106 -0.7268 -0.0758  0.3265
12022SOL    HW140913   4.372   0.652   8.119 -1.5428 -0.8192 -1.4760
12022SOL    HW240914   4.388   0.801   8.140  1.1645 -1.1883 -0.8471
12023SOL     OW40915   3.202   3.736   7.192 -0.2513  0.1086 -0.4935
12023SOL    HW140916   3.111   3.743   7.222 -0.0528 -0.1087  0.1667
12023SOL    HW240917   3.224   3.824   7.161 -1.1797 -0.2011 -2.1070
12024SOL     OW40918   4.793   0.691   5.608 -0.3363 -0.1412  0.1702
12024SOL    HW140919   4.868   0.666   5.553 -0.9378  2.6709 -2.0211
12024SOL    HW240920   4.737   0.613   5.607  2.4878 -2.3390  1.9213
12025SOL     OW40921   3.735   3.389   6.549  0.0711 -0.1980  0.0906
12025SOL    HW140922   3.806   3.363   6.607 -0.6918 -1.1381  0.6336
12025SOL    HW240923   3.685   3.454   6.600  0.9352  1.0030 -0.5653
12026SOL     OW40924   4.000   9.691   6.389 -0.3234 -0.2352 -0.3001
12026SOL    HW140925   4.022   9.629   6.459 -2.1940  0.2383  0.7709
12026SOL    HW240926   4.017   9.777   6.427 -1.1230  0.0127 -0.4837
12027SOL     OW40927   4.794   0.082   6.707 -0.0041 -0.3055 -0.3231
12027SOL    HW140928   4.835   0.157   6.750 -0.0610 -0.4706  0.0212
12027SOL    HW240929   4.832   0.006   6.751 -0.4597 -0.4644 -0.1999
12028SOL     OW40930   3.996   9.904   7.387  0.3516  0.7978  0.5486
12028SOL    HW140931   3.960   9.851   7.459  0.1725  0.5362  0.2701
12028SOL    HW240932   4.090   9.890   7.391  0.2947  0.3521  0.4001
12029SOL     OW40933   4.627   8.804   7.352  0.1263  0.1350  0.1196
12029SOL    HW140934   4.560   8.800   7.420 -1.0831 -1.2902 -1.1083
12029SOL    HW240935   4.590   8.754   7.279  2.2663 -0.1329 -0.8217
12030SOL     OW40936   3.754   9.208   6.832 -0.0683 -0.3931 -0.2415
12030SOL    HW140937   3.766   9.281   6.772  1.1064 -0.8735 -0.5978
12030SOL    HW240938   3.745   9.249   6.918 -1.3229  0.2681 -0.6655
12031SOL     OW40939   5.296   0.804   8.164  0.7316 -0.3211  0.2567
12031SOL    HW140940   5.314   0.853   8.084 -2.5127 -0.5063 -0.6509
12031SOL    HW240941   5.247   0.866   8.220  0.3010 -1.1642  0.8264
12032SOL     OW40942   3.687   9.811   5.595  0.0206  0.0312 -0.1822
12032SOL    HW140943   3.777   9.781   5.611 -0.8363 -3.3839 -1.2491
12032SOL    HW240944   3.638   9.780   5.671 -0.3705  1.3571  0.1066
12033SOL     OW40945   4.988   0.847   7.715  0.3402  0.4503 -0.6751
12033SOL    HW140946   4.939   0.786   7.661  1.5770 -1.0637 -0.1109
12033SOL    HW240947   5.073   0.854   7.671  0.9466  0.1021  0.4281
12034SOL     OW40948   4.372   1.939   6.892 -0.3769 -0.1678 -0.2733
12034SOL    HW140949   4.341   1.959   6.804 -0.6199  0.1316 -0.1202
12034SOL    HW240950   4.343   1.849   6.908 -0.3593 -0.2120 -0.4862
12035SOL     OW40951   4.195   0.481   7.074 -0.1183  0.5006  0.4142
12035SOL    HW140952   4.178   0.445   6.986  0.7452 -1.6721  1.1127
12035SOL    HW240953   4.164   0.571   7.068 -1.9717 -0.2003 -1.5281
12036SOL     OW40954   4.774   9.705   6.061  0.1889 -0.5756  0.1715
12036SOL    HW140955   4.725   9.641   6.113  0.5175 -0.2306  0.9086
12036SOL    HW240956   4.767   9.673   5.971 -0.1108 -1.3480  0.4671
12037SOL     OW40957   5.504   1.264   7.141 -0.1210  0.4590  0.0647
12037SOL    HW140958   5.441   1.192   7.147  1.5542 -1.2610 -2.0413
12037SOL    HW240959   5.491   1.300   7.053  0.7282  1.1574  0.2223
12038SOL     OW40960   4.881   0.907   6.621 -0.2864 -0.1095 -0.1464
12038SOL    HW140961   4.862   0.864   6.704 -3.1270  0.3133 -0.5275
12038SOL    HW240962   4.851   0.997   6.633  1.4578  0.5887 -0.8564
12039SOL     OW40963   4.656   1.202   7.220 -0.0771 -0.2913  0.0010
12039SOL    HW140964   4.616   1.147   7.153 -0.0265 -0.3345  0.0062
12039SOL    HW240965   4.590   1.268   7.240 -0.0246 -0.1700 -0.2187
12040SOL     OW40966   5.987   2.015   6.362 -0.0542  0.3777 -0.1620
12040SOL    HW140967   6.070   2.041   6.323 -0.1143  1.2424  0.2788
12040SOL    HW240968   6.011   1.964   6.439  0.0819  1.4892  0.5435
12041SOL     OW40969   4.310   1.686   7.269 -0.5705  0.5406  0.0922
12041SOL    HW140970   4.258   1.730   7.336 -1.2858  2.1024 -1.4480
12041SOL    HW240971   4.257   1.610   7.244  0.4236 -0.9798  2.3660
12042SOL     OW40972   5.365   1.110   5.080 -0.1361  0.0694  0.7474
12042SOL    HW140973   5.341   1.193   5.122 -0.1549  0.4298  0.0345
12042SOL    HW240974   5.431   1.135   5.015 -1.1919 -0.2716 -0.4652
12043SOL     OW40975   5.569   0.558   5.545 -0.3985 -0.0094  0.1401
12043SOL    HW140976   5.501   0.605   5.497  1.5160  1.3006 -1.3089
12043SOL    HW240977   5.561   0.467   5.515 -0.1237  0.5407 -1.6443
12044SOL     OW40978   4.470   0.819   7.860 -0.2031 -0.1941 -0.0958
12044SOL    HW140979   4.456   0.735   7.904 -1.4853  0.9772  1.8008
12044SOL    HW240980   4.565   0.831   7.859 -0.1360 -0.4617  1.9858
12045SOL     OW40981   3.116   1.569   6.350 -0.0400 -0.2986  0.6262
12045SOL    HW140982   3.065   1.647   6.330 -0.6227 -0.9803 -0.6387
12045SOL    HW240983   3.153   1.586   6.436  0.3470  1.6180  0.1026
12046SOL     OW40984   4.231   0.206   4.950  0.2070  0.2504  0.3734
12046SOL    HW140985   4.277   0.152   4.887  1.4030  1.4114  0.2159
12046SOL    HW240986   4.299   0.235   5.011 -0.7086  0.1604  1.4617
12047SOL     OW40987   5.188   9.196   6.469 -0.6262  0.3566  0.6759
12047SOL    HW140988   5.138   9.144   6.406  0.9930  1.1473 -1.3139
12047SOL    HW240989   5.122   9.242   6.521 -1.9826  0.4193 -1.0785
12048SOL     OW40990   6.895   0.692   5.873 -0.1959 -0.7733 -0.5409
12048SOL    HW140991   6.844   0.615   5.896  1.9353 -2.7272 -2.2304
12048SOL    HW240992   6.858   0.722   5.790 -1.6709  0.6940  0.5862
12049SOL     OW40993   4.933   2.679   6.662 -0.0389 -0.1256 -0.0765
12049SOL    HW140994   4.964   2.589   6.663  0.9569  0.2047  1.1831
12049SOL    HW240995   5.002   2.728   6.617  0.2502  0.2701  0.7859
12050SOL     OW40996   3.543   2.056   7.275 -0.3040  0.4028 -0.1529
12050SOL    HW140997   3.637   2.054   7.259  0.0987  3.5020  1.3227
12050SOL    HW240998   3.509   2.124   7.216 -1.4415  0.0579  0.0806
12051SOL     OW40999   5.268   1.330   5.655  0.9633  0.0426  1.2352
12051SOL    HW141000   5.244   1.272   5.727 -0.0771 -0.6677  0.3244
12051SOL    HW241001   5.203   1.313   5.587  2.5309 -0.0351 -0.2727
12052SOL     OW41002   3.832   0.810   5.757 -0.3112 -0.8010  0.4343
12052SOL    HW141003   3.859   0.835   5.846 -0.4083  0.4361  0.1226
12052SOL    HW241004   3.761   0.747   5.770 -1.2344  0.3787  1.2470
12053SOL     OW41005   3.771   8.927   7.974  0.0813 -0.7311 -0.5060
12053SOL    HW141006   3.857   8.887   7.959  1.1499  1.1811  0.3522
12053SOL    HW241007   3.762   8.991   7.903 -0.6158 -0.8653 -0.5430
12054SOL     OW41008   3.620   0.075   5.851 -0.2071 -0.0170  0.0008
12054SOL    HW141009   3.590   0.023   5.926  1.5047 -3.6739 -1.7103
12054SOL    HW241010   3.715   0.064   5.851 -0.0627  1.1028 -1.9064
12055SOL     OW41011   5.809   0.367   5.624  0.3485 -0.3424  0.5480
12055SOL    HW141012   5.718   0.392   5.609  0.6121  0.1361 -0.2814
12055SOL    HW241013   5.804   0.291   5.682 -0.5966 -0.6142  0.1170
12056SOL     OW41014   3.808   1.671   8.377 -0.2511  0.5890  0.3933
12056SOL    HW141015   3.904   1.673   8.384 -0.3377 -0.1949  1.8829
12056SOL    HW241016   3.778   1.735   8.442 -0.7363  0.9980 -0.2291
12057SOL     OW41017   3.674   1.464   4.906  1.2640  0.5188  0.1745
12057SOL    HW141018   3.676   1.533   4.973 -0.0817  1.6337 -0.9097
12057SOL    HW241019   3.654   1.384   4.955 -0.5043  1.4376  1.0223
12058SOL     OW41020   4.353   9.783   5.842 -0.4617  0.0119 -0.1025
12058SOL    HW141021   4.413   9.722   5.800  0.7038  1.1540 -0.1375
12058SOL    HW241022   4.386   9.790   5.932  0.4084  1.8307 -0.5447
12059SOL     OW41023   4.245   0.394   6.825 -0.5440  0.5545  0.1720
12059SOL    HW141024   4.340   0.387   6.811 -0.3997  2.1582  0.3099
12059SOL    HW241025   4.212   0.307   6.803  1.0778 -0.3359  1.0749
12060SOL     OW41026   6.227   0.801   5.852  0.5263  0.3993 -0.0470
12060SOL    HW141027   6.227   0.707   5.869  1.3631  0.1480 -1.4107
12060SOL    HW241028   6.244   0.841   5.938  0.2154 -0.6919  0.5233
12061SOL     OW41029   5.286   2.267   5.928 -0.3924  0.1567 -0.3709
12061SOL    HW141030   5.317   2.236   6.013 -1.2248 -0.5450 -0.3167
12061SOL    HW241031   5.231   2.195   5.895 -2.3577  1.5643 -0.2409
12062SOL     OW41032   3.677   1.440   7.263  0.1841 -0.2519 -0.0621
12062SOL    HW141033   3.658   1.413   7.353 -0.4133 -2.6360 -0.8590
12062SOL    HW241034   3.750   1.385   7.236  0.5500  0.6457 -0.9447
12063SOL     OW41035   2.688   1.237   8.142 -0.1478 -0.5195 -0.3023
12063SOL    HW141036   2.772   1.211   8.105  0.5521  0.4161  0.5882
12063SOL    HW241037   2.676   1.178   8.216  1.0129  1.0483  1.1764
12064SOL     OW41038   6.522   9.644   5.497 -0.4972  0.0264  0.0076
12064SOL    HW141039   6.549   9.553   5.488  0.6588  0.3401  0.2485
12064SOL    HW241040   6.450   9.641   5.559  1.0011 -0.4876  1.7588
12065SOL     OW41041   2.462   2.359   7.073  0.6464 -0.2628  0.3498
12065SOL    HW141042   2.400   2.289   7.093  0.3062 -0.5489 -1.5686
12065SOL    HW241043   2.545   2.314   7.056  0.3255 -0.2895 -1.3159
12066SOL     OW41044   4.754   0.649   7.149 -0.2720 -1.0528 -0.6604
12066SOL    HW141045   4.724   0.584   7.213 -0.5101  0.4104  0.7684
12066SOL    HW241046   4.701   0.634   7.071 -2.4256 -0.6536  0.6900
12067SOL     OW41047   3.928   2.345   6.383  0.6360 -0.1107  0.3875
12067SOL    HW141048   3.898   2.435   6.370  0.4881 -0.0662  1.0547
12067SOL    HW241049   3.875   2.294   6.322  0.3072  0.1771  0.4294
12068SOL     OW41050   4.792   0.595   7.786  0.6283  0.0302  0.1258
12068SOL    HW141051   4.793   0.681   7.828  0.2321  0.3239 -0.4586
12068SOL    HW241052   4.820   0.535   7.855 -0.7667  0.4031  1.0338
12069SOL     OW41053   3.591   0.051   5.560  0.1528 -0.0924 -0.3516
12069SOL    HW141054   3.652  -0.022   5.560  0.8198  0.4643 -0.7021
12069SOL    HW241055   3.630   0.115   5.619  0.4399  0.7102 -1.4108
12070SOL     OW41056   4.575   0.545   6.291  0.0731 -0.2114  0.1988
12070SOL    HW141057   4.596   0.635   6.317 -1.7523  0.2314  0.1989
12070SOL    HW241058   4.633   0.528   6.217 -1.1705  1.8128 -1.2961
12071SOL     OW41059   3.638   1.290   7.015  0.1744 -1.1323  0.2067
12071SOL    HW141060   3.628   1.327   7.102  1.8117 -0.4780  0.1280
12071SOL    HW241061   3.645   1.195   7.029  2.0070 -0.9060  0.9318
12072SOL     OW41062   5.576   1.893   7.251 -0.3232  0.1476  0.5699
12072SOL    HW141063   5.648   1.832   7.239 -0.2851 -0.2063  2.3436
12072SOL    HW241064   5.497   1.840   7.242 -0.3235  0.2308  0.1131
12073SOL     OW41065   5.115   0.418   6.090  0.1617 -0.4822 -0.3832
12073SOL    HW141066   5.062   0.497   6.089  0.6707 -0.1372 -0.3407
12073SOL    HW241067   5.052   0.346   6.088 -0.2881 -0.0792 -2.8634
12074SOL     OW41068   3.048   0.860   7.113 -0.0515 -0.1521 -0.2363
12074SOL    HW141069   3.084   0.772   7.109  0.3994  0.0091  0.1818
12074SOL    HW241070   2.975   0.854   7.175  0.9810  0.1028  1.0388
12075SOL     OW41071   5.891   0.899   5.913  0.3215 -0.1451  0.0721
12075SOL    HW141072   5.821   0.942   5.961  0.1047  0.5929 -0.8942
12075SOL    HW241073   5.912   0.959   5.842  2.2978 -0.1110  0.6582
12076SOL     OW41074   6.390   0.885   7.178 -0.1382  0.4336  0.6680
12076SOL    HW141075   6.420   0.843   7.259 -3.2362 -0.3427  1.4842
12076SOL    HW241076   6.313   0.935   7.204  0.1861  2.0830 -1.3900
12077SOL     OW41077   3.123   9.788   9.617 -0.1229 -0.2940  0.1153
12077SOL    HW141078   3.178   9.819   9.689  1.0457 -0.8197 -0.5419
12077SOL    HW241079   3.046   9.751   9.660  0.2168  0.0853  1.0581
12078SOL     OW41080   5.111   1.020   6.971 -0.3451 -0.5918 -0.4736
12078SOL    HW141081   5.152   1.051   7.052 -0.0024 -2.3561  0.0556
12078SOL    HW241082   5.019   1.046   6.980 -0.5259 -1.5929  0.9571
12079SOL     OW41083   2.726   0.526   5.580 -0.1117 -0.1628  0.1904
12079SOL    HW141084   2.682   0.588   5.521  2.5417  0.9718 -0.6443
12079SOL    HW241085   2.695   0.440   5.550 -2.0407  0.6060 -0.1177
12080SOL     OW41086   5.082   0.056   7.161  0.4438 -0.0230 -0.1719
12080SOL    HW141087   5.166   0.098   7.182  1.1328 -1.2472 -0.3815
12080SOL    HW241088   5.016   0.123   7.180  1.4611  0.9345  0.0776
12081SOL     OW41089   3.160   9.165   5.450  0.4761  0.0605  0.1146
12081SOL    HW141090   3.181   9.165   5.356 -0.4780  1.5229 -0.1230
12081SOL    HW241091   3.143   9.074   5.471  0.2531 -0.2255 -1.2476
12082SOL     OW41092   4.694   1.626   6.210 -0.2812 -0.4003 -0.4970
12082SOL    HW141093   4.621   1.596   6.264 -0.0282  1.0442  0.6645
12082SOL    HW241094   4.762   1.652   6.273 -0.1017  1.6051 -1.4787
12083SOL     OW41095   4.399   0.649   7.270  0.0521 -0.1651  0.4116
12083SOL    HW141096   4.430   0.558   7.268 -0.4642 -0.3295 -0.2273
12083SOL    HW241097   4.344   0.654   7.348 -0.8725 -0.7153 -0.1997
12084SOL     OW41098   3.595   1.363   5.663  0.2772 -0.4294 -0.0643
12084SOL    HW141099   3.630   1.274   5.660  1.8046  0.1870 -1.5331
12084SOL    HW241100   3.563   1.374   5.752  0.7741 -2.1895  0.3432
12085SOL     OW41101   3.933   0.259   7.869  0.7498 -0.0227  0.2554
12085SOL    HW141102   3.883   0.331   7.908  1.0583 -0.7253  2.0307
12085SOL    HW241103   4.024   0.278   7.892  0.8962 -0.6381  0.2134
12086SOL     OW41104   3.283   9.249   7.264  0.8650  0.2211  0.2460
12086SOL    HW141105   3.284   9.333   7.309 -0.4520  0.5091 -0.2259
12086SOL    HW241106   3.232   9.191   7.322  1.3022 -0.1000  0.3125
12087SOL     OW41107   7.514   2.401   6.387  0.2201  0.2749  0.3352
12087SOL    HW141108   7.569   2.341   6.337 -0.2964 -0.3049  0.4475
12087SOL    HW241109   7.564   2.420   6.467  0.7857  0.7296 -0.1224
12088SOL     OW41110   5.842   0.169   7.843 -0.2362 -0.2325  0.2840
12088SOL    HW141111   5.751   0.149   7.822 -0.3783 -0.7415  1.3208
12088SOL    HW241112   5.839   0.195   7.936  0.5840  0.3453  0.1529
12089SOL     OW41113   4.175   0.655   5.727  0.4168 -1.1849 -0.0157
12089SOL    HW141114   4.159   0.724   5.663 -0.1230 -1.5825 -0.3109
12089SOL    HW241115   4.126   0.682   5.804  0.0592 -1.3224 -0.1917
12090SOL     OW41116   4.096   0.445   4.967 -0.1527 -0.0386  0.1708
12090SOL    HW141117   4.130   0.355   4.969 -1.1294 -0.4211 -0.2180
12090SOL    HW241118   4.072   0.463   5.058  0.2654 -0.0901  0.2908
12091SOL     OW41119   4.337   0.917   5.617 -0.3593 -0.0991 -0.4046
12091SOL    HW141120   4.344   0.824   5.599  0.1321  0.2258 -1.8930
12091SOL    HW241121   4.382   0.929   5.701 -1.5080 -1.3842  0.4181
12092SOL     OW41122   4.243   1.494   5.722  0.5598  0.4781  0.0268
12092SOL    HW141123   4.252   1.415   5.775  1.3158  1.5302  1.4787
12092SOL    HW241124   4.279   1.564   5.776  2.8014  1.3493 -2.4814
12093SOL     OW41125   4.430   0.528   6.549  0.3342  0.1291 -0.4323
12093SOL    HW141126   4.464   0.582   6.621  0.6647 -0.3960 -0.1938
12093SOL    HW241127   4.486   0.550   6.474 -0.7694  1.5734 -0.8511
12094SOL     OW41128   3.686   0.619   7.276  0.3222 -0.3398  0.2893
12094SOL    HW141129   3.644   0.674   7.210 -0.5809 -0.0278  1.1155
12094SOL    HW241130   3.699   0.535   7.232  0.2123  0.0287 -0.4568
12095SOL     OW41131   3.902   2.087   6.646  0.1457  0.7581 -0.5433
12095SOL    HW141132   3.956   2.124   6.576  1.0403 -0.7100 -0.6628
12095SOL    HW241133   3.824   2.053   6.601  0.5507  0.1413 -0.7826
12096SOL     OW41134   3.809   0.418   7.609 -0.1604 -0.2041 -0.3976
12096SOL    HW141135   3.827   0.452   7.697  0.2671  0.0265 -0.5761
12096SOL    HW241136   3.715   0.399   7.610 -0.2679  0.3155 -0.0633
12097SOL     OW41137   4.510   1.356   5.695  0.7306  0.0075 -0.7824
12097SOL    HW141138   4.537   1.411   5.769  0.8214 -0.6105 -0.3552
12097SOL    HW241139   4.526   1.410   5.618 -0.7540  1.2182 -0.2681
12098SOL     OW41140   2.697   9.812   7.345  0.2250 -0.2289  0.1963
12098SOL    HW141141   2.793   9.816   7.352  0.1363 -0.9099  2.0421
12098SOL    HW241142   2.668   9.900   7.367  0.4757  0.4045 -1.8570
12099SOL     OW41143   4.300   1.061   6.089 -0.3291 -0.2215 -0.3263
12099SOL    HW141144   4.304   0.970   6.119 -0.3092  0.2839  1.2115
12099SOL    HW241145   4.304   1.113   6.169 -1.6635  1.1178 -1.1111
12100SOL     OW41146   4.959   0.673   7.517 -0.4296 -1.1296 -0.1562
12100SOL    HW141147   5.007   0.736   7.463  0.4547 -2.2680 -0.7417
12100SOL    HW241148   4.867   0.686   7.494 -0.2027 -0.4841 -0.7265
12101SOL     OW41149   4.640   9.679   6.591  0.7130 -0.1654 -0.5386
12101SOL    HW141150   4.731   9.667   6.616  0.7156  0.1254 -0.3988
12101SOL    HW241151   4.590   9.648   6.666  0.6955 -0.4204 -0.6565
12102SOL     OW41152   4.879   1.962   5.726 -0.1038 -0.1140  0.1538
12102SOL    HW141153   4.804   1.942   5.670 -0.3786  0.6014  0.2623
12102SOL    HW241154   4.884   1.888   5.787  0.0921 -0.8077 -0.6987
12103SOL     OW41155   5.272   0.481   5.732 -0.0941  0.0236 -0.9283
12103SOL    HW141156   5.184   0.443   5.738 -0.3582  0.7405 -0.1916
12103SOL    HW241157   5.268   0.559   5.787  1.0175  0.0328 -0.8525
12104SOL     OW41158   5.759   0.416   6.024  0.4197  0.0039  0.6503
12104SOL    HW141159   5.698   0.438   5.953  2.0381 -0.2560 -0.8367
12104SOL    HW241160   5.825   0.485   6.021  0.4468  0.0382  1.9671
12105SOL     OW41161   6.619   9.121   6.345  0.5480 -0.3630  0.4912
12105SOL    HW141162   6.683   9.191   6.361  0.1335  0.4412 -1.2418
12105SOL    HW241163   6.669   9.052   6.302  0.2399  0.3451 -1.0406
12106SOL     OW41164   3.037   1.072   4.975 -0.1725 -0.0307  0.2934
12106SOL    HW141165   2.953   1.090   5.017 -0.4991 -1.3646  0.2421
12106SOL    HW241166   3.029   1.107   4.887 -0.9309 -0.7422  0.0716
12107SOL     OW41167   4.785   0.455   6.129  0.9247 -0.1045  0.3135
12107SOL    HW141168   4.741   0.423   6.051 -0.7131 -0.6056  1.3977
12107SOL    HW241169   4.829   0.378   6.165 -1.6303 -0.8425  2.0123
12108SOL     OW41170   2.801   0.456   9.999  0.9689  0.3244  0.3675
12108SOL    HW141171   2.871   0.424   9.941  0.9277  1.3331 -0.2463
12108SOL    HW241172   2.731   0.391   9.990  1.4650 -0.2032  0.2748
12109SOL     OW41173   4.828   9.969   7.667  0.2736 -0.6704 -0.3683
12109SOL    HW141174   4.884  10.045   7.680 -1.0958  0.7742 -2.4874
12109SOL    HW241175   4.862   9.927   7.588 -1.1874 -0.1439 -1.3023
12110SOL     OW41176   3.055   1.440   7.823  0.6560  0.4062  0.1675
12110SOL    HW141177   2.982   1.380   7.805  0.6781  1.4076 -3.6230
12110SOL    HW241178   3.133   1.384   7.819  0.4526  0.1593 -0.3955
12111SOL     OW41179   5.054   0.877   8.317 -0.9031 -0.0174  0.3535
12111SOL    HW141180   5.106   0.937   8.369 -0.0963 -0.6654  0.3017
12111SOL    HW241181   4.991   0.933   8.271 -0.5143  0.7197  0.7190
12112SOL     OW41182   4.851   1.167   7.469  0.5440 -0.0073 -0.2046
12112SOL    HW141183   4.850   1.242   7.529 -0.5326  0.1134 -0.3585
12112SOL    HW241184   4.811   1.096   7.519  2.1733 -0.6794  0.1766
12113SOL     OW41185   6.124   9.642   8.830 -0.1405  0.1504  0.2063
12113SOL    HW141186   6.063   9.574   8.802  1.3244 -0.7900 -0.7282
12113SOL    HW241187   6.074   9.724   8.822 -1.0409 -0.5335 -1.2563
12114SOL     OW41188   2.369   1.579   8.202 -0.4288  0.1777 -0.5944
12114SOL    HW141189   2.308   1.521   8.155 -0.5648 -0.9315  0.9117
12114SOL    HW241190   2.443   1.589   8.143 -0.9711 -0.5087 -1.4053
12115SOL     OW41191   4.942   0.073   0.073 -0.2467 -0.3413 -0.3274
12115SOL    HW141192   4.926   0.000   0.133  0.3447 -1.0233 -0.9818
12115SOL    HW241193   5.014   0.122   0.111 -0.6401 -0.0962  0.1087
12116SOL     OW41194   5.106   0.465   9.049  0.3037  0.4474  0.0332
12116SOL    HW141195   5.145   0.440   9.132 -1.3461 -0.6260  0.4988
12116SOL    HW241196   5.017   0.493   9.071  0.1429  1.0341 -1.2556
12117SOL     OW41197   3.634   1.307   9.223 -0.5249 -0.1850  0.2703
12117SOL    HW141198   3.651   1.371   9.154 -1.6932 -1.5806 -1.3582
12117SOL    HW241199   3.654   1.353   9.304  0.0017  1.7810 -0.9423
12118SOL     OW41200   3.500   2.506   8.106 -0.3048  0.5289 -0.5780
12118SOL    HW141201   3.526   2.569   8.039 -2.7973  0.1747 -1.9452
12118SOL    HW241202   3.561   2.520   8.178  0.7580  2.7498 -1.8787
12119SOL     OW41203   3.551   0.378   1.251 -0.0149  0.0041 -0.0549
12119SOL    HW141204   3.471   0.352   1.205  1.0668 -0.9471 -1.4714
12119SOL    HW241205   3.620   0.328   1.208  1.3675  0.9259  1.0411
12120SOL     OW41206   2.898   0.621   8.578  0.3538 -0.1700 -0.1024
12120SOL    HW141207   2.849   0.556   8.527 -0.1148  0.3391 -0.3055
12120SOL    HW241208   2.837   0.694   8.589 -0.3029 -1.1525  3.0675
12121SOL     OW41209   6.248   0.471   8.657 -0.4065 -0.0642 -0.5604
12121SOL    HW141210   6.269   0.540   8.593 -0.0274 -0.3059 -0.6984
12121SOL    HW241211   6.170   0.428   8.622 -1.1918  0.8944 -0.0070
12122SOL     OW41212   3.843   1.353   7.884 -0.1390 -0.8230 -0.2793
12122SOL    HW141213   3.929   1.312   7.890 -0.3813 -1.0751  1.7253
12122SOL    HW241214   3.789   1.304   7.946 -2.1321 -1.6369 -2.5928
12123SOL     OW41215   4.620   1.322   8.721 -0.1773  0.6327 -1.0285
12123SOL    HW141216   4.567   1.243   8.732 -0.1969  0.7370 -0.3637
12123SOL    HW241217   4.569   1.392   8.761  0.7598  0.6069  0.2325
12124SOL     OW41218   4.724   2.833   7.138 -0.7673 -0.5509  0.2692
12124SOL    HW141219   4.781   2.893   7.089 -1.8349  0.4830  0.2812
12124SOL    HW241220   4.753   2.746   7.112  0.5597 -0.0323 -0.0322
12125SOL     OW41221   4.655   0.693   8.963 -0.6456 -0.5723 -0.2477
12125SOL    HW141222   4.690   0.613   8.924  1.6276  0.4375 -0.3498
12125SOL    HW241223   4.616   0.665   9.046  0.1590 -1.7678 -0.2694
12126SOL     OW41224   3.939   1.346   8.556  0.2661  0.0849  0.3722
12126SOL    HW141225   3.967   1.339   8.648  1.8338 -1.0317 -0.1770
12126SOL    HW241226   3.975   1.430   8.527  2.8513 -1.1627 -0.2187
12127SOL     OW41227   4.078   1.201   7.908  0.1271 -0.5226 -0.0774
12127SOL    HW141228   4.119   1.131   7.958  2.3697 -0.5296 -1.8641
12127SOL    HW241229   4.069   1.167   7.820  1.7998  1.5867 -1.1250
12128SOL     OW41230   4.143   1.330   9.280 -0.2319  0.5445 -0.4415
12128SOL    HW141231   4.192   1.270   9.224 -0.7712  1.2120 -1.6560
12128SOL    HW241232   4.160   1.300   9.369  2.2082  0.6522 -0.8486
12129SOL     OW41233   4.829   2.986   6.949  0.0414 -0.0823 -0.5831
12129SOL    HW141234   4.796   2.922   6.886 -1.3531  0.8812 -0.8603
12129SOL    HW241235   4.756   3.046   6.963  1.4832  1.7602 -0.7324
12130SOL     OW41236   3.299   1.311   7.790 -0.1958  0.4909  0.1334
12130SOL    HW141237   3.372   1.343   7.843  0.7782 -0.5711 -0.5292
12130SOL    HW241238   3.331   1.316   7.700 -0.6458 -0.7177 -0.1069
12131SOL     OW41239   6.023   8.357   9.375  0.1215 -0.6081 -0.1512
12131SOL    HW141240   6.057   8.447   9.374 -0.8109 -0.2478 -1.6944
12131SOL    HW241241   6.082   8.308   9.318  0.5619 -0.9460  0.5991
12132SOL     OW41242   6.139   9.977   9.059  0.4847 -0.6664  0.2744
12132SOL    HW141243   6.232   9.953   9.063  0.3944 -0.6941  4.1883
12132SOL    HW241244   6.133  10.057   9.111 -1.5119 -0.0493 -0.8803
12133SOL     OW41245   3.022   1.446   8.695 -0.0842  0.0358  0.6755
12133SOL    HW141246   3.073   1.387   8.751 -1.6361 -0.8083  1.2305
12133SOL    HW241247   3.024   1.405   8.609 -2.8928 -2.0216  1.4917
12134SOL     OW41248   2.872   1.395   7.506 -0.1238  0.1182 -0.2576
12134SOL    HW141249   2.874   1.302   7.486  0.3860 -0.6657  3.0743
12134SOL    HW241250   2.959   1.427   7.482  0.4134 -0.7318  0.5316
12135SOL     OW41251   6.594   1.981   8.401  0.1474  0.3376  0.4196
12135SOL    HW141252   6.680   2.015   8.426  0.6504  1.2697 -2.3443
12135SOL    HW241253   6.558   1.944   8.481  4.1180 -2.2554  1.1303
12136SOL     OW41254   3.133   1.198   8.819 -0.1283 -0.4543  0.6448
12136SOL    HW141255   3.087   1.156   8.746  0.2371  1.7787 -0.9016
12136SOL    HW241256   3.208   1.141   8.835 -0.3788 -1.1422 -0.5170
12137SOL     OW41257   5.984   0.600   8.541 -0.4782  0.2009  0.5256
12137SOL    HW141258   5.941   0.613   8.457  0.5561 -0.5833 -0.1282
12137SOL    HW241259   5.985   0.506   8.554  0.2827  0.2641  0.9407
12138SOL     OW41260   3.404   9.340   0.272  0.0745  0.2664 -0.1353
12138SOL    HW141261   3.342   9.284   0.319 -1.1490  1.9278  0.2864
12138SOL    HW241262   3.488   9.296   0.281 -0.9305 -1.7250 -0.1927
12139SOL     OW41263   5.190   1.266   6.879 -0.0358 -0.1630 -0.2518
12139SOL    HW141264   5.113   1.321   6.891  0.5012  0.4106  0.6696
12139SOL    HW241265   5.160   1.177   6.900 -0.0302  0.3007  1.9055
12140SOL     OW41266   3.362   1.255   7.523  0.1390 -0.0257  0.0611
12140SOL    HW141267   3.330   1.203   7.449 -0.7400 -0.6426  0.8589
12140SOL    HW241268   3.398   1.334   7.483 -1.3930  0.1827 -0.9365
12141SOL     OW41269   4.110   2.042   7.849 -0.8618 -0.0590  0.0838
12141SOL    HW141270   4.200   2.073   7.834 -0.8316  0.2693  0.8981
12141SOL    HW241271   4.092   2.066   7.940 -0.8038 -2.4936  0.7725
12142SOL     OW41272   5.590   2.478   6.788 -0.0456  0.3172  0.5669
12142SOL    HW141273   5.574   2.557   6.840  0.2426  0.1446  0.9198
12142SOL    HW241274   5.593   2.407   6.852  0.3545  0.1062  0.3166
12143SOL     OW41275   4.719   0.849   8.369  0.5952 -0.1062  0.3643
12143SOL    HW141276   4.722   0.790   8.294 -0.2308 -0.0799  0.2981
12143SOL    HW241277   4.778   0.921   8.347 -0.7468  0.6447 -0.9114
12144SOL     OW41278   3.998   1.236   8.203 -0.7999  0.2637 -0.0243
12144SOL    HW141279   3.905   1.232   8.224 -0.8197 -2.9526 -0.4685
12144SOL    HW241280   4.002   1.279   8.118 -1.6563  2.3634  0.9421
12145SOL     OW41281   5.371   0.889   7.908  0.7469 -0.3467 -0.5331
12145SOL    HW141282   5.464   0.898   7.929  1.1160 -1.1978 -1.7160
12145SOL    HW241283   5.357   0.947   7.833  0.6493 -1.2673 -1.2351
12146SOL     OW41284   4.841   0.229   8.521  0.1589 -0.0258 -0.3872
12146SOL    HW141285   4.774   0.189   8.577 -0.0485  1.3655  0.3659
12146SOL    HW241286   4.793   0.284   8.460  0.4064 -1.3548 -1.8101
12147SOL     OW41287   2.991   1.014   8.521 -0.7489  0.5846  0.6771
12147SOL    HW141288   2.984   0.973   8.607 -1.0076 -0.0968  0.3289
12147SOL    HW241289   2.914   0.984   8.473 -0.7733  1.2178  0.3116
12148SOL     OW41290   3.333   2.580   7.164  0.1795  1.4890 -0.3357
12148SOL    HW141291   3.366   2.669   7.174  0.3810  1.5295 -1.2679
12148SOL    HW241292   3.262   2.587   7.100  2.0434  0.5944 -2.5993
12149SOL     OW41293   4.884   3.357   0.141  0.0324  0.3012  0.1353
12149SOL    HW141294   4.853   3.269   0.124 -0.9301  0.8089 -0.7891
12149SOL    HW241295   4.980   3.350   0.137 -0.0634 -0.4612 -1.1975
12150SOL     OW41296   3.519   9.215   7.797  0.3429 -0.2657 -0.1880
12150SOL    HW141297   3.573   9.256   7.730  3.0540 -3.0729  0.1747
12150SOL    HW241298   3.562   9.236   7.879  0.4115 -1.7696  0.1795
12151SOL     OW41299   5.763   0.243   9.096 -0.0310 -0.1334 -0.0677
12151SOL    HW141300   5.757   0.159   9.142  1.1645 -0.0524  0.2316
12151SOL    HW241301   5.852   0.273   9.111 -0.6504  1.5491  0.4299
12152SOL     OW41302   5.290   1.110   8.200  0.4878  0.9043 -0.6821
12152SOL    HW141303   5.357   1.086   8.264 -1.4393  2.5093  2.0251
12152SOL    HW241304   5.311   1.201   8.177 -0.1646  1.0810 -0.5859
12153SOL     OW41305   4.695   0.415   8.292 -0.5029 -0.6530  0.3967
12153SOL    HW141306   4.673   0.500   8.329 -1.5751  0.1132 -1.9221
12153SOL    HW241307   4.612   0.383   8.255  0.6527 -1.0330 -1.9567
12154SOL     OW41308   3.659   1.137   8.880 -0.5249  0.2334  0.2890
12154SOL    HW141309   3.565   1.130   8.863 -0.5991  0.0742  0.7662
12154SOL    HW241310   3.682   1.056   8.926 -0.2166  0.4128  0.4583
12155SOL     OW41311   3.173   3.010   9.524  0.1918  0.6162  0.5831
12155SOL    HW141312   3.176   2.933   9.581 -0.3676  0.3179  0.2173
12155SOL    HW241313   3.208   2.979   9.441 -2.0177  0.1652 -0.2253
12156SOL     OW41314   6.755   1.705   8.557  0.5265 -0.3301 -0.0571
12156SOL    HW141315   6.679   1.732   8.609  0.1445 -0.7934 -0.3664
12156SOL    HW241316   6.800   1.786   8.536  0.1993 -0.0643  0.2592
12157SOL     OW41317   5.334   0.122   9.675  0.5040  0.0278 -0.1333
12157SOL    HW141318   5.410   0.153   9.626 -0.5073  0.3439 -1.5111
12157SOL    HW241319   5.319   0.189   9.741  2.3864 -0.8028  1.2075
12158SOL     OW41320   2.692   0.187   7.212  1.0372 -0.1063 -0.3038
12158SOL    HW141321   2.639   0.265   7.230  0.2201 -0.8079  0.3703
12158SOL    HW241322   2.778   0.222   7.188  0.8010  0.9881  0.4091
12159SOL     OW41323   4.800   0.900   7.257  0.5619  0.3398 -0.5396
12159SOL    HW141324   4.802   0.815   7.213 -1.6664  0.4700 -0.9331
12159SOL    HW241325   4.711   0.907   7.291  0.6644  2.6177 -0.6938
12160SOL     OW41326   4.394   0.617   7.578  0.1893 -0.2700  0.0568
12160SOL    HW141327   4.328   0.578   7.521  1.3659 -0.3296 -1.2920
12160SOL    HW241328   4.419   0.547   7.638 -1.1300 -0.1730  0.7542
12161SOL     OW41329   5.138   0.744   6.949 -0.1768 -0.4059 -0.3905
12161SOL    HW141330   5.045   0.726   6.940 -0.6352  1.5956  0.0543
12161SOL    HW241331   5.144   0.840   6.951  1.8922 -0.5016 -0.4926
12162SOL     OW41332   3.568   0.490   8.541  0.2197 -0.1302 -0.3019
12162SOL    HW141333   3.525   0.569   8.573  2.2314 -0.4780  3.5053
12162SOL    HW241334   3.647   0.522   8.498  0.1879  0.0296 -0.2408
12163SOL     OW41335   3.269   2.923   8.161  0.0882  0.2357 -0.5241
12163SOL    HW141336   3.246   2.952   8.073  0.0076  0.6742 -0.3587
12163SOL    HW241337   3.258   2.828   8.159  0.3527  0.2160 -1.0645
12164SOL     OW41338   4.996   9.958   6.344  0.0070  0.3068 -0.2357
12164SOL    HW141339   5.023   9.880   6.296  0.7218  0.5720 -0.2665
12164SOL    HW241340   4.981   9.928   6.433  1.3230  0.3304  0.0082
12165SOL     OW41341   2.279   2.417   7.403  0.2177 -0.2955  0.3399
12165SOL    HW141342   2.372   2.436   7.397  0.1738  0.3593  1.5931
12165SOL    HW241343   2.272   2.354   7.476 -0.1847 -1.2905 -0.5454
12166SOL     OW41344   3.643   2.829   8.212 -0.1145 -0.2312  0.2327
12166SOL    HW141345   3.597   2.883   8.148  1.0158 -0.1632 -0.5348
12166SOL    HW241346   3.591   2.837   8.292 -1.7811 -0.6663 -0.7907
12167SOL     OW41347   3.800   0.974   6.928  0.2681  0.4563 -0.6060
12167SOL    HW141348   3.846   1.011   6.853 -0.9201  2.5075 -0.3779
12167SOL    HW241349   3.809   0.880   6.919  3.0402  0.7654 -1.4733
12168SOL     OW41350   5.981   9.739   8.548  0.0649  0.1689  0.5071
12168SOL    HW141351   6.003   9.766   8.637  0.0390  2.0770 -0.0417
12168SOL    HW241352   5.889   9.761   8.538  0.0854  0.0196 -0.0191
12169SOL     OW41353   3.804   1.049   6.231 -0.2824 -0.2456  0.8709
12169SOL    HW141354   3.770   1.001   6.306 -1.4492  0.4120  0.7730
12169SOL    HW241355   3.896   1.064   6.252 -0.4411 -0.6384  1.8752
12170SOL     OW41356   4.061   1.076   7.633 -0.3842 -0.5285 -0.3784
12170SOL    HW141357   4.144   1.032   7.649  0.5947  1.7245  1.0230
12170SOL    HW241358   4.077   1.129   7.555 -0.6284 -0.4219 -0.3551
12171SOL     OW41359   4.332   0.358   9.077 -0.8088  0.3088 -0.0972
12171SOL    HW141360   4.273   0.321   9.143  0.2624 -0.0752  0.6696
12171SOL    HW241361   4.323   0.300   9.001  0.2178 -1.0671  0.7962
12172SOL     OW41362   3.098   0.059   8.625  0.4906  0.2665 -0.5629
12172SOL    HW141363   3.044   0.085   8.550 -0.7517 -0.3048  0.1163
12172SOL    HW241364   3.053   0.095   8.701  2.2870  1.7048 -0.1511
12173SOL     OW41365   5.136   0.062   7.448  0.1765 -0.2328  0.2739
12173SOL    HW141366   5.223   0.060   7.487  0.7960 -1.7987 -1.1593
12173SOL    HW241367   5.141   0.130   7.380  0.4341 -0.6937 -0.1670
12174SOL     OW41368   4.248   1.219   8.320 -0.1208 -0.0875 -0.3182
12174SOL    HW141369   4.155   1.212   8.301 -0.0323  0.1925 -0.8555
12174SOL    HW241370   4.252   1.249   8.411 -0.5695  1.5668 -0.8461
12175SOL     OW41371   4.123   0.222   8.180  0.4560 -0.9738 -0.0411
12175SOL    HW141372   4.212   0.190   8.193  0.7338 -0.4180 -0.5237
12175SOL    HW241373   4.085   0.224   8.268  1.0386 -0.8838  0.2124
12176SOL     OW41374   4.653   1.034   9.211 -0.1892 -0.0977  0.4012
12176SOL    HW141375   4.695   1.118   9.196  1.4299 -0.8939  0.4278
12176SOL    HW241376   4.564   1.046   9.178  0.6343  0.9930 -1.5327
12177SOL     OW41377   2.903   1.265   9.366  0.3932 -0.0751 -0.0853
12177SOL    HW141378   2.904   1.360   9.377 -2.0839  0.4483 -3.4589
12177SOL    HW241379   2.995   1.240   9.365  1.1528  2.5990 -1.1377
12178SOL     OW41380   4.726   2.457   8.493  0.2906 -0.0210  0.1849
12178SOL    HW141381   4.739   2.380   8.437  0.2828 -0.8870  1.3580
12178SOL    HW241382   4.631   2.468   8.497  0.2658 -0.3687  0.5736
12179SOL     OW41383   3.904   0.182   8.377 -0.0550  0.8037 -0.0415
12179SOL    HW141384   3.815   0.160   8.404 -0.9955  1.2493 -2.6100
12179SOL    HW241385   3.954   0.101   8.388 -0.9601  0.3274  0.6164
12180SOL     OW41386   3.724   1.080   9.720  0.1088 -0.1040 -0.2491
12180SOL    HW141387   3.646   1.025   9.724 -0.7980  1.1831  0.6887
12180SOL    HW241388   3.748   1.093   9.812  1.6099 -0.7272 -0.5480
12181SOL     OW41389   4.053   0.654   7.822 -0.6381 -0.2766  0.3090
12181SOL    HW141390   4.105   0.573   7.822  1.8687  1.2749  0.5961
12181SOL    HW241391   4.052   0.681   7.914 -1.4562  0.0307  0.2125
12182SOL     OW41392   5.843   1.839   7.728 -1.1710  0.4651  0.9379
12182SOL    HW141393   5.814   1.784   7.655 -1.8268  0.0612  1.4940
12182SOL    HW241394   5.881   1.777   7.791  0.4774  0.9413  0.4301
12183SOL     OW41395   4.503   2.129   8.582 -0.2915  0.2157  0.2708
12183SOL    HW141396   4.596   2.104   8.579 -0.2541  0.4992 -1.5070
12183SOL    HW241397   4.465   2.072   8.648  0.9747 -0.5114  0.3896
12184SOL     OW41398   7.110   3.027   6.875 -0.5588  0.2352  0.1767
12184SOL    HW141399   7.064   2.992   6.951 -0.7774 -1.0316 -0.5130
12184SOL    HW241400   7.040   3.053   6.815 -0.3837 -0.4951 -0.3455
12185SOL     OW41401   5.266   1.095   9.000  0.2654  0.5841 -0.2657
12185SOL    HW141402   5.332   1.030   9.023  0.4157  0.2889 -1.5048
12185SOL    HW241403   5.272   1.160   9.070  0.0129 -0.7871  1.0726
12186SOL     OW41404   5.109   2.116   6.948  0.3286 -0.1889  0.8270
12186SOL    HW141405   5.133   2.166   6.870 -0.2054 -0.5694  0.4181
12186SOL    HW241406   5.014   2.103   6.940  0.3345 -0.5486  1.3517
12187SOL     OW41407   4.574   0.879   9.479  0.2255  0.7766 -0.0715
12187SOL    HW141408   4.606   0.940   9.545  0.1698 -0.3790  1.0560
12187SOL    HW241409   4.481   0.902   9.468 -0.1425  0.0459  1.3487
12188SOL     OW41410   3.794   1.604   6.378  0.2108  0.3623 -1.0190
12188SOL    HW141411   3.758   1.564   6.299  0.4198  0.8863 -1.3851
12188SOL    HW241412   3.846   1.678   6.346  0.0884  0.7337 -0.3792
12189SOL     OW41413   5.107   0.783   9.005  0.1009  0.3736 -0.7435
12189SOL    HW141414   5.047   0.713   9.030  0.2124  0.9382  1.1433
12189SOL    HW241415   5.180   0.775   9.066  0.5376  1.5730 -1.0945
12190SOL     OW41416   6.709   1.444   9.223  0.0644 -0.4471  0.4252
12190SOL    HW141417   6.791   1.460   9.271 -0.1302  2.4199 -0.1364
12190SOL    HW241418   6.738   1.421   9.135  0.3065 -1.1091  0.6730
12191SOL     OW41419   4.776   0.779   8.651 -1.1985  0.3446  0.0231
12191SOL    HW141420   4.804   0.688   8.642 -1.7824 -0.1257  2.7109
12191SOL    HW241421   4.752   0.805   8.562  1.2599 -1.3410 -1.1929
12192SOL     OW41422   4.235   9.911   8.638 -0.3316 -0.4399 -0.2090
12192SOL    HW141423   4.295   9.960   8.581 -0.8627 -0.2279 -0.5901
12192SOL    HW241424   4.149   9.949   8.621 -0.9631 -2.3605 -1.5148
12193SOL     OW41425   4.940   2.006   8.763  0.7881  0.0397 -0.3569
12193SOL    HW141426   4.921   1.959   8.844  0.3464 -0.5267 -0.7834
12193SOL    HW241427   4.856   2.011   8.718  0.7397  1.5910 -0.1438
12194SOL     OW41428   4.517   0.913   8.208 -0.3937 -0.5207  0.2555
12194SOL    HW141429   4.596   0.900   8.260 -1.3683 -1.5211  1.5341
12194SOL    HW241430   4.500   1.007   8.212  0.2910 -0.4091  0.6215
12195SOL     OW41431   4.915   1.403   8.789  0.0036  0.2318  0.5642
12195SOL    HW141432   4.859   1.430   8.862  0.1738 -0.4184  0.9431
12195SOL    HW241433   4.949   1.485   8.753 -1.1019  0.6344  0.4004
12196SOL     OW41434   5.859   1.483   7.649  0.1613  0.1326 -0.4229
12196SOL    HW141435   5.899   1.524   7.725 -0.6140  0.1645 -0.0269
12196SOL    HW241436   5.786   1.541   7.626  0.2012 -0.0420 -0.9936
12197SOL     OW41437   4.492   1.881   7.938  0.5196 -0.0441 -0.0030
12197SOL    HW141438   4.423   1.942   7.912  1.1070  0.4455 -0.4299
12197SOL    HW241439   4.561   1.937   7.974  0.9045 -0.4899 -0.0390
12198SOL     OW41440   2.883   1.995   7.016 -0.2208  0.7568 -0.0329
12198SOL    HW141441   2.975   2.020   7.013  0.4806 -1.4289  1.6017
12198SOL    HW241442   2.866   1.976   7.108 -1.6370 -1.1431 -0.6421
12199SOL     OW41443   4.114   9.336   8.191 -0.4701  0.1308  0.0991
12199SOL    HW141444   4.022   9.350   8.214 -0.4597  1.2205 -0.5068
12199SOL    HW241445   4.111   9.305   8.101 -0.1829  1.3611 -0.3452
12200SOL     OW41446   5.031   2.251   7.870 -0.9310 -0.2307  0.3689
12200SOL    HW141447   5.101   2.250   7.804  0.1156  0.2983  1.4398
12200SOL    HW241448   4.985   2.168   7.858 -0.1795 -0.5464 -0.4188
12201SOL     OW41449   3.389   8.767   8.388  0.1145 -0.3919 -0.2982
12201SOL    HW141450   3.340   8.765   8.306 -1.2235 -0.4513  0.4939
12201SOL    HW241451   3.430   8.854   8.390 -0.0650 -0.2922 -0.8961
12202SOL     OW41452   4.709   0.943   8.854  0.2961 -0.0824 -0.4326
12202SOL    HW141453   4.744   0.894   8.780 -0.4815  0.1071 -0.9325
12202SOL    HW241454   4.683   0.876   8.917 -0.2957 -0.3049 -0.9015
12203SOL     OW41455   5.889   1.297   9.423 -0.2095 -0.2513 -0.1328
12203SOL    HW141456   5.932   1.247   9.493  0.4902  1.3675  0.6344
12203SOL    HW241457   5.803   1.320   9.460  1.3026  3.2446  1.5235
12204SOL     OW41458   5.169   1.744   9.312 -0.1801 -0.5333  0.5002
12204SOL    HW141459   5.162   1.810   9.381 -1.6506  0.2539 -0.4065
12204SOL    HW241460   5.101   1.680   9.333  0.0417 -0.8295  0.3347
12205SOL     OW41461   3.537   9.714   9.114  0.0222 -0.4652  0.3806
12205SOL    HW141462   3.485   9.794   9.105 -0.4383 -1.0178 -2.2457
12205SOL    HW241463   3.481   9.645   9.079  1.2413 -1.6063  0.6422
12206SOL     OW41464   5.010   9.972   8.864  0.1618  0.0112  0.0276
12206SOL    HW141465   4.939   9.915   8.834  1.7495 -1.3420 -1.2327
12206SOL    HW241466   4.972  10.020   8.938 -0.9428 -3.2261  1.6335
12207SOL     OW41467   4.149   1.768   8.201 -0.2006  0.5304  0.1556
12207SOL    HW141468   4.062   1.777   8.163  0.6421  0.4227 -1.8662
12207SOL    HW241469   4.168   1.674   8.196 -0.5186  0.3496  1.9026
12208SOL     OW41470   4.889   0.510   8.597  0.0907  0.1139  0.4937
12208SOL    HW141471   4.941   0.558   8.532  0.0024  0.9216  1.0115
12208SOL    HW241472   4.953   0.460   8.647  0.1102 -0.9647 -0.5668
12209SOL     OW41473   4.218   1.434   7.907 -0.3808  0.1728  0.3037
12209SOL    HW141474   4.191   1.343   7.912 -0.9206  0.3362  0.4110
12209SOL    HW241475   4.177   1.467   7.827 -0.3774  0.3835  0.3887
12210SOL     OW41476   3.002   2.429   9.305 -0.5773  0.7644  0.1372
12210SOL    HW141477   2.933   2.417   9.370  0.0528 -0.1355  0.6605
12210SOL    HW241478   2.995   2.351   9.248  0.0288  0.6472  0.2209
12211SOL     OW41479   5.128   1.375   7.136 -0.7415 -0.1928  0.4196
12211SOL    HW141480   5.196   1.316   7.101 -0.1854  0.4888  0.3219
12211SOL    HW241481   5.058   1.372   7.071 -0.1084  0.3353 -0.3073
12212SOL     OW41482   5.963   0.172   9.770  0.1742  0.1055 -0.2904
12212SOL    HW141483   6.051   0.196   9.800  1.1518  0.9029 -3.6187
12212SOL    HW241484   5.905   0.229   9.820  1.7355  1.5576 -0.0645
12213SOL     OW41485   3.866   9.548   8.147 -0.1415 -0.0084  0.1714
12213SOL    HW141486   3.928   9.583   8.212  0.9938 -2.1588  0.2881
12213SOL    HW241487   3.803   9.499   8.198 -1.6663  1.7142 -0.0081
12214SOL     OW41488   5.232   9.791   0.066  0.0410 -0.1345  0.5586
12214SOL    HW141489   5.215   9.831  -0.019  0.2841  2.0541  1.4943
12214SOL    HW241490   5.145   9.784   0.106 -0.1777 -2.0361 -0.2344
12215SOL     OW41491   5.869   1.128   8.885  0.0491 -0.1230 -0.0794
12215SOL    HW141492   5.894   1.151   8.974 -2.1886 -0.3900  0.6455
12215SOL    HW241493   5.907   1.041   8.872 -0.3129 -0.4517  0.9437
12216SOL     OW41494   4.948   3.288   9.427  0.0181  0.0698  0.5134
12216SOL    HW141495   5.017   3.350   9.451 -1.6744  1.4369  2.0321
12216SOL    HW241496   4.983   3.203   9.452  1.0290  0.7790  1.5937
12217SOL     OW41497   4.168   0.954   9.161 -0.1920  0.3094  0.4113
12217SOL    HW141498   4.127   0.871   9.182 -0.6728  0.5638  0.4731
12217SOL    HW241499   4.207   0.941   9.074 -0.5414  0.1239  0.2847
12218SOL     OW41500   2.997   0.382   9.808 -0.3157 -0.3054 -0.3860
12218SOL    HW141501   3.072   0.345   9.855  0.5742  1.0619 -0.7305
12218SOL    HW241502   3.028   0.395   9.719 -1.0377  0.0630 -0.5858
12219SOL     OW41503   4.359   1.322   6.937 -0.0818 -0.5371  0.5252
12219SOL    HW141504   4.421   1.249   6.943 -0.9838 -1.3376  0.2039
12219SOL    HW241505   4.400   1.384   6.876  0.2465 -1.2064  0.0618
12220SOL     OW41506   5.740   0.338   8.494  0.2629 -0.6063  0.1487
12220SOL    HW141507   5.688   0.301   8.565  2.0891 -0.7650  1.4586
12220SOL    HW241508   5.708   0.428   8.485 -1.1328 -1.1188  0.0183
12221SOL     OW41509   3.884   8.936   8.871  0.4254 -0.1057 -0.5839
12221SOL    HW141510   3.859   8.995   8.942 -0.6373  0.0699 -1.1028
12221SOL    HW241511   3.958   8.886   8.906 -1.1946 -1.2337  1.2720
12222SOL     OW41512   3.389   1.618   9.213  0.0866  0.0663 -0.2792
12222SOL    HW141513   3.458   1.666   9.258 -2.2866  1.8973  1.5052
12222SOL    HW241514   3.360   1.552   9.276 -0.3867 -0.1330 -0.7001
12223SOL     OW41515   6.146   9.461   9.097 -0.4070  0.1559 -0.6035
12223SOL    HW141516   6.134   9.553   9.119  0.4566 -0.2864  1.7916
12223SOL    HW241517   6.080   9.444   9.029 -2.0108  1.9695  0.4531
12224SOL     OW41518   6.600   0.310   8.878  0.0953  0.2830  0.5000
12224SOL    HW141519   6.611   0.367   8.954  2.5995  0.7466 -0.1533
12224SOL    HW241520   6.646   0.229   8.903 -2.8091 -1.2175  1.1460
12225SOL     OW41521   4.138   1.804   7.438 -0.5752 -0.3873 -0.0568
12225SOL    HW141522   4.109   1.757   7.516 -1.7660 -1.5964 -1.2107
12225SOL    HW241523   4.061   1.855   7.410 -0.5671 -0.9953 -1.2029
12226SOL     OW41524   2.789   2.315   7.633 -0.1103 -0.5515 -0.3250
12226SOL    HW141525   2.775   2.226   7.599  1.6891 -1.8532  2.1195
12226SOL    HW241526   2.873   2.342   7.596 -1.5386  0.9478 -2.5772
12227SOL     OW41527   4.242   1.228   9.890 -0.2978 -0.6828  0.0718
12227SOL    HW141528   4.296   1.267   9.820  1.7377 -1.7975  0.9853
12227SOL    HW241529   4.194   1.158   9.846 -0.1834 -0.3985 -0.5211
12228SOL     OW41530   3.944   0.851   8.789 -0.1086  0.3516  0.2559
12228SOL    HW141531   3.867   0.894   8.827 -1.2709 -0.9623 -0.5645
12228SOL    HW241532   3.919   0.833   8.699  1.1288 -0.2244  0.0149
12229SOL     OW41533   3.401   0.702   8.590 -0.4650 -0.2529  0.3747
12229SOL    HW141534   3.361   0.712   8.677 -1.5067 -1.5763  0.0684
12229SOL    HW241535   3.470   0.768   8.587 -2.0082  1.4346  1.3028
12230SOL     OW41536   3.134   2.415   9.833 -0.2321  0.1400 -0.3014
12230SOL    HW141537   3.066   2.482   9.825 -0.4276  0.0120  0.2709
12230SOL    HW241538   3.130   2.388   9.925  0.6148  0.1538 -0.2615
12231SOL     OW41539   3.402   0.478   7.771  0.4524 -0.2587 -0.0175
12231SOL    HW141540   3.467   0.416   7.738  0.3684  0.2630 -1.1852
12231SOL    HW241541   3.330   0.474   7.708 -0.1218  0.0484  0.6149
12232SOL     OW41542   5.387   0.627   8.681  0.5312  0.1746  0.2158
12232SOL    HW141543   5.426   0.618   8.768 -1.0135 -0.3344  0.8590
12232SOL    HW241544   5.397   0.720   8.660  4.4226 -0.3770 -0.7524
12233SOL     OW41545   2.122   2.471   0.082  0.0398  0.3988 -0.2106
12233SOL    HW141546   2.207   2.439   0.112  0.5853  0.1451 -2.0209
12233SOL    HW241547   2.068   2.471   0.162  1.6293  0.2942  0.8967
12234SOL     OW41548   3.926   1.619   9.124  0.4491 -0.7635 -0.2058
12234SOL    HW141549   3.858   1.686   9.132  0.4142 -0.7536 -0.5673
12234SOL    HW241550   3.892   1.559   9.058  0.2864 -1.3726  0.4272
12235SOL     OW41551   3.730   1.282   8.372  0.0423 -0.1601 -0.2248
12235SOL    HW141552   3.795   1.305   8.439  1.7092 -3.3390 -0.6613
12235SOL    HW241553   3.677   1.213   8.412 -2.7463  1.9584 -0.1133
12236SOL     OW41554   2.587   2.047   0.523  0.1646 -0.2765  0.2331
12236SOL    HW141555   2.545   1.975   0.570 -1.0188  0.0246 -0.3264
12236SOL    HW241556   2.670   2.061   0.568 -0.4658 -0.7127  1.5505
12237SOL     OW41557   4.810   1.256   9.181 -0.4679  0.2595  0.3870
12237SOL    HW141558   4.820   1.221   9.093 -2.1161  0.0573  0.2555
12237SOL    HW241559   4.899   1.261   9.216  0.0636 -1.0292 -0.7547
12238SOL     OW41560   4.424   1.324   6.486 -0.1628 -0.2012 -0.5433
12238SOL    HW141561   4.465   1.370   6.559 -3.4976  3.9453 -1.0541
12238SOL    HW241562   4.497   1.291   6.434  2.3072 -0.2482  2.7820
12239SOL     OW41563   6.319   1.251   8.817  0.7434 -0.7850 -0.2397
12239SOL    HW141564   6.234   1.268   8.857  1.8344  0.5192  1.5559
12239SOL    HW241565   6.322   1.156   8.807 -0.6281 -0.9009  0.3429
12240SOL     OW41566   5.945   2.736   6.195  0.1303  0.1789  0.2418
12240SOL    HW141567   5.872   2.782   6.154 -0.1300 -0.2523  0.2168
12240SOL    HW241568   5.906   2.689   6.269 -0.1376 -2.2668 -1.3635
12241SOL     OW41569   2.504   2.755   8.731  0.0125 -0.4848 -0.3336
12241SOL    HW141570   2.480   2.722   8.818 -0.7589 -1.0859 -0.7696
12241SOL    HW241571   2.585   2.804   8.746 -0.1301 -0.5489  0.7316
12242SOL     OW41572   6.154   8.737   7.402 -0.1222 -0.0842  0.4185
12242SOL    HW141573   6.141   8.803   7.335 -0.6934 -2.5921 -2.0477
12242SOL    HW241574   6.067   8.719   7.437  0.2770  1.8653  2.5789
12243SOL     OW41575   3.667   1.848   6.221 -0.3220 -0.3011  0.8520
12243SOL    HW141576   3.614   1.793   6.279 -0.7194 -0.1541  0.6276
12243SOL    HW241577   3.616   1.927   6.209 -0.6731 -0.7134 -0.4489
12244SOL     OW41578   3.728   3.117   9.138  0.4838  0.0491  0.7339
12244SOL    HW141579   3.721   3.106   9.044  0.5370 -0.0637  0.7432
12244SOL    HW241580   3.690   3.204   9.155  1.1858  0.4033  0.5188
12245SOL     OW41581   5.835   0.762   7.349 -0.1321 -0.0600 -0.0806
12245SOL    HW141582   5.863   0.674   7.375 -1.6908 -0.5326  0.0409
12245SOL    HW241583   5.755   0.747   7.299 -1.0046  1.3971  0.8843
12246SOL     OW41584   4.524   1.462   8.335  0.0805  0.4218 -0.2180
12246SOL    HW141585   4.576   1.535   8.302 -0.3050  0.2636 -1.1818
12246SOL    HW241586   4.466   1.502   8.400  0.7735  0.7460  0.2139
12247SOL     OW41587   5.228   1.139   8.744  0.8697 -0.3007  0.6520
12247SOL    HW141588   5.230   1.235   8.751 -0.6679 -0.3115  1.6181
12247SOL    HW241589   5.220   1.109   8.835 -2.3605 -1.1724  0.1615
12248SOL     OW41590   6.260   1.298   9.521  0.4233 -0.1186 -0.2724
12248SOL    HW141591   6.252   1.207   9.550  1.6433  0.5284  2.2659
12248SOL    HW241592   6.220   1.349   9.591  0.6904  1.3601 -1.1671
12249SOL     OW41593   4.518   0.926   7.357 -0.2813 -0.1059 -0.1365
12249SOL    HW141594   4.507   1.006   7.408 -0.2437 -1.0661  1.4035
12249SOL    HW241595   4.482   0.857   7.412 -0.9183 -1.0724 -1.7278
12250SOL     OW41596   4.963   1.234   6.596 -0.4789 -0.1841 -0.2495
12250SOL    HW141597   4.879   1.195   6.618  0.2374 -0.1212  2.8649
12250SOL    HW241598   4.961   1.320   6.638 -0.2139  1.2648 -3.1184
12251SOL     OW41599   2.899   2.269   9.043 -0.3507  0.0801  0.2076
12251SOL    HW141600   2.814   2.244   9.079 -1.3430  0.9595 -1.4671
12251SOL    HW241601   2.890   2.363   9.025  1.2039  0.3221  0.6144
12252SOL     OW41602   4.461   1.128   7.531  0.2729  0.2382  0.2867
12252SOL    HW141603   4.518   1.166   7.598  2.0922 -1.2575 -0.4027
12252SOL    HW241604   4.403   1.069   7.580 -0.1609  1.1234  0.8669
12253SOL     OW41605   6.233   0.964   6.708 -0.3158  0.7448 -0.0561
12253SOL    HW141606   6.175   0.948   6.783 -0.3242  0.3823 -0.1389
12253SOL    HW241607   6.263   1.054   6.720 -1.7536  1.3064 -0.5936
12254SOL     OW41608   4.036   0.302   8.829 -0.0896  0.1851 -0.0166
12254SOL    HW141609   3.947   0.268   8.819  1.0102 -2.9656  0.3637
12254SOL    HW241610   4.032   0.354   8.910 -1.6559  0.3293 -0.1705
12255SOL     OW41611   4.174   1.092   8.875 -0.0130 -1.0050  0.7827
12255SOL    HW141612   4.097   1.045   8.842 -0.1150  0.2075 -0.7388
12255SOL    HW241613   4.232   1.022   8.908 -1.0005 -2.0440  0.3534
12256SOL     OW41614   5.437   0.101   9.095  0.3736 -0.3919 -0.5624
12256SOL    HW141615   5.357   0.059   9.065 -0.3782  0.7593 -0.2107
12256SOL    HW241616   5.492   0.030   9.126 -1.5022 -0.9814  1.5321
12257SOL     OW41617   3.043   2.202   8.767 -0.1966 -1.0735  0.3795
12257SOL    HW141618   3.004   2.196   8.679 -1.1389 -1.2271  0.7982
12257SOL    HW241619   2.975   2.245   8.820 -0.1923 -2.2571  1.3612
12258SOL     OW41620   5.700   0.886   9.004 -0.3078 -0.0687  0.0045
12258SOL    HW141621   5.774   0.864   9.061 -0.1918 -2.4932 -1.0404
12258SOL    HW241622   5.625   0.891   9.064  0.6067  2.1382  1.0284
12259SOL     OW41623   3.540   1.086   6.836  0.2514  0.1134 -0.4076
12259SOL    HW141624   3.607   1.033   6.879 -0.4837  0.5992  1.3471
12259SOL    HW241625   3.589   1.153   6.788  1.0802 -0.6280 -0.6085
12260SOL     OW41626   2.881   1.058   8.184 -0.4293  0.1700  0.4409
12260SOL    HW141627   2.822   1.051   8.259 -0.2867 -0.4421  0.4934
12260SOL    HW241628   2.898   0.968   8.158 -0.1578  0.3712 -0.0799
12261SOL     OW41629   3.109   1.173   8.074  0.2957  0.9902  0.0588
12261SOL    HW141630   3.156   1.199   8.153 -0.3057 -0.7563  1.0334
12261SOL    HW241631   3.041   1.114   8.106 -0.5009  0.9486 -1.6805
12262SOL     OW41632   4.049   1.577   8.461 -0.5451 -0.0881  0.3274
12262SOL    HW141633   4.105   1.585   8.384 -1.6401 -2.9617 -0.8102
12262SOL    HW241634   4.104   1.606   8.534  0.7940  1.8020 -1.3684
12263SOL     OW41635   4.844   9.751   8.481 -0.3153  0.0504  0.3277
12263SOL    HW141636   4.788   9.813   8.528  2.2265  3.2350 -0.6556
12263SOL    HW241637   4.843   9.781   8.390  3.3973  0.6403  0.3970
12264SOL     OW41638   3.763   0.100   6.776 -0.1603  0.0439 -0.8807
12264SOL    HW141639   3.853   0.108   6.745 -0.0313 -1.6545 -0.9860
12264SOL    HW241640   3.728   0.189   6.769  1.9741  1.0481  0.6804
12265SOL     OW41641   5.453   2.024   6.963 -0.3361 -0.6410 -0.2478
12265SOL    HW141642   5.483   2.091   7.025  0.8219  0.2499 -1.7300
12265SOL    HW241643   5.405   1.962   7.017 -0.2048  0.6323  1.3949
12266SOL     OW41644   3.810   0.908   8.471  0.7379  0.0940  0.1567
12266SOL    HW141645   3.776   0.993   8.501 -0.0253  0.2772 -1.2026
12266SOL    HW241646   3.887   0.930   8.419  0.1938 -0.0001 -0.6956
12267SOL     OW41647   6.432   1.909   7.004 -0.5742 -0.1053  0.0119
12267SOL    HW141648   6.474   1.836   7.049  0.8277 -0.2379 -1.4714
12267SOL    HW241649   6.502   1.974   6.992 -0.9107 -0.1037 -2.0178
12268SOL     OW41650   6.255   7.764   8.049 -0.5634 -0.2075  0.4307
12268SOL    HW141651   6.299   7.846   8.073  0.7373 -0.5576 -0.7382
12268SOL    HW241652   6.179   7.792   7.997  0.4075  0.2239 -0.7719
12269SOL     OW41653   5.159   0.806   8.712 -0.2358  0.3906 -0.0176
12269SOL    HW141654   5.246   0.821   8.748 -0.0305 -2.2558  0.6907
12269SOL    HW241655   5.104   0.790   8.789 -0.8824 -0.0708 -0.5671
12270SOL     OW41656   4.861   0.426   8.036 -0.1651 -0.1398  0.1357
12270SOL    HW141657   4.802   0.443   8.110 -0.0352 -2.4642  0.7971
12270SOL    HW241658   4.816   0.361   7.983  0.8640 -0.3762 -0.4626
12271SOL     OW41659   5.625   0.597   8.460  0.6289  0.0026  0.2334
12271SOL    HW141660   5.666   0.647   8.530 -1.1415 -0.1616  1.4186
12271SOL    HW241661   5.587   0.663   8.402  2.7582  0.1632 -1.0121
12272SOL     OW41662   5.067   9.570   8.786  0.0316 -0.4367  0.2004
12272SOL    HW141663   4.988   9.602   8.830 -0.4482  0.5639 -1.3582
12272SOL    HW241664   5.128   9.643   8.791  0.3399 -0.6888  0.1049
12273SOL     OW41665   6.597   0.507   7.681 -0.3960 -0.9808  0.1054
12273SOL    HW141666   6.629   0.580   7.628 -1.1117 -0.7925 -0.0716
12273SOL    HW241667   6.648   0.512   7.762  0.1734 -0.8163 -0.2601
12274SOL     OW41668   7.230   2.011   8.047 -0.5706 -0.3090  0.5000
12274SOL    HW141669   7.172   2.087   8.045 -0.0996  0.0359 -2.8474
12274SOL    HW241670   7.306   2.041   8.096 -0.1840  1.5518 -1.1813
12275SOL     OW41671   3.233   0.731   9.516 -0.4672  0.4649 -0.2467
12275SOL    HW141672   3.275   0.681   9.586 -1.0821  0.5183  0.1615
12275SOL    HW241673   3.139   0.723   9.532 -0.6026  0.9220 -0.7558
12276SOL     OW41674   5.012   0.174   7.704 -0.0404 -0.6867  0.6581
12276SOL    HW141675   5.090   0.126   7.674 -1.4665 -2.0469 -0.9873
12276SOL    HW241676   4.994   0.236   7.633  0.2039  0.4333  1.5632
12277SOL     OW41677   3.942   0.577   7.390  0.2507  0.2251  0.5192
12277SOL    HW141678   3.910   0.539   7.472  0.5133  0.5133  0.7528
12277SOL    HW241679   3.862   0.595   7.340  0.0401  0.9539  1.1081
12278SOL     OW41680   4.852   1.933   6.703 -0.6222  0.2247  0.6024
12278SOL    HW141681   4.835   1.856   6.648  1.0263  0.8912 -0.8861
12278SOL    HW241682   4.883   1.897   6.786  0.2532 -0.7302 -0.1244
12279SOL     OW41683   3.674   1.989   0.320  0.3373 -0.1969  0.0911
12279SOL    HW141684   3.718   1.905   0.333 -1.1503 -1.2378 -1.4391
12279SOL    HW241685   3.639   2.012   0.407 -0.8611 -2.0873  0.1279
12280SOL     OW41686   3.627   0.828   7.442  0.0600  0.5045  0.3337
12280SOL    HW141687   3.702   0.833   7.501 -1.4675 -1.2014  2.5082
12280SOL    HW241688   3.648   0.757   7.381  2.0034  2.8065 -1.8114
12281SOL     OW41689   5.044   8.831   8.805 -0.0950 -0.3390 -0.4541
12281SOL    HW141690   5.075   8.896   8.743 -1.1508 -1.5044 -2.2794
12281SOL    HW241691   5.124   8.793   8.843  0.5473  0.8923 -0.5740
12282SOL     OW41692   5.680   0.685   8.737 -0.6423  0.0298  0.4244
12282SOL    HW141693   5.631   0.757   8.777 -0.0503 -1.0989  3.3235
12282SOL    HW241694   5.634   0.606   8.765  0.8817 -0.8873  0.3760
12283SOL     OW41695   6.242   0.607   7.981 -0.4555  0.5217  0.3234
12283SOL    HW141696   6.211   0.587   7.893 -1.3579  0.4510  0.6510
12283SOL    HW241697   6.336   0.592   7.978 -0.5572  0.0489 -0.4944
12284SOL     OW41698   1.951   0.652   9.897  0.6486 -0.0094 -0.7812
12284SOL    HW141699   2.037   0.624   9.929  0.0451 -0.6832  0.2976
12284SOL    HW241700   1.920   0.715   9.962 -0.9466 -2.0119  0.4584
12285SOL     OW41701   4.460   1.731   8.439  0.7585  0.2876 -0.2221
12285SOL    HW141702   4.417   1.760   8.520 -1.2946 -3.4293  0.0926
12285SOL    HW241703   4.453   1.806   8.380 -1.2864  1.6688  1.7077
12286SOL     OW41704   5.331   9.201   9.307 -0.1985  0.6026 -0.2968
12286SOL    HW141705   5.395   9.235   9.245 -0.4068 -0.6759 -1.2264
12286SOL    HW241706   5.384   9.162   9.377  0.0287  0.8302 -0.3403
12287SOL     OW41707   3.916   2.751   8.228 -0.3373  0.0690 -0.3268
12287SOL    HW141708   3.930   2.660   8.257 -0.0818  0.1205 -0.2909
12287SOL    HW241709   3.821   2.763   8.235 -0.2455  0.2157  0.9063
12288SOL     OW41710   4.280   0.286   6.580  0.9708 -0.0321  0.3723
12288SOL    HW141711   4.314   0.370   6.548  1.5688  0.7412  2.8713
12288SOL    HW241712   4.358   0.239   6.609  0.4585 -0.6009  0.8442
12289SOL     OW41713   4.390   3.471   8.339  0.0418 -0.0525  0.2348
12289SOL    HW141714   4.378   3.387   8.294  1.0856  0.6015 -1.2965
12289SOL    HW241715   4.301   3.507   8.346 -0.1897 -0.3295 -1.0156
12290SOL     OW41716   4.268   2.284   7.669 -0.1812 -0.5213 -0.9153
12290SOL    HW141717   4.241   2.206   7.621 -0.6571 -1.2332  0.5056
12290SOL    HW241718   4.282   2.254   7.759 -2.2835  1.3993  0.0930
12291SOL     OW41719   5.600   1.739   7.915 -0.2428 -0.1859  0.2761
12291SOL    HW141720   5.567   1.698   7.835  0.6881 -0.5438  0.0668
12291SOL    HW241721   5.584   1.832   7.903 -0.6441 -0.2977 -0.0687
12292SOL     OW41722   3.509   1.059   7.655  0.3615 -0.6084 -0.4191
12292SOL    HW141723   3.464   1.132   7.613  0.8738 -0.3399 -0.5072
12292SOL    HW241724   3.602   1.076   7.640  0.4532 -1.7654 -1.2756
12293SOL     OW41725   6.006   0.334   8.601 -0.4274  0.2205  0.9901
12293SOL    HW141726   6.003   0.258   8.658  0.8221 -1.0925 -0.6352
12293SOL    HW241727   5.928   0.327   8.546 -1.1778  1.0227  1.9290
12294SOL     OW41728   2.633   3.189   0.104 -0.3868 -0.0107 -0.1501
12294SOL    HW141729   2.560   3.135   0.132 -0.3552 -2.1458 -3.8433
12294SOL    HW241730   2.711   3.138   0.125 -0.1622  0.4434  0.1223
12295SOL     OW41731   3.541   1.292   0.251 -0.1649 -0.4767  0.2892
12295SOL    HW141732   3.611   1.239   0.212  1.2350  1.0500  0.6868
12295SOL    HW241733   3.511   1.241   0.326  0.8772 -0.9134  0.4192
12296SOL     OW41734   4.559   0.375   0.136  0.4024  0.1560  0.0941
12296SOL    HW141735   4.628   0.440   0.151  0.3542  0.2760 -0.2054
12296SOL    HW241736   4.539   0.341   0.223  0.3614  0.6069  0.2589
12297SOL     OW41737   3.041   0.641   0.665  0.4054  0.1388  0.2670
12297SOL    HW141738   2.948   0.637   0.644  0.6824  2.1585 -1.5205
12297SOL    HW241739   3.053   0.574   0.732 -1.7360 -2.3057 -1.6535
12298SOL     OW41740   5.350   1.619   8.321 -0.7037 -0.6830  0.1325
12298SOL    HW141741   5.288   1.546   8.320 -0.2919 -1.0353 -0.2465
12298SOL    HW241742   5.420   1.591   8.261 -0.0474 -0.4134  0.7627
12299SOL     OW41743   3.179   2.743   9.633  0.3319  0.0417 -0.6688
12299SOL    HW141744   3.256   2.696   9.664 -0.8772 -2.1832 -0.9254
12299SOL    HW241745   3.105   2.703   9.680 -0.6653  2.0995 -0.4526
12300SOL     OW41746   5.571   0.534   0.860  0.6646  0.2259 -0.1605
12300SOL    HW141747   5.504   0.537   0.929  0.5131 -0.6981 -0.2561
12300SOL    HW241748   5.569   0.621   0.821 -0.0574  0.3966  0.2413
12301SOL     OW41749   5.493   1.970   0.129  0.0780  0.4385 -0.0888
12301SOL    HW141750   5.469   1.941   0.041  0.6953 -2.4272  0.6225
12301SOL    HW241751   5.583   1.941   0.140  0.1247  1.1077  1.3420
12302SOL     OW41752   4.949   1.013   8.653 -0.9080  0.4358  0.6616
12302SOL    HW141753   4.986   1.009   8.741  0.3957  4.0386  0.3507
12302SOL    HW241754   4.990   0.940   8.606  0.8103  0.4166  2.1686
12303SOL     OW41755   3.911   8.565   0.583 -0.0122  0.7356 -0.8596
12303SOL    HW141756   3.977   8.632   0.563 -0.5059  1.4456 -0.1076
12303SOL    HW241757   3.844   8.577   0.516 -1.5012  2.8955  0.9796
12304SOL     OW41758   6.467   0.505   9.656  0.0051 -0.0208  0.1161
12304SOL    HW141759   6.416   0.508   9.575  2.2987 -0.3400 -1.3957
12304SOL    HW241760   6.514   0.588   9.657  1.1841 -0.6790  0.2984
12305SOL     OW41761   4.670   9.226   0.426  0.2686 -0.2451  0.2327
12305SOL    HW141762   4.588   9.202   0.382  0.6374 -1.0386 -0.0275
12305SOL    HW241763   4.703   9.301   0.376 -0.3925  0.1987  0.4549
12306SOL     OW41764   4.531   3.181   8.590  0.4683  0.2219  0.5106
12306SOL    HW141765   4.563   3.250   8.648  0.8243  1.3632 -1.0134
12306SOL    HW241766   4.585   3.189   8.511 -0.5538 -0.7722 -0.3072
12307SOL     OW41767   3.470   0.923   9.699 -0.3168 -0.5045  0.2355
12307SOL    HW141768   3.494   0.852   9.639  0.5522  0.2489 -0.3282
12307SOL    HW241769   3.449   0.879   9.781 -0.4305 -1.4675 -0.3014
12308SOL     OW41770   3.295   1.948   9.487 -0.1802 -0.0087 -0.0009
12308SOL    HW141771   3.233   1.882   9.519 -0.3183  0.3299  0.4461
12308SOL    HW241772   3.361   1.954   9.557  0.4035 -0.4307 -0.5161
12309SOL     OW41773   4.308   9.548   9.620  0.0398 -0.2208 -0.8035
12309SOL    HW141774   4.319   9.643   9.620  2.0280 -0.4128 -1.8613
12309SOL    HW241775   4.262   9.529   9.539 -1.2712 -0.0813 -0.0986
12310SOL     OW41776   5.024   1.303   9.850 -0.1058 -0.2550  0.2101
12310SOL    HW141777   4.950   1.284   9.794 -0.7941 -0.3571  1.1430
12310SOL    HW241778   4.986   1.341   9.929  0.8544  0.0342  0.5497
12311SOL     OW41779   3.406   1.228   9.778  0.3207 -0.5540  0.3485
12311SOL    HW141780   3.407   1.173   9.700 -0.7739  0.5185 -0.4267
12311SOL    HW241781   3.339   1.188   9.835  0.0832 -0.4806  0.1212
12312SOL     OW41782   5.107   1.455   9.636 -0.2023  0.0438 -0.2944
12312SOL    HW141783   5.080   1.373   9.676  1.3283 -0.2074  0.2410
12312SOL    HW241784   5.061   1.522   9.687  0.7321 -0.3434  1.0914
12313SOL     OW41785   4.612   1.600   9.289 -0.3326  0.4833 -0.1160
12313SOL    HW141786   4.569   1.561   9.212 -0.4506 -0.1035  0.2444
12313SOL    HW241787   4.541   1.615   9.351  0.0203 -0.8638  0.6417
12314SOL     OW41788   4.465   1.939   0.110 -0.6425  0.2057  0.0781
12314SOL    HW141789   4.406   2.005   0.074 -1.2656 -0.7933 -0.7751
12314SOL    HW241790   4.474   1.875   0.040  1.8100  0.5456  0.0452
12315SOL     OW41791   5.582   0.767   0.284 -0.2354 -0.6097  0.0225
12315SOL    HW141792   5.533   0.789   0.205  0.1589  0.1587 -0.0062
12315SOL    HW241793   5.663   0.728   0.252 -0.5942 -1.4189  0.0673
12316SOL     OW41794   3.237   9.392   7.833  0.4677  0.5629  0.2806
12316SOL    HW141795   3.265   9.361   7.919  0.9373 -0.0815 -0.0968
12316SOL    HW241796   3.182   9.322   7.799 -0.6317  1.2997  0.5096
12317SOL     OW41797   4.365   9.848   9.592  0.0438  0.2261 -0.0775
12317SOL    HW141798   4.357   9.930   9.640 -0.2878  1.0797 -1.5684
12317SOL    HW241799   4.320   9.864   9.509 -0.2424 -1.5427 -0.2912
12318SOL     OW41800   5.762   2.519   8.957 -0.4899  0.4491  0.1920
12318SOL    HW141801   5.714   2.601   8.971 -0.2606 -0.0740  4.7007
12318SOL    HW241802   5.766   2.478   9.043  0.0059 -4.0347 -1.8028
12319SOL     OW41803   3.749   9.136   9.774 -0.4764  0.3979 -0.0933
12319SOL    HW141804   3.751   9.223   9.733  0.0183  1.3996  1.9846
12319SOL    HW241805   3.713   9.152   9.861  0.4238 -1.3706  0.6182
12320SOL     OW41806   4.694   9.456   0.296 -0.1744 -0.5718 -0.0350
12320SOL    HW141807   4.712   9.550   0.294 -1.9386 -0.2181 -0.6086
12320SOL    HW241808   4.599   9.450   0.287  0.1071 -2.4871 -2.0958
12321SOL     OW41809   4.620   0.782   0.641 -0.6366 -0.2555  0.1835
12321SOL    HW141810   4.705   0.807   0.676 -1.3852  0.2695  1.6831
12321SOL    HW241811   4.606   0.841   0.567  0.5356 -0.7278 -0.4286
12322SOL     OW41812   3.444   1.676   9.911  0.0637  0.0519 -0.6118
12322SOL    HW141813   3.486   1.590   9.916  0.3079  0.0475 -2.4166
12322SOL    HW241814   3.462   1.716   9.996  0.2408 -1.5388  0.1290
12323SOL     OW41815   5.763   8.251   9.951  0.6065 -0.0593 -0.5064
12323SOL    HW141816   5.837   8.255   9.890  2.0373  0.6284  1.2426
12323SOL    HW241817   5.791   8.191  10.020 -1.6932 -2.2360 -1.3474
12324SOL     OW41818   4.203   0.594   9.007  0.0078 -0.1328  0.3222
12324SOL    HW141819   4.215   0.582   8.913  0.2777  1.1965  0.1693
12324SOL    HW241820   4.254   0.524   9.047  0.8422 -0.0045 -0.4986
12325SOL     OW41821   5.505   0.568   8.955 -0.5559 -0.0402  0.8830
12325SOL    HW141822   5.591   0.528   8.940  0.2527  1.2502  2.0133
12325SOL    HW241823   5.479   0.535   9.041 -0.5484  0.7185  1.1728
12326SOL     OW41824   3.393   1.054   0.732 -0.2428 -0.0764  0.1511
12326SOL    HW141825   3.455   0.982   0.741  0.1411  0.2605  0.2187
12326SOL    HW241826   3.308   1.014   0.749 -0.1468 -0.7523 -0.8868
12327SOL     OW41827   3.250   1.026   9.570  0.4502  0.0648 -0.3273
12327SOL    HW141828   3.302   0.991   9.642  0.9444  0.8947 -0.2725
12327SOL    HW241829   3.166   0.981   9.577  0.3554  0.4175  1.0069
12328SOL     OW41830   3.421   9.958   0.780  0.2562  0.3543 -0.2801
12328SOL    HW141831   3.439   9.920   0.695  0.9034 -1.4409  0.6429
12328SOL    HW241832   3.326   9.960   0.786  0.1921 -2.8815  0.4010
12329SOL     OW41833   5.425   9.684   9.632 -0.4816 -0.3089 -0.4593
12329SOL    HW141834   5.413   9.705   9.724 -1.2952  0.2864 -0.6939
12329SOL    HW241835   5.509   9.723   9.609 -0.1623 -0.6661  0.0859
12330SOL     OW41836   4.354   1.120   9.258  0.4508 -0.0266 -0.4561
12330SOL    HW141837   4.283   1.063   9.228  0.7587  0.1285 -1.4851
12330SOL    HW241838   4.358   1.105   9.352 -1.5564  0.6390 -0.2404
12331SOL     OW41839   5.103   1.002   9.202 -0.6520 -0.0081 -0.2382
12331SOL    HW141840   5.159   1.075   9.228 -1.9530  1.2945 -0.9711
12331SOL    HW241841   5.116   0.995   9.107 -1.2094 -0.1374 -0.3068
12332SOL     OW41842   3.613   2.139   9.229 -0.0147 -0.0214  0.1364
12332SOL    HW141843   3.603   2.129   9.324 -0.2969  0.7820  0.1950
12332SOL    HW241844   3.636   2.051   9.198  0.5164 -0.1947  0.9998
12333SOL     OW41845   4.867   0.493   9.444 -0.1735 -0.2073  0.0960
12333SOL    HW141846   4.944   0.508   9.498 -0.2772  0.8354 -0.0405
12333SOL    HW241847   4.793   0.504   9.504 -0.2221 -0.9702  0.1742
12334SOL     OW41848   4.884   0.303   0.557  0.0774 -0.5205 -0.2014
12334SOL    HW141849   4.965   0.253   0.556 -0.2902 -1.1544 -2.8119
12334SOL    HW241850   4.825   0.252   0.613  1.0495 -0.7740  0.5927
12335SOL     OW41851   5.485   9.073   9.510  0.1194 -0.0033 -0.1752
12335SOL    HW141852   5.449   8.996   9.555  0.4812 -0.8597 -1.3060
12335SOL    HW241853   5.572   9.085   9.547 -0.7371  1.1649  1.5091
12336SOL     OW41854   5.061   1.109   9.553 -0.3266 -0.0898  0.6060
12336SOL    HW141855   5.005   1.161   9.612  0.0402  0.4435  0.4863
12336SOL    HW241856   4.999   1.067   9.493 -0.6848 -0.4503  1.2230
12337SOL     OW41857   5.183   1.935   9.524 -0.6728  0.3038 -0.5422
12337SOL    HW141858   5.109   1.978   9.481 -0.2307  1.9056  0.2826
12337SOL    HW241859   5.193   1.981   9.607  0.9687 -0.1906 -0.4547
12338SOL     OW41860   5.265   9.335   9.994 -1.3284  0.7049  0.0112
12338SOL    HW141861   5.263   9.420   9.952  2.3129  0.5890 -0.5942
12338SOL    HW241862   5.306   9.277   9.930 -0.9768 -0.7813  1.5294
12339SOL     OW41863   4.896   1.657   9.366 -0.4875  0.5992  0.0635
12339SOL    HW141864   4.833   1.680   9.298 -0.4468  1.1850  0.2231
12339SOL    HW241865   4.877   1.717   9.438 -0.3635  0.1520  0.4698
12340SOL     OW41866   4.811   1.084   9.959 -0.3422  0.0844 -0.4575
12340SOL    HW141867   4.804   1.107   9.867 -0.4895 -1.3082 -0.8033
12340SOL    HW241868   4.738   1.130  10.001 -0.8392 -0.0282 -1.1895
12341SOL     OW41869   4.952   1.653   8.663 -0.4864 -0.1494 -0.4654
12341SOL    HW141870   4.980   1.615   8.580 -0.5984  1.4306 -1.2481
12341SOL    HW241871   4.895   1.726   8.638 -1.6177 -0.5050  1.0253
12342SOL     OW41872   4.466   0.975   9.788  0.5354 -0.7399 -0.4232
12342SOL    HW141873   4.445   1.055   9.740 -0.5546 -1.6598 -1.4909
12342SOL    HW241874   4.390   0.959   9.843  1.0647 -0.6422  0.3459
12343SOL     OW41875   4.114   0.339   8.586 -0.6513  0.4575  0.3597
12343SOL    HW141876   4.031   0.318   8.545 -1.2457  0.7268  1.4084
12343SOL    HW241877   4.098   0.332   8.680  0.3402  1.0864  0.5966
12344SOL     OW41878   2.801   1.188   0.304 -0.4253 -0.1656 -0.1284
12344SOL    HW141879   2.864   1.129   0.263  0.6219 -0.1988  1.5007
12344SOL    HW241880   2.738   1.209   0.234  2.3889  1.2989 -2.3090
12345SOL     OW41881   3.115   0.790   0.425  0.2602  0.3672 -0.2217
12345SOL    HW141882   3.114   0.759   0.516  0.4246  0.2633 -0.2570
12345SOL    HW241883   3.092   0.883   0.432  0.6678  0.4564 -0.0367
12346SOL     OW41884   4.044   0.983   8.281 -0.1451  0.2762 -0.2398
12346SOL    HW141885   4.128   0.983   8.235 -0.0469  0.0113 -0.0639
12346SOL    HW241886   4.018   1.075   8.284 -0.4036  0.2438 -1.2703
12347SOL     OW41887   2.422   3.467   0.575 -0.1571  0.3863  0.0584
12347SOL    HW141888   2.378   3.384   0.559  3.0685 -1.8185  1.9345
12347SOL    HW241889   2.365   3.514   0.637 -1.5104 -0.8596 -0.2303
12348SOL     OW41890   6.027   0.659   1.727 -0.1723  0.4289 -0.0391
12348SOL    HW141891   6.116   0.642   1.696 -0.1421  1.5939 -0.6236
12348SOL    HW241892   5.973   0.591   1.687  0.4752 -0.3916  0.4681
12349SOL     OW41893   4.764   0.591   9.939  0.0903 -0.0087 -0.0312
12349SOL    HW141894   4.808   0.509   9.965 -1.3947 -0.2419  1.9381
12349SOL    HW241895   4.801   0.657   9.997 -1.0828  0.0625  0.6578
12350SOL     OW41896   3.068   1.343   9.651  0.2819  0.0019  0.0800
12350SOL    HW141897   3.109   1.359   9.736  0.6903 -2.8612  0.4685
12350SOL    HW241898   2.995   1.283   9.670 -0.7747  0.7850 -1.3555
12351SOL     OW41899   4.466   1.513   9.880 -1.1249  0.1377  0.0459
12351SOL    HW141900   4.441   1.435   9.929  1.2173 -0.8113 -0.1993
12351SOL    HW241901   4.436   1.497   9.791  0.0899 -0.8505 -0.1874
12352SOL     OW41902   4.270   2.539   9.847  0.3967  0.7011 -0.5398
12352SOL    HW141903   4.266   2.448   9.819 -1.0539  0.6986 -0.3561
12352SOL    HW241904   4.335   2.540   9.918  0.1230 -0.2584 -0.2700
12353SOL     OW41905   3.958   4.355   1.157 -0.1045 -0.1857 -0.6772
12353SOL    HW141906   3.967   4.383   1.066  1.1147 -1.4073 -0.9330
12353SOL    HW241907   3.940   4.261   1.152 -1.0632 -0.0635  0.3083
12354SOL     OW41908   1.830   1.143   3.158 -0.5883 -0.0422  0.0645
12354SOL    HW141909   1.919   1.112   3.173 -1.0265 -1.2705  0.2160
12354SOL    HW241910   1.824   1.155   3.063 -0.5180 -0.7961 -0.0407
12355SOL     OW41911   4.107   2.868   9.456 -0.5698 -0.5912  0.3889
12355SOL    HW141912   4.049   2.927   9.504  0.2073  0.3321  0.2002
12355SOL    HW241913   4.129   2.800   9.520  0.8739  0.9095  1.5299
12356SOL     OW41914   6.228   2.987   0.029  0.5010 -0.6643  0.7784
12356SOL    HW141915   6.295   2.943  -0.022 -0.4423 -1.3071  0.0687
12356SOL    HW241916   6.240   2.955   0.118  1.5927 -0.2095  0.8004
12357SOL     OW41917   5.623   2.263   0.419 -0.8341  0.3369 -0.1677
12357SOL    HW141918   5.609   2.356   0.434 -0.1967  0.2740  0.9555
12357SOL    HW241919   5.713   2.257   0.387 -0.3453 -0.0004  1.2084
12358SOL     OW41920   4.090   1.505   0.862 -0.2008 -0.5904 -0.1061
12358SOL    HW141921   4.177   1.475   0.888  0.3888  1.7840  0.7749
12358SOL    HW241922   4.043   1.517   0.945 -0.4095  0.8811 -0.4211
12359SOL     OW41923   4.477   2.546   1.320 -0.3011 -0.9544  0.1447
12359SOL    HW141924   4.397   2.592   1.293  1.4790  1.2895 -1.5307
12359SOL    HW241925   4.483   2.472   1.259 -1.1096 -1.1371  0.2811
12360SOL     OW41926   2.582   0.296   0.529 -0.2826 -0.2219 -0.0390
12360SOL    HW141927   2.514   0.293   0.462 -1.3614 -0.0214  1.0314
12360SOL    HW241928   2.606   0.389   0.535  0.4616 -0.3616 -0.7806
12361SOL     OW41929   3.542   2.886   0.212 -0.0113 -0.1938 -0.4866
12361SOL    HW141930   3.556   2.792   0.194 -1.7776 -0.7959  1.1486
12361SOL    HW241931   3.471   2.911   0.153 -1.0819 -0.4673  0.6596
12362SOL     OW41932   5.497   3.090   9.946 -0.0078  0.0115  0.2941
12362SOL    HW141933   5.563   3.129  10.003  1.3292  0.8174 -1.7457
12362SOL    HW241934   5.480   3.003   9.983  1.9032 -0.0354  1.0665
12363SOL     OW41935   3.173   4.083   0.748  0.9819  0.2433 -0.4318
12363SOL    HW141936   3.103   4.144   0.768  0.9329 -0.4518  1.5383
12363SOL    HW241937   3.137   3.996   0.767  1.1571 -0.4136 -2.8992
12364SOL     OW41938   4.559   1.791   2.084  0.4692 -0.3428  0.1553
12364SOL    HW141939   4.508   1.719   2.048  2.8562 -1.7318 -0.6019
12364SOL    HW241940   4.507   1.824   2.157 -0.9178 -2.4706  0.1538
12365SOL     OW41941   4.907   1.073   1.761 -0.8486  0.3518 -0.5080
12365SOL    HW141942   4.868   1.137   1.821 -1.0589  0.9706 -1.2978
12365SOL    HW241943   4.848   0.998   1.765 -0.9915  0.4805 -0.1192
12366SOL     OW41944   4.631   3.191   0.735  0.7430  0.5053  0.1078
12366SOL    HW141945   4.540   3.161   0.734  0.5920  0.8711 -3.2858
12366SOL    HW241946   4.626   3.282   0.763  0.3957 -0.3057  2.7760
12367SOL     OW41947   2.142   4.901   9.155  0.2316  0.3029 -0.0675
12367SOL    HW141948   2.196   4.822   9.150 -0.2351  0.1157 -2.5855
12367SOL    HW241949   2.055   4.872   9.128  0.0920  1.7066 -1.1954
12368SOL     OW41950   3.923   2.803   2.382  0.3083 -0.1161  0.1560
12368SOL    HW141951   3.965   2.811   2.468 -0.9936 -0.6203  0.8563
12368SOL    HW241952   3.839   2.760   2.401 -0.0133 -0.1654 -1.3613
12369SOL     OW41953   3.239   1.302   0.654  0.5130 -0.7630 -0.0565
12369SOL    HW141954   3.268   1.230   0.710  1.7961 -1.1981 -1.2632
12369SOL    HW241955   3.304   1.370   0.667  0.3100 -0.5136 -0.3243
12370SOL     OW41956   3.706   0.743   0.983  0.1265 -0.0384  0.0952
12370SOL    HW141957   3.740   0.660   0.949  0.7771  0.3278 -0.1547
12370SOL    HW241958   3.628   0.718   1.032 -0.7320 -0.6008 -1.5304
12371SOL     OW41959   1.987   5.293   1.948  0.1203 -0.4875 -0.2368
12371SOL    HW141960   1.941   5.343   2.015 -0.2923  0.3376 -1.1318
12371SOL    HW241961   1.965   5.202   1.967 -0.4299 -0.2265  0.4139
12372SOL     OW41962   5.193   1.847   0.425 -0.8889 -0.0234 -0.2851
12372SOL    HW141963   5.235   1.933   0.421 -1.6807  0.4134  0.5938
12372SOL    HW241964   5.266   1.785   0.430 -0.2958  0.5075 -2.1340
12373SOL     OW41965   4.703   1.669   0.928 -0.5912 -0.2273  0.0423
12373SOL    HW141966   4.679   1.656   1.020 -0.8113  0.7560  0.1300
12373SOL    HW241967   4.620   1.689   0.885 -0.2707  0.9449 -0.0602
12374SOL     OW41968   3.352   2.700   9.908 -0.0654 -0.5383  0.0597
12374SOL    HW141969   3.283   2.645   9.946 -1.2885  0.1762 -1.0599
12374SOL    HW241970   3.413   2.639   9.867  0.1866 -1.1992  1.4121
12375SOL     OW41971   5.220   3.153   9.217 -1.1953  0.3774 -0.1947
12375SOL    HW141972   5.183   3.068   9.196 -1.6207  0.4130  0.4008
12375SOL    HW241973   5.247   3.146   9.308  1.8002 -0.1827 -1.0613
12376SOL     OW41974   5.744   2.765   1.014  0.0996 -0.0334  0.3169
12376SOL    HW141975   5.748   2.722   0.928  1.1684  2.9037 -1.2051
12376SOL    HW241976   5.818   2.826   1.012 -1.7795  2.3865  2.0231
12377SOL     OW41977   4.996   2.214   0.335  0.1847  0.3350 -0.0187
12377SOL    HW141978   4.974   2.182   0.248  1.1260  0.6897 -0.3966
12377SOL    HW241979   4.919   2.195   0.388  0.5238 -2.1454 -0.3430
12378SOL     OW41980   3.480   1.884   1.535 -0.0004 -0.4209  0.9425
12378SOL    HW141981   3.532   1.937   1.475  0.7174 -0.9250  1.1057
12378SOL    HW241982   3.401   1.935   1.551 -0.2453 -0.3337 -0.5122
12379SOL     OW41983   4.250   3.361   0.128  0.0662 -0.1417 -0.2171
12379SOL    HW141984   4.234   3.393   0.217 -1.0339 -0.2951 -0.3559
12379SOL    HW241985   4.240   3.439   0.073 -1.5477 -0.4812 -0.4408
12380SOL     OW41986   7.215   2.352   1.075 -0.2954  0.2638 -0.2938
12380SOL    HW141987   7.236   2.376   0.984 -1.8825  0.1482 -0.7039
12380SOL    HW241988   7.239   2.259   1.080  0.8736  0.5550 -0.2454
12381SOL     OW41989   5.305   4.230   0.503 -0.4719  0.7106 -0.2222
12381SOL    HW141990   5.265   4.289   0.568 -1.6031  0.0469 -0.3008
12381SOL    HW241991   5.325   4.287   0.429 -0.4910  1.2183  0.1591
12382SOL     OW41992   7.148   3.203   1.006  0.1371 -0.5401 -0.6133
12382SOL    HW141993   7.216   3.153   1.051 -0.2887 -0.8074 -0.2667
12382SOL    HW241994   7.118   3.144   0.937 -0.4104 -0.7842 -0.1631
12383SOL     OW41995   5.232   2.571   1.119 -0.0648 -0.2919 -0.1626
12383SOL    HW141996   5.322   2.553   1.146 -0.2577 -1.2792 -0.1714
12383SOL    HW241997   5.213   2.506   1.052 -0.5087  0.4430 -0.7678
12384SOL     OW41998   2.053   2.286   1.540  0.0768 -0.2414 -0.3221
12384SOL    HW141999   2.043   2.364   1.595  0.9450  0.9230 -1.7846
12384SOL    HW242000   1.972   2.237   1.554  0.3374 -0.0616  2.0931
12385SOL     OW42001   5.357   5.673   0.813 -0.1548 -0.0066  0.7401
12385SOL    HW142002   5.305   5.746   0.778 -1.5126 -0.9674  0.7017
12385SOL    HW242003   5.401   5.635   0.737 -1.7438 -1.0213  0.2999
12386SOL     OW42004   3.127   2.132   0.793 -0.3019  0.2724  0.2993
12386SOL    HW142005   3.165   2.086   0.717  2.1946  1.1330  0.9942
12386SOL    HW242006   3.040   2.093   0.802  0.5031 -2.0174 -1.1474
12387SOL     OW42007   5.976   2.143   8.771 -0.4710 -0.4398  0.0001
12387SOL    HW142008   5.913   2.101   8.713 -1.6169 -0.2436  1.0756
12387SOL    HW242009   6.043   2.178   8.712 -1.8309  0.1325 -1.2409
12388SOL     OW42010   4.055   3.856   9.985  0.0291  0.6218 -0.2205
12388SOL    HW142011   3.981   3.816  10.029 -0.2753  0.8760 -0.4950
12388SOL    HW242012   4.119   3.786   9.976 -0.9746 -0.1227 -1.7723
12389SOL     OW42013   4.828   2.398   1.126  0.0039 -0.1891 -0.0514
12389SOL    HW142014   4.855   2.486   1.153 -1.6790  0.6186 -0.9573
12389SOL    HW242015   4.841   2.344   1.204  2.7442  0.4756 -0.0034
12390SOL     OW42016   5.786   1.356   3.109 -0.2017 -0.1359  0.2203
12390SOL    HW142017   5.829   1.274   3.084 -2.3745 -1.4385  0.6611
12390SOL    HW242018   5.859   1.415   3.131  1.3826 -2.1217  0.4858
12391SOL     OW42019   5.509   3.472   1.068  0.3764  0.1509 -0.2217
12391SOL    HW142020   5.478   3.516   1.148  1.0221  0.7597 -0.2951
12391SOL    HW242021   5.492   3.535   0.998  0.4244 -0.1093 -0.4688
12392SOL     OW42022   5.116   2.335   1.290  0.5672 -0.4855 -0.3169
12392SOL    HW142023   5.138   2.406   1.229 -0.7696  0.4056  0.1961
12392SOL    HW242024   5.059   2.277   1.240  0.0803 -0.1548 -0.1495
12393SOL     OW42025   5.047   3.002   9.497  0.2219  0.0998 -0.3611
12393SOL    HW142026   5.021   2.922   9.452  1.1211 -0.8014  0.6787
12393SOL    HW242027   5.143   2.996   9.503  0.4763  2.0512 -1.7460
12394SOL     OW42028   2.856   3.321   1.813  0.0677 -0.1937 -0.1735
12394SOL    HW142029   2.933   3.372   1.838  0.5386 -0.5594 -0.8804
12394SOL    HW242030   2.790   3.347   1.877  0.8024  0.0434  0.5088
12395SOL     OW42031   2.378   3.869   2.168  0.1125  0.2811 -0.3762
12395SOL    HW142032   2.419   3.955   2.159  0.3745  0.3696  1.3855
12395SOL    HW242033   2.446   3.814   2.208 -0.6018 -0.2839  0.0788
12396SOL     OW42034   5.750   2.319   8.760 -0.4001 -0.5137 -0.1565
12396SOL    HW142035   5.819   2.256   8.781 -0.1520 -0.4035 -0.6172
12396SOL    HW242036   5.757   2.386   8.828  0.2149 -0.2966 -0.4225
12397SOL     OW42037   6.477   2.280   0.551  0.2031  0.8288 -0.0364
12397SOL    HW142038   6.387   2.246   0.550  0.3281  0.4855  0.4777
12397SOL    HW242039   6.527   2.216   0.601  0.5300  1.5415  0.5727
12398SOL     OW42040   6.202   1.303   0.743  0.1907 -0.3484 -0.1718
12398SOL    HW142041   6.140   1.376   0.749 -1.1905 -1.5581  0.5906
12398SOL    HW242042   6.188   1.267   0.656  0.4948 -0.0277 -0.3525
12399SOL     OW42043   4.425   3.139   1.671 -0.3931 -0.8533  0.0064
12399SOL    HW142044   4.391   3.173   1.588 -4.3523 -0.2955  1.7104
12399SOL    HW242045   4.478   3.210   1.707 -1.1999  0.0949 -0.6507
12400SOL     OW42046   5.628   3.183   1.725 -0.1354 -0.1278 -0.1817
12400SOL    HW142047   5.632   3.226   1.810  1.8598 -0.5735 -0.0064
12400SOL    HW242048   5.691   3.232   1.671 -1.2045  0.0019 -1.3305
12401SOL     OW42049   2.813   5.781   0.726  0.2633  0.2456  0.3369
12401SOL    HW142050   2.812   5.745   0.637 -0.5220  2.1108 -0.4473
12401SOL    HW242051   2.748   5.730   0.774  1.3934 -1.4314  0.1249
12402SOL     OW42052   4.889   1.654   0.475  0.0632 -0.5281 -0.5931
12402SOL    HW142053   4.887   1.733   0.420  0.2743  0.8394  1.3188
12402SOL    HW242054   4.826   1.595   0.434 -1.7121  1.4860 -0.8513
12403SOL     OW42055   5.033   1.848   0.664 -0.0138  0.7666 -0.0210
12403SOL    HW142056   5.041   1.936   0.701  0.2700  0.9764 -0.5634
12403SOL    HW242057   5.084   1.853   0.582 -0.0184  0.1070 -0.0599
12404SOL     OW42058   4.839   3.010   0.729  0.2452 -0.5880  0.2699
12404SOL    HW142059   4.844   2.999   0.634  0.0485  0.6105  0.1172
12404SOL    HW242060   4.768   3.073   0.742  1.6859  0.8795  1.0981
12405SOL     OW42061   4.162   1.816   0.465  0.0315  0.2049 -0.3007
12405SOL    HW142062   4.148   1.792   0.557  1.5206 -0.2373 -0.1784
12405SOL    HW242063   4.107   1.754   0.416 -1.2784  0.8592  0.3043
12406SOL     OW42064   3.114   6.468   2.829 -0.6127  0.3454 -0.3003
12406SOL    HW142065   3.048   6.506   2.888 -2.3869  0.8361 -2.5153
12406SOL    HW242066   3.064   6.415   2.767  1.5191 -2.7654  0.5219
12407SOL     OW42067   4.239   3.651   9.996  0.2964  0.0880  0.5122
12407SOL    HW142068   4.190   3.616   9.922  1.0668 -0.8751  0.4493
12407SOL    HW242069   4.317   3.689   9.957  0.0804  0.7453  0.7086
12408SOL     OW42070   3.852   2.330   1.290 -0.2345  0.1714  0.0079
12408SOL    HW142071   3.932   2.336   1.238 -0.2786  4.1737  0.2771
12408SOL    HW242072   3.785   2.302   1.227  0.2906  2.1335 -1.4759
12409SOL     OW42073   5.010   3.356   1.851  0.8267 -0.0200 -0.4695
12409SOL    HW142074   5.094   3.330   1.813 -0.4714 -0.3623 -3.2330
12409SOL    HW242075   4.987   3.436   1.804 -1.1501 -0.8212 -0.8925
12410SOL     OW42076   3.794   3.282   0.267  0.0275  0.2544  0.1205
12410SOL    HW142077   3.840   3.201   0.245  0.8000  0.5808  0.4921
12410SOL    HW242078   3.806   3.338   0.190 -1.4595 -0.3800 -0.5891
12411SOL     OW42079   5.415   2.373   1.402 -0.3107  0.5207 -0.0251
12411SOL    HW142080   5.426   2.395   1.494  0.5905  1.7360 -0.3994
12411SOL    HW242081   5.421   2.278   1.399 -1.0619  0.4191  1.2529
12412SOL     OW42082   4.153   3.043   1.688 -0.0961 -0.7864  0.4309
12412SOL    HW142083   4.059   3.045   1.707 -0.1015 -0.6641  0.3860
12412SOL    HW242084   4.159   2.997   1.604  0.0701 -3.0545  1.6346
12413SOL     OW42085   6.195   4.799   2.418 -0.0152 -0.2791  0.0990
12413SOL    HW142086   6.256   4.778   2.489  2.2695  1.6841 -1.1671
12413SOL    HW242087   6.134   4.862   2.456  0.8950  0.3859  0.4739
12414SOL     OW42088   4.042   1.954   0.070  0.0958 -0.1988 -0.3575
12414SOL    HW142089   3.956   1.933   0.033 -0.4315  0.6227  0.3913
12414SOL    HW242090   4.023   1.996   0.153  1.1782  1.7609 -1.0746
12415SOL     OW42091   5.702   1.892   2.438 -0.0415  0.2684 -0.3499
12415SOL    HW142092   5.680   1.971   2.488  0.8594  0.8468 -0.8521
12415SOL    HW242093   5.784   1.862   2.477 -0.0942 -0.1021 -0.5253
12416SOL     OW42094   5.337   1.610   0.384 -0.1538 -0.2592 -0.7740
12416SOL    HW142095   5.381   1.526   0.396 -0.0112 -0.0954 -0.0888
12416SOL    HW242096   5.247   1.586   0.360  0.2643 -0.5894 -2.0464
12417SOL     OW42097   3.562   2.716   0.911  0.1276 -0.1856 -0.0296
12417SOL    HW142098   3.631   2.672   0.960 -0.0863  0.2212  0.6519
12417SOL    HW242099   3.487   2.657   0.916 -0.4194  0.6193  1.6056
12418SOL     OW42100   5.019   1.576   0.848  0.3133  0.4077 -0.9352
12418SOL    HW142101   5.090   1.602   0.907 -0.6449 -0.9959  0.8833
12418SOL    HW242102   5.013   1.481   0.858 -0.2496  0.2285 -2.8753
12419SOL     OW42103   5.510   3.758   2.154  0.3181 -0.2166  0.1089
12419SOL    HW142104   5.593   3.722   2.187 -0.9373 -0.8560  2.6687
12419SOL    HW242105   5.478   3.813   2.226  0.2830  3.0066 -2.2598
12420SOL     OW42106   4.984   2.618   1.196  0.2474  0.1268  0.1677
12420SOL    HW142107   5.073   2.591   1.172  0.8395 -0.5895  3.0398
12420SOL    HW242108   4.995   2.663   1.279 -2.2317 -1.0112  1.1426
12421SOL     OW42109   4.457   3.658   9.326 -0.6401 -0.3819 -0.1655
12421SOL    HW142110   4.500   3.737   9.291  0.5349  0.0352  2.1599
12421SOL    HW242111   4.371   3.658   9.283 -1.6112  3.4937  1.5304
12422SOL     OW42112   5.831   1.861   1.211 -0.1870  0.0495 -0.3291
12422SOL    HW142113   5.795   1.933   1.160 -0.6493 -0.8435 -1.2895
12422SOL    HW242114   5.891   1.903   1.272 -0.1369  1.2073 -1.1480
12423SOL     OW42115   5.396   3.333   9.908 -0.3199 -0.0640  0.0578
12423SOL    HW142116   5.420   3.241   9.897 -0.1488 -0.0373  0.2177
12423SOL    HW242117   5.429   3.357   9.994  0.5298  0.4355 -0.4034
12424SOL     OW42118   4.429   2.582   9.558 -0.3951  0.3240 -0.9442
12424SOL    HW142119   4.427   2.527   9.480  0.6466 -0.2869 -0.5472
12424SOL    HW242120   4.344   2.627   9.558  0.7532  2.6926 -4.0985
12425SOL     OW42121   3.391   3.835   0.747 -0.0720  0.5723 -0.4385
12425SOL    HW142122   3.413   3.891   0.673 -1.0419  0.8858 -0.4860
12425SOL    HW242123   3.403   3.890   0.824 -1.8249  1.1010 -0.5329
12426SOL     OW42124   5.144   2.421   0.833 -0.0362 -0.7846 -0.4265
12426SOL    HW142125   5.057   2.389   0.858  0.4563 -1.9365 -0.1554
12426SOL    HW242126   5.126   2.492   0.771 -1.2120  0.8570  1.7365
12427SOL     OW42127   3.812   2.616   0.757 -0.3962 -0.0179 -0.0646
12427SOL    HW142128   3.883   2.645   0.701  0.4884  1.7120  1.8851
12427SOL    HW242129   3.845   2.536   0.799  0.4952  0.8756  0.9673
12428SOL     OW42130   5.091   2.071   1.192  0.3159 -0.5624 -0.2773
12428SOL    HW142131   5.029   2.003   1.219  1.4858 -1.6796 -0.3728
12428SOL    HW242132   5.057   2.103   1.108 -0.2449 -1.0148 -0.2223
12429SOL     OW42133   3.570   1.407   9.900 -0.5376  0.3473 -0.4878
12429SOL    HW142134   3.640   1.355   9.941 -0.4621 -0.2715 -1.3884
12429SOL    HW242135   3.515   1.342   9.856 -0.0794  1.0525 -2.1710
12430SOL     OW42136   3.082   4.470   1.592 -0.2141 -0.4763  0.1890
12430SOL    HW142137   3.171   4.437   1.610  0.8857  2.5357  0.4788
12430SOL    HW242138   3.057   4.426   1.511  1.1564 -2.0977  0.6052
12431SOL     OW42139   5.019   2.655   0.162 -0.3177 -0.5897  0.2448
12431SOL    HW142140   5.113   2.646   0.143 -0.3022  1.0302 -0.4789
12431SOL    HW242141   5.015   2.677   0.255 -0.0023 -0.7709  0.3034
12432SOL     OW42142   6.436   2.178   9.192  0.3117 -0.2051 -0.0513
12432SOL    HW142143   6.480   2.109   9.142  0.7322  0.7344 -1.0187
12432SOL    HW242144   6.346   2.147   9.203  0.3295 -0.6291 -1.0463
12433SOL     OW42145   4.089   2.235   9.991  0.6065 -0.0890  0.1366
12433SOL    HW142146   4.107   2.141   9.994 -0.4205 -0.2718  0.8877
12433SOL    HW242147   4.112   2.266  10.079 -0.0807  0.1689  0.2261
12434SOL     OW42148   5.328   1.645   0.063  0.3022  0.6799  0.0384
12434SOL    HW142149   5.399   1.606   0.013  0.3928  0.0387  0.6591
12434SOL    HW242150   5.362   1.652   0.152 -2.3269 -5.1297  1.7865
12435SOL     OW42151   5.470   1.194   0.161 -0.2764 -0.7248  0.0276
12435SOL    HW142152   5.493   1.101   0.152 -0.7113 -0.8509  0.1915
12435SOL    HW242153   5.389   1.202   0.111 -1.5995 -0.9715  2.0713
12436SOL     OW42154   4.631   2.031   1.885 -0.7415 -0.6411  0.1030
12436SOL    HW142155   4.592   2.035   1.973 -0.1374  0.4469  0.3266
12436SOL    HW242156   4.719   1.996   1.899 -0.0345  1.1119  0.1483
12437SOL     OW42157   4.798   3.465   2.693  0.8000 -0.2982 -0.0608
12437SOL    HW142158   4.792   3.528   2.765  1.3086 -1.0022  0.6108
12437SOL    HW242159   4.867   3.405   2.721 -0.8589 -2.1718  0.0876
12438SOL     OW42160   5.327   3.332   2.232 -0.9011  0.2887  0.1231
12438SOL    HW142161   5.347   3.361   2.321  0.1247 -1.1492  0.3639
12438SOL    HW242162   5.365   3.245   2.226  0.2816  0.9449 -2.2042
12439SOL     OW42163   3.252   2.531   0.294 -0.1094 -0.1500 -0.0930
12439SOL    HW142164   3.208   2.470   0.354 -0.4645 -0.5066 -0.7080
12439SOL    HW242165   3.200   2.526   0.213  1.4550 -1.0851 -1.0603
12440SOL     OW42166   2.794   1.526   1.652  0.1240  0.0932 -0.2321
12440SOL    HW142167   2.830   1.450   1.698  0.2172 -0.9220 -1.9544
12440SOL    HW242168   2.699   1.512   1.655  0.0604  0.6826  0.7438
12441SOL     OW42169   2.730   1.412   1.144  0.0162  0.1076  0.0881
12441SOL    HW142170   2.797   1.421   1.075  0.6237  0.3572  0.7055
12441SOL    HW242171   2.648   1.436   1.100  0.6219  1.8458 -0.1416
12442SOL     OW42172   4.541   3.415   1.740  0.1730  0.4714 -0.0700
12442SOL    HW142173   4.538   3.464   1.658  0.0599  1.4210  0.4917
12442SOL    HW242174   4.510   3.477   1.806  0.0997 -0.3364  0.6663
12443SOL     OW42175   4.585   2.765   9.679 -0.4694  0.8918 -0.4558
12443SOL    HW142176   4.642   2.770   9.602  1.2957  1.8587  0.8876
12443SOL    HW242177   4.514   2.706   9.652  2.4009 -2.2860 -1.3786
12444SOL     OW42178   6.048   2.157   2.363 -0.6169 -0.1313  0.0502
12444SOL    HW142179   6.089   2.243   2.373  0.4669  0.1020 -4.7581
12444SOL    HW242180   6.093   2.101   2.426 -0.2088  2.4344  2.1232
12445SOL     OW42181   5.901   2.052   1.806 -0.0644  0.2910  0.1035
12445SOL    HW142182   5.832   2.089   1.861  0.2055  0.7825  0.1166
12445SOL    HW242183   5.855   2.014   1.731 -0.6826 -2.9190  2.0123
12446SOL     OW42184   4.031   3.427   0.594 -0.1806 -0.2078 -0.0890
12446SOL    HW142185   4.013   3.343   0.637 -1.0345 -0.0884 -0.1932
12446SOL    HW242186   3.946   3.454   0.558  0.0486  0.8004  0.1164
12447SOL     OW42187   4.563   2.214   9.350  0.0986  0.0839 -0.0294
12447SOL    HW142188   4.523   2.135   9.386  0.7325 -0.7218 -1.0808
12447SOL    HW242189   4.500   2.284   9.369 -2.1627 -1.2725 -2.2857
12448SOL     OW42190   4.312   2.358   0.744  0.0279  0.1183  0.5810
12448SOL    HW142191   4.355   2.273   0.735  0.6570  0.2783  1.9491
12448SOL    HW242192   4.296   2.386   0.654  0.0465 -1.3211  0.1058
12449SOL     OW42193   5.868   3.888   9.790 -0.3417  0.1227  0.1302
12449SOL    HW142194   5.790   3.928   9.750 -0.2112 -1.5675 -1.8712
12449SOL    HW242195   5.834   3.816   9.842 -0.1827 -0.1315 -0.1171
12450SOL     OW42196   5.671   1.031   0.539  0.1166  0.1459 -0.2212
12450SOL    HW142197   5.610   1.006   0.608 -0.4663 -2.3319 -1.5950
12450SOL    HW242198   5.677   1.126   0.547  0.0377 -0.0647  3.1917
12451SOL     OW42199   3.550   2.079   0.579 -0.0668 -0.2794  0.5726
12451SOL    HW142200   3.552   2.166   0.540  3.5788 -0.9920 -1.0862
12451SOL    HW242201   3.618   2.081   0.646  0.4037 -1.9377  0.1848
12452SOL     OW42202   3.605   7.204   2.674 -0.5536 -0.2288  0.1733
12452SOL    HW142203   3.632   7.290   2.642  0.6292 -0.4635  0.4950
12452SOL    HW242204   3.517   7.191   2.640  0.1394  0.1250 -1.7985
12453SOL     OW42205   5.201   0.791   0.818  0.5028  0.4789  0.2454
12453SOL    HW142206   5.153   0.785   0.901  1.5348  1.5966  0.9472
12453SOL    HW242207   5.240   0.705   0.805  1.3388  0.6487  1.5574
12454SOL     OW42208   5.367   2.706   2.217 -0.4414  0.7046 -0.9123
12454SOL    HW142209   5.406   2.697   2.130 -1.4146 -0.4295 -1.2509
12454SOL    HW242210   5.369   2.618   2.254 -1.1318  0.9539 -0.2696
12455SOL     OW42211   4.701   0.804   1.032 -0.0593 -0.5791  0.6840
12455SOL    HW142212   4.699   0.782   1.125 -3.4305  1.1776  1.1192
12455SOL    HW242213   4.775   0.754   0.997  1.9383 -0.4641  4.4673
12456SOL     OW42214   4.073   1.558   2.608  0.1769  0.2943 -0.6902
12456SOL    HW142215   4.106   1.469   2.601 -0.2045  0.2210 -1.4618
12456SOL    HW242216   4.004   1.553   2.674  2.0878  0.5539  1.4009
12457SOL     OW42217   5.137   2.762   9.741 -0.0518 -0.0598 -0.1050
12457SOL    HW142218   5.062   2.743   9.798  0.1169 -0.3818  0.0095
12457SOL    HW242219   5.183   2.833   9.786 -1.9087  2.2377 -1.6273
12458SOL     OW42220   5.503   0.785   6.422  0.0196  0.1148  0.2711
12458SOL    HW142221   5.522   0.758   6.512  2.6920 -1.4568 -0.7292
12458SOL    HW242222   5.411   0.763   6.410 -0.0890 -0.6600  2.2780
12459SOL     OW42223   4.378   3.258   9.766  0.5384  0.6334 -0.4521
12459SOL    HW142224   4.308   3.323   9.760 -0.0080  0.4561  2.9215
12459SOL    HW242225   4.336   3.182   9.808  1.8016 -0.9732 -1.9969
12460SOL     OW42226   4.154   2.051   1.855  0.9061  0.9063 -0.4788
12460SOL    HW142227   4.143   2.122   1.791  0.4233 -0.5989 -2.0853
12460SOL    HW242228   4.177   1.974   1.803  3.5979  0.3327  1.4498
12461SOL     OW42229   3.251   2.716   1.868 -0.3465 -0.1012  0.2770
12461SOL    HW142230   3.171   2.689   1.822 -1.3534 -0.1871  2.0261
12461SOL    HW242231   3.277   2.798   1.826  0.6988 -1.8772 -2.7014
12462SOL     OW42232   3.736   1.315   2.324 -0.3574 -0.5594  0.1530
12462SOL    HW142233   3.673   1.255   2.284 -1.4389  0.4461  0.3036
12462SOL    HW242234   3.766   1.270   2.403 -0.6485 -1.1933 -0.0997
12463SOL     OW42235   2.764   1.054   0.543  0.4912  0.7119 -0.2682
12463SOL    HW142236   2.792   1.110   0.471  0.2287  0.3572 -0.6508
12463SOL    HW242237   2.786   1.103   0.622  1.0280  0.9863 -0.5846
12464SOL     OW42238   5.169   0.379   9.381  0.1933 -0.5088  0.0562
12464SOL    HW142239   5.158   0.449   9.446  2.3226  0.7673 -0.9090
12464SOL    HW242240   5.112   0.308   9.412 -1.4080  1.3587  1.4597
12465SOL     OW42241   3.658   1.081   0.536 -0.4974 -0.6747 -0.1777
12465SOL    HW142242   3.681   0.992   0.508 -0.6774 -0.6588 -0.3707
12465SOL    HW242243   3.581   1.104   0.484 -0.9819 -0.7412  0.5070
12466SOL     OW42244   6.247   2.793   2.040 -0.0286 -0.3872 -0.2925
12466SOL    HW142245   6.153   2.775   2.039 -0.4879  1.7447  0.3542
12466SOL    HW242246   6.262   2.842   1.959  0.0231  1.3979  0.7583
12467SOL     OW42247   7.306   3.953   0.890 -0.4135  0.4700 -0.2555
12467SOL    HW142248   7.381   4.012   0.895 -0.5526  0.5222  1.4958
12467SOL    HW242249   7.345   3.868   0.866  0.1077  0.6508 -0.0648
12468SOL     OW42250   3.548   2.913   2.097 -0.6718 -0.2870 -0.1674
12468SOL    HW142251   3.569   2.827   2.136 -0.2891 -0.0690  0.1178
12468SOL    HW242252   3.634   2.950   2.075 -0.7164  0.8570  1.5145
12469SOL     OW42253   5.062   3.012   8.747  0.5085 -1.0214  0.1866
12469SOL    HW142254   4.984   3.046   8.703  1.0698 -0.6249 -0.5081
12469SOL    HW242255   5.030   2.935   8.794 -0.6393  0.0853  1.2520
12470SOL     OW42256   5.234   2.985   9.842 -0.6250 -0.0176 -0.2997
12470SOL    HW142257   5.309   3.037   9.873 -0.3691  0.0942 -1.0954
12470SOL    HW242258   5.160   3.019   9.892 -0.3205  0.5666 -0.2388
12471SOL     OW42259   5.469   2.552   0.925 -0.6210 -0.5602  0.7678
12471SOL    HW142260   5.533   2.549   0.997 -1.3602 -0.2982  1.4451
12471SOL    HW242261   5.444   2.644   0.919  0.2713 -0.3940 -0.5851
12472SOL     OW42262   2.870   1.601   2.174 -0.0385 -0.0555  0.3063
12472SOL    HW142263   2.837   1.612   2.263  0.5416 -1.3995  0.7050
12472SOL    HW242264   2.797   1.561   2.126 -0.2415  0.3751  0.2536
12473SOL     OW42265   3.473   2.889   1.352  0.2637  0.1041 -0.0573
12473SOL    HW142266   3.495   2.799   1.327  0.4761 -0.1719  1.0820
12473SOL    HW242267   3.497   2.895   1.445 -0.9013  0.9707  0.2033
12474SOL     OW42268   4.631   2.564   2.398 -0.5723  0.0091  0.6635
12474SOL    HW142269   4.608   2.482   2.355 -0.6107  1.1718 -1.6221
12474SOL    HW242270   4.555   2.585   2.453 -1.0436 -0.8814  0.3502
12475SOL     OW42271   4.940   0.830   3.201 -0.5508  0.4366 -0.4597
12475SOL    HW142272   4.852   0.794   3.211 -0.2180 -0.0620  0.8206
12475SOL    HW242273   4.973   0.792   3.120 -0.3623 -1.8435  0.6539
12476SOL     OW42274   3.702   4.511   9.594  0.4308 -0.0006 -0.0951
12476SOL    HW142275   3.744   4.470   9.670 -1.3174  0.1310  0.9601
12476SOL    HW242276   3.628   4.454   9.574  1.3865 -0.5153 -2.2691
12477SOL     OW42277   3.790   4.314   1.360 -0.2753  0.0027  0.0463
12477SOL    HW142278   3.837   4.336   1.280 -1.2299 -1.4743 -0.9507
12477SOL    HW242279   3.858   4.292   1.423  0.4713  0.8460 -0.4559
12478SOL     OW42280   3.723   3.334   1.160 -0.5350 -0.6777  0.0560
12478SOL    HW142281   3.673   3.381   1.094 -0.7530  1.0319  1.3957
12478SOL    HW242282   3.704   3.242   1.144 -1.3503 -0.2253 -1.6308
12479SOL     OW42283   4.000   2.659   1.034  0.2434  0.2958  0.1819
12479SOL    HW142284   4.044   2.686   0.954  1.2398  0.9026  0.9132
12479SOL    HW242285   4.034   2.719   1.101  0.9210 -1.4278  1.4426
12480SOL     OW42286   4.136   1.777   1.353  0.1195  0.0490  0.2495
12480SOL    HW142287   4.099   1.698   1.314  0.3347 -0.6826  1.4707
12480SOL    HW242288   4.129   1.844   1.285  1.6992 -1.4921 -1.4874
12481SOL     OW42289   3.603   2.824   3.838 -0.0983  0.0523 -0.5312
12481SOL    HW142290   3.556   2.907   3.825 -1.2458 -0.6172 -0.7653
12481SOL    HW242291   3.555   2.781   3.909  1.1848  0.0766  0.3571
12482SOL     OW42292   4.926   3.265   9.769 -1.0238 -0.2908  0.0333
12482SOL    HW142293   4.997   3.306   9.718 -0.7945  0.0080  0.5847
12482SOL    HW242294   4.881   3.208   9.706 -0.8119  0.1548 -0.5343
12483SOL     OW42295   4.545   2.429   9.135  0.4122  0.2974  0.3147
12483SOL    HW142296   4.540   2.336   9.113  2.1503  0.2742 -0.0674
12483SOL    HW242297   4.487   2.439   9.210  0.7275 -1.2274  0.7769
12484SOL     OW42298   2.937   2.571   3.140 -0.3636 -0.0355 -0.2179
12484SOL    HW142299   3.026   2.599   3.162 -0.2381 -2.5830  2.8800
12484SOL    HW242300   2.946   2.527   3.056  1.6070 -1.5014  0.7208
12485SOL     OW42301   5.772   1.903   2.050 -0.5157 -0.0818  0.1063
12485SOL    HW142302   5.718   1.856   2.114  0.2829  0.2326  1.0292
12485SOL    HW242303   5.721   1.901   1.969 -1.4173 -0.7307  0.6800
12486SOL     OW42304   5.319   2.149   0.746  0.0485 -0.1069  0.5135
12486SOL    HW142305   5.244   2.140   0.688 -1.6715 -1.3243  2.8779
12486SOL    HW242306   5.338   2.060   0.775  1.8100  0.3116  0.7240
12487SOL     OW42307   3.925   1.345   0.293 -0.2654 -0.1531 -0.0470
12487SOL    HW142308   4.001   1.313   0.245  0.6709  0.8318  0.7613
12487SOL    HW242309   3.917   1.287   0.368  0.6487  0.6871  0.7148
12488SOL     OW42310   3.415   2.659   2.433 -0.4382  0.3319  0.0346
12488SOL    HW142311   3.401   2.564   2.427 -0.5527  0.3216  0.4278
12488SOL    HW242312   3.507   2.671   2.413 -0.1281  0.0083  1.2298
12489SOL     OW42313   4.929   1.995   9.353 -0.1091  0.0700 -0.6047
12489SOL    HW142314   4.909   2.081   9.317 -0.2927 -0.3985 -1.6314
12489SOL    HW242315   4.939   1.938   9.277 -1.0342 -1.0527  0.1009
12490SOL     OW42316   6.510   2.450   9.009 -0.3742 -0.7211  0.4184
12490SOL    HW142317   6.500   2.494   9.094  2.0632 -2.3228  1.6000
12490SOL    HW242318   6.492   2.357   9.028  0.0056 -1.0621 -0.8567
12491SOL     OW42319   7.137   3.126   2.744 -0.2079  0.3467 -0.0787
12491SOL    HW142320   7.083   3.178   2.803 -1.2115 -1.0259  0.2409
12491SOL    HW242321   7.078   3.105   2.671  0.0491 -0.7354  0.0279
12492SOL     OW42322   4.661   2.870   9.914 -0.7227  0.0897 -0.1718
12492SOL    HW142323   4.579   2.889   9.959 -0.3829  1.2939 -0.0467
12492SOL    HW242324   4.634   2.844   9.826 -1.2203  1.2444 -0.3803
12493SOL     OW42325   2.245   2.143   1.829  0.1894  0.0468  0.0237
12493SOL    HW142326   2.219   2.107   1.744  1.0921  1.3141 -0.7904
12493SOL    HW242327   2.162   2.164   1.872 -0.2383  1.1861 -1.3233
12494SOL     OW42328   5.209   4.211   1.380  0.1986 -0.2369  0.1391
12494SOL    HW142329   5.148   4.149   1.341  0.8585 -0.5124 -0.4738
12494SOL    HW242330   5.269   4.234   1.309  0.9461 -0.1544  0.7841
12495SOL     OW42331   4.720   1.640   9.826 -0.2416 -1.0127  0.8908
12495SOL    HW142332   4.736   1.651   9.919  0.1810 -2.1334  0.9547
12495SOL    HW242333   4.645   1.580   9.821 -0.1198 -1.1390  0.5111
12496SOL     OW42334   4.797   1.416   0.320 -0.6007  0.1691  0.0112
12496SOL    HW142335   4.811   1.327   0.287  0.3550  0.5890 -0.7259
12496SOL    HW242336   4.706   1.416   0.351 -0.4776 -1.1768  0.3946
12497SOL     OW42337   3.832   3.409   0.032  0.4039 -0.1641  0.8485
12497SOL    HW142338   3.864   3.426  -0.056  3.2998 -1.3986  1.5900
12497SOL    HW242339   3.760   3.347   0.020  0.3323  0.2053 -0.6714
12498SOL     OW42340   3.255   1.886   1.263 -0.2504  0.1266  0.2744
12498SOL    HW142341   3.328   1.828   1.285  0.1573  0.8962  0.9810
12498SOL    HW242342   3.217   1.848   1.184  1.6576  0.3599 -0.7846
12499SOL     OW42343   3.422   3.176   1.982  0.3879  0.0714 -0.4616
12499SOL    HW142344   3.489   3.110   2.000  0.7365  0.5108 -0.1303
12499SOL    HW242345   3.340   3.134   2.010  0.7271  0.1440  0.6878
12500SOL     OW42346   4.634   3.414   1.427  0.0171 -0.5186  0.2935
12500SOL    HW142347   4.709   3.355   1.434  0.8370  0.5526  0.7141
12500SOL    HW242348   4.664   3.484   1.370 -0.8474 -0.3512  0.0424
12501SOL     OW42349   5.643   3.723   0.557 -0.4820  0.2948  0.2347
12501SOL    HW142350   5.617   3.654   0.618 -0.0681  0.2767  0.3941
12501SOL    HW242351   5.595   3.800   0.586  0.2534  0.4616  1.0165
12502SOL     OW42352   6.354   4.685   1.650  0.0463  0.4505 -0.1956
12502SOL    HW142353   6.441   4.726   1.652  0.2288  0.2533 -3.0774
12502SOL    HW242354   6.373   4.591   1.650 -0.2425  0.3805  1.1638
12503SOL     OW42355   5.977   1.492   0.171 -0.0930 -0.1484 -0.0291
12503SOL    HW142356   6.019   1.435   0.106  0.4903 -1.3985  1.4315
12503SOL    HW242357   5.918   1.435   0.219 -0.6083  0.8028  0.4776
12504SOL     OW42358   3.502   2.197   9.743 -0.0439 -0.5394  0.2630
12504SOL    HW142359   3.561   2.148   9.801  0.3461  0.2441  0.5388
12504SOL    HW242360   3.417   2.193   9.786 -0.1190 -1.3446  0.0602
12505SOL     OW42361   3.834   3.099   0.494 -0.2141 -0.5646 -0.0025
12505SOL    HW142362   3.847   3.139   0.408 -1.1459  0.8646  0.5109
12505SOL    HW242363   3.923   3.085   0.527  0.1270  0.4261 -0.4820
12506SOL     OW42364   5.372   3.413   1.337  0.2647 -0.0911  0.2482
12506SOL    HW142365   5.392   3.392   1.428 -0.3285  0.1328  0.4362
12506SOL    HW242366   5.405   3.339   1.287  1.9404  0.4725  0.4990
12507SOL     OW42367   4.803   2.230   0.738  0.2115  0.5866  0.0611
12507SOL    HW142368   4.816   2.323   0.756  0.6737  0.5532 -0.0814
12507SOL    HW242369   4.708   2.219   0.734  0.1594  1.7401 -3.3311
12508SOL     OW42370   6.085   3.236   0.171 -0.5586  0.2664 -0.2077
12508SOL    HW142371   6.176   3.208   0.173 -1.0702 -1.4595  2.7781
12508SOL    HW242372   6.089   3.332   0.169  1.3206  0.2470  1.3054
12509SOL     OW42373   3.016   1.310   2.416 -0.5848  0.0191 -0.6390
12509SOL    HW142374   3.067   1.231   2.435 -0.3583 -0.0911 -1.6831
12509SOL    HW242375   3.022   1.320   2.321  0.9871  2.3693 -0.3413
12510SOL     OW42376   4.730   1.481   0.644  0.0254 -0.2401 -0.5211
12510SOL    HW142377   4.642   1.468   0.677  0.9725  0.9442  2.6310
12510SOL    HW242378   4.772   1.395   0.651  0.0806 -0.0983  0.9843
12511SOL     OW42379   5.406   2.457   0.596  0.1639 -0.0020 -0.4694
12511SOL    HW142380   5.329   2.425   0.551 -1.2993  0.7154  1.4525
12511SOL    HW242381   5.441   2.525   0.538 -0.0597 -1.0031 -1.8019
12512SOL     OW42382   4.642   2.250   9.900  0.1463  0.0150  0.2819
12512SOL    HW142383   4.690   2.333   9.893 -1.2250  0.9450  1.4722
12512SOL    HW242384   4.619   2.227   9.810  0.4350  0.9939 -0.0442
12513SOL     OW42385   5.048   2.163   0.635 -0.2243  0.2020  0.6461
12513SOL    HW142386   5.096   2.225   0.580  0.0748  0.7154  1.4713
12513SOL    HW242387   4.956   2.181   0.615 -0.0971 -0.1335 -0.2412
12514SOL     OW42388   2.652   0.628   9.063  0.7224  0.0147 -0.5127
12514SOL    HW142389   2.617   0.611   8.976  0.5321 -0.0588 -0.4227
12514SOL    HW242390   2.579   0.668   9.111  1.4911  2.1458 -1.0631
12515SOL     OW42391   3.008   4.003   9.659 -0.3149  0.5528  0.3834
12515SOL    HW142392   2.995   3.966   9.572  1.9169 -2.1157  1.1537
12515SOL    HW242393   2.927   3.982   9.706  0.3998 -2.3323  0.4168
12516SOL     OW42394   4.366   1.272   1.388  0.1160 -0.1358 -0.3887
12516SOL    HW142395   4.408   1.205   1.334  0.0962  0.1542 -0.7709
12516SOL    HW242396   4.420   1.350   1.375  0.4267 -0.2131  0.4469
12517SOL     OW42397   4.882   3.434   0.629 -0.0193  0.7191 -0.3031
12517SOL    HW142398   4.812   3.396   0.575 -0.0368  0.5101 -0.1334
12517SOL    HW242399   4.959   3.433   0.571  0.4500 -1.3226  0.3017
12518SOL     OW42400   4.002   1.901   1.552 -0.2945  0.1265 -0.1588
12518SOL    HW142401   3.915   1.862   1.556 -0.9223  1.6026  1.2173
12518SOL    HW242402   4.054   1.839   1.501 -2.2166 -0.6371 -1.2582
12519SOL     OW42403   4.044   1.162   0.473 -0.9511  0.4638 -0.4445
12519SOL    HW142404   4.007   1.077   0.497 -1.1195  1.2906  2.3789
12519SOL    HW242405   4.086   1.146   0.388 -3.6325 -1.6587 -1.4754
12520SOL     OW42406   5.406   2.208   9.545  0.1693 -0.0567 -0.2154
12520SOL    HW142407   5.334   2.246   9.595  0.7396  1.0823 -0.2350
12520SOL    HW242408   5.410   2.261   9.465 -1.1905 -2.2902 -1.8312
12521SOL     OW42409   4.440   3.515   0.342  0.0414 -0.8192  0.1788
12521SOL    HW142410   4.451   3.421   0.358  0.1069 -0.7974  0.2630
12521SOL    HW242411   4.347   3.532   0.359  0.3861 -0.5339  1.8724
12522SOL     OW42412   6.055   4.517   9.114  0.4022  0.7173  0.1250
12522SOL    HW142413   6.141   4.534   9.075  0.5255  1.1264  0.5681
12522SOL    HW242414   6.032   4.429   9.084  2.6164 -0.9392  2.9444
12523SOL     OW42415   3.631   2.577   1.531  0.2942 -0.0485  0.6239
12523SOL    HW142416   3.540   2.561   1.555  0.1657 -1.0177 -0.4190
12523SOL    HW242417   3.631   2.575   1.435  1.2647  0.8260  0.5952
12524SOL     OW42418   5.259   2.896   0.294  0.3397 -0.5092 -0.7034
12524SOL    HW142419   5.270   2.983   0.256  0.5388 -0.6178 -0.8968
12524SOL    HW242420   5.170   2.870   0.271  1.0978 -1.3882 -2.8001
12525SOL     OW42421   3.940   3.285   0.821 -0.1281 -0.0104  1.1015
12525SOL    HW142422   3.851   3.313   0.839 -0.5806 -1.2635  0.8647
12525SOL    HW242423   3.970   3.246   0.903  0.8750  2.0982  1.7603
12526SOL     OW42424   4.594   2.433   0.561 -0.2114 -0.4635 -0.2583
12526SOL    HW142425   4.589   2.437   0.465  1.6659 -0.8174 -0.3976
12526SOL    HW242426   4.567   2.344   0.583 -0.7294 -0.3561 -0.4560
12527SOL     OW42427   5.082   1.077   0.825  0.5260  0.3965  0.2958
12527SOL    HW142428   5.039   1.068   0.741  0.0440  1.8735  0.3694
12527SOL    HW242429   5.156   1.017   0.821  1.8069  2.0530 -2.0329
12528SOL     OW42430   5.015   3.103   0.892  0.4437  0.1274 -0.1144
12528SOL    HW142431   4.958   3.078   0.819  0.4106  1.5193 -0.5801
12528SOL    HW242432   4.954   3.115   0.965  0.5181 -1.6658  0.2783
12529SOL     OW42433   5.262   2.391   3.048  0.4120 -0.4569  0.1528
12529SOL    HW142434   5.322   2.463   3.068  1.2476 -1.5476  1.6468
12529SOL    HW242435   5.193   2.398   3.113 -1.5888  1.2849 -2.0612
12530SOL     OW42436   5.275   4.639   0.595  0.2665 -0.0132 -0.1117
12530SOL    HW142437   5.368   4.620   0.604  0.0427 -1.6749 -1.0678
12530SOL    HW242438   5.256   4.701   0.665  1.9895 -0.0238  0.3816
12531SOL     OW42439   3.242   2.528   8.776 -0.2327  0.1911 -0.5139
12531SOL    HW142440   3.171   2.568   8.726  0.1199 -0.4467 -1.5445
12531SOL    HW242441   3.200   2.494   8.855 -0.8006  1.1863 -0.3856
12532SOL     OW42442   4.072   4.377   9.568  0.1951  0.3900 -0.3333
12532SOL    HW142443   4.133   4.449   9.587  2.3153 -1.4819  0.1544
12532SOL    HW242444   4.087   4.359   9.475  1.9020 -1.4086  0.2640
12533SOL     OW42445   5.158   2.297   9.655 -0.2665 -0.0463 -0.1508
12533SOL    HW142446   5.065   2.317   9.643 -0.0885  0.4997 -0.6272
12533SOL    HW242447   5.160   2.240   9.732 -1.0597 -0.5923 -0.5291
12534SOL     OW42448   5.443   2.512   8.772 -0.4045  0.0995 -0.5204
12534SOL    HW142449   5.425   2.420   8.788 -1.4782  0.5688  1.0676
12534SOL    HW242450   5.359   2.548   8.743 -0.1922  0.7447 -0.3479
12535SOL     OW42451   6.141   3.561   0.982 -0.3159  0.1439 -0.4284
12535SOL    HW142452   6.074   3.617   1.020  0.1923  0.7999 -0.4914
12535SOL    HW242453   6.144   3.587   0.890  0.3152  0.4019 -0.3339
12536SOL     OW42454   3.015   4.500   0.641  0.1651  0.4822  0.7756
12536SOL    HW142455   2.959   4.442   0.691  1.9780 -0.4540  1.7535
12536SOL    HW242456   3.039   4.450   0.563 -2.3238  1.7880 -0.8932
12537SOL     OW42457   4.581   2.791   0.418  0.5397  0.4305 -0.1907
12537SOL    HW142458   4.513   2.845   0.377  0.4076  0.1145 -0.3936
12537SOL    HW242459   4.539   2.706   0.430  1.5787 -0.4152 -2.3240
12538SOL     OW42460   5.715   3.100   2.838 -0.1999 -0.0140 -0.1417
12538SOL    HW142461   5.736   3.182   2.792 -1.5022 -0.3799 -1.4095
12538SOL    HW242462   5.799   3.072   2.875  0.8107  0.5083 -1.9437
12539SOL     OW42463   6.207   3.187   1.632  0.2193 -0.6402 -0.1750
12539SOL    HW142464   6.297   3.217   1.645 -0.2647  1.2408 -0.9102
12539SOL    HW242465   6.202   3.168   1.538 -0.6714  1.1478 -0.5076
12540SOL     OW42466   3.857   1.107   0.745 -0.5841  0.8182  0.1286
12540SOL    HW142467   3.830   1.164   0.817 -0.4703  0.4737  0.4438
12540SOL    HW242468   3.778   1.099   0.691 -0.9385  0.3098  0.7238
12541SOL     OW42469   4.485   1.555   1.979 -0.5154 -0.3975  0.2571
12541SOL    HW142470   4.470   1.506   1.898  1.8036 -1.9121  0.6962
12541SOL    HW242471   4.451   1.498   2.048  1.0091 -0.8505  0.6572
12542SOL     OW42472   4.105   2.371   0.251  0.0633 -0.2258  0.2868
12542SOL    HW142473   4.179   2.354   0.309  1.0885 -0.0242 -0.9327
12542SOL    HW242474   4.041   2.303   0.273  1.9161 -2.4224 -0.8386
12543SOL     OW42475   3.204   3.061   1.049  0.2116  0.3953  0.3098
12543SOL    HW142476   3.249   3.145   1.059  4.0829 -1.8821  2.8264
12543SOL    HW242477   3.232   3.029   0.963 -1.0837  1.4968 -0.5489
12544SOL     OW42478   5.256   0.471   0.043 -0.0549  0.2338  0.6196
12544SOL    HW142479   5.190   0.418   0.088  0.1522 -0.2826  0.3207
12544SOL    HW242480   5.209   0.550   0.015 -0.5844 -0.2016  0.2712
12545SOL     OW42481   3.675   2.257   1.084 -0.0813 -0.3928 -0.1778
12545SOL    HW142482   3.664   2.175   1.036 -0.2141  0.2654 -1.2873
12545SOL    HW242483   3.739   2.306   1.033 -0.3565  0.3937  0.2215
12546SOL     OW42484   2.953   4.904   0.358  0.4429  0.3224  0.9696
12546SOL    HW142485   3.049   4.905   0.352  0.3367  1.2435 -1.3044
12546SOL    HW242486   2.934   4.845   0.430  2.6526 -3.9964 -1.7633
12547SOL     OW42487   3.158   3.710   0.783  0.1853 -0.0977 -0.6958
12547SOL    HW142488   3.233   3.769   0.778 -0.0041  0.1976 -0.1314
12547SOL    HW242489   3.178   3.639   0.722  0.9177 -0.0072 -0.5623
12548SOL     OW42490   5.793   1.158   0.009  0.6337 -0.2712  0.6047
12548SOL    HW142491   5.792   1.245  -0.032  1.0069 -0.5139  0.0683
12548SOL    HW242492   5.722   1.110  -0.033  1.2500 -0.6399 -0.0369
12549SOL     OW42493   3.857   2.361   0.871  0.0410  0.0305  0.1602
12549SOL    HW142494   3.953   2.363   0.873  0.1264 -0.0050 -2.3915
12549SOL    HW242495   3.836   2.293   0.807 -1.6017  3.0856 -2.6871
12550SOL     OW42496   5.018   2.175   0.952  0.4948 -0.5261 -0.4091
12550SOL    HW142497   4.927   2.174   0.982  0.5327 -1.9682 -0.3074
12550SOL    HW242498   5.011   2.186   0.857  0.2771  0.8150 -0.2561
12551SOL     OW42499   3.769   1.759   1.516 -0.1793  0.1311 -0.6359
12551SOL    HW142500   3.756   1.738   1.608 -0.5026  0.6632 -0.5579
12551SOL    HW242501   3.790   1.676   1.475  1.2697  0.0937  0.1470
12552SOL     OW42502   2.962   4.198   0.841 -0.9341  0.1700  0.2305
12552SOL    HW142503   2.900   4.268   0.820 -0.5452  0.3709 -0.2585
12552SOL    HW242504   2.906   4.122   0.858 -1.2999  0.1815 -0.8435
12553SOL     OW42505   2.065   1.689   2.969  0.3461 -0.0735 -0.0344
12553SOL    HW142506   2.113   1.674   3.051  0.6104 -0.6946 -0.2973
12553SOL    HW242507   1.983   1.641   2.980 -0.1134  0.8068  0.3278
12554SOL     OW42508   3.999   1.690   2.133  0.2487 -0.2494 -0.1930
12554SOL    HW142509   4.054   1.644   2.071 -0.2020 -1.4868  0.3095
12554SOL    HW242510   3.973   1.623   2.197 -0.4893  0.6703  0.4913
12555SOL     OW42511   2.152   1.900   2.443 -0.7665  0.2818 -0.2490
12555SOL    HW142512   2.248   1.903   2.439 -0.8019  1.2620 -0.3950
12555SOL    HW242513   2.127   1.845   2.369 -0.1608 -2.9650  1.8219
12556SOL     OW42514   4.456   3.597   1.921  0.2658 -0.1695  0.0860
12556SOL    HW142515   4.436   3.601   2.015 -2.3688 -0.2459 -0.4354
12556SOL    HW242516   4.430   3.682   1.887  0.2343 -0.5117 -0.7609
12557SOL     OW42517   6.857   2.590   2.746 -0.1505  0.3925  0.1122
12557SOL    HW142518   6.864   2.500   2.714 -0.6359  0.9053 -1.5347
12557SOL    HW242519   6.947   2.623   2.745 -0.1432  0.3701 -0.6961
12558SOL     OW42520   6.305   1.145   1.094  0.2611  0.6184  0.2511
12558SOL    HW142521   6.353   1.168   1.174 -1.5407  0.8087  1.3113
12558SOL    HW242522   6.333   1.211   1.030  0.6408  1.3486  1.1430
12559SOL     OW42523   6.222   2.568   1.035  0.0026 -0.0134 -0.2768
12559SOL    HW142524   6.232   2.662   1.049 -0.3728 -0.1985  1.2788
12559SOL    HW242525   6.311   2.535   1.027  0.1907  0.2146  0.9227
12560SOL     OW42526   5.094   9.614   2.730  0.3502 -0.1631  0.1936
12560SOL    HW142527   5.126   9.679   2.793  0.2430 -0.0314  0.1135
12560SOL    HW242528   5.022   9.658   2.685 -0.2462 -0.6356  0.6940
12561SOL     OW42529   6.458   9.214   4.196  0.3001  0.0454  0.4815
12561SOL    HW142530   6.485   9.171   4.115 -0.3903 -0.7583  0.6776
12561SOL    HW242531   6.519   9.288   4.204  1.8135 -1.1486  0.3809
12562SOL     OW42532   3.775   2.610   3.122  0.3109 -0.5266 -0.0345
12562SOL    HW142533   3.779   2.538   3.185  0.6860 -0.6289 -0.1721
12562SOL    HW242534   3.857   2.604   3.074 -0.4282 -1.1267 -1.2678
12563SOL     OW42535   1.521   3.448   2.715 -0.2149  0.0185  0.3681
12563SOL    HW142536   1.586   3.398   2.664 -1.3487 -2.3477  1.1819
12563SOL    HW242537   1.534   3.539   2.687  4.2626 -0.1702  1.3468
12564SOL     OW42538   4.833   1.816   2.140 -0.6819 -0.3985  0.1120
12564SOL    HW142539   4.745   1.799   2.106 -1.2873  2.4835  0.0893
12564SOL    HW242540   4.818   1.858   2.225  0.4924  3.8980 -1.6788
12565SOL     OW42541   3.876   4.239   3.364 -0.3061 -0.8839  0.0629
12565SOL    HW142542   3.906   4.150   3.344 -1.7547 -1.5340  0.7476
12565SOL    HW242543   3.917   4.294   3.297 -0.0405 -2.1797 -0.8383
12566SOL     OW42544   2.393   1.993   5.504  0.1301 -0.0727  0.4057
12566SOL    HW142545   2.384   1.958   5.592  1.3791  2.6927  1.6595
12566SOL    HW242546   2.304   2.022   5.480 -0.0120  0.1022  1.1445
12567SOL     OW42547   4.405   3.200   2.788 -0.0428 -0.3930  0.4245
12567SOL    HW142548   4.457   3.137   2.739 -2.2014  0.6666 -3.4433
12567SOL    HW242549   4.328   3.151   2.817  0.5847 -0.6878  1.6105
12568SOL     OW42550   4.430   3.355   3.098  0.0945  1.2756 -0.6495
12568SOL    HW142551   4.469   3.442   3.105 -0.2689  1.4537 -0.8239
12568SOL    HW242552   4.450   3.327   3.008 -0.7633  1.6501 -0.9627
12569SOL     OW42553   4.316   2.485   3.313 -0.0181 -0.1127 -0.1925
12569SOL    HW142554   4.287   2.566   3.354  0.6134 -0.0991  0.2313
12569SOL    HW242555   4.239   2.429   3.313 -0.1212  0.0214  0.6686
12570SOL     OW42556   4.586   3.867   2.037  0.3049  0.4864  0.0411
12570SOL    HW142557   4.509   3.885   1.983  0.4432 -2.2423 -1.1197
12570SOL    HW242558   4.551   3.859   2.126 -0.4310  1.3601 -0.1520
12571SOL     OW42559   2.688   2.709   3.567  0.1090 -0.2112  0.1492
12571SOL    HW142560   2.713   2.788   3.518 -0.1124 -0.6677 -0.7021
12571SOL    HW242561   2.771   2.670   3.593  0.2149  0.4872  0.8667
12572SOL     OW42562   3.203   3.728   1.741 -0.3706 -0.5026 -0.0171
12572SOL    HW142563   3.195   3.708   1.834 -1.4874 -3.2514 -0.6624
12572SOL    HW242564   3.121   3.773   1.720  0.3908  1.2017  0.5469
12573SOL     OW42565   4.992   2.907   1.696 -0.1831  0.0421 -0.5152
12573SOL    HW142566   5.031   2.825   1.727  1.9227  0.7283 -1.3099
12573SOL    HW242567   4.911   2.915   1.747  0.3333 -1.7696  0.6480
12574SOL     OW42568   6.172   0.642   4.114  0.4537 -0.6220  0.1278
12574SOL    HW142569   6.112   0.597   4.055  0.8640 -0.8676 -0.1025
12574SOL    HW242570   6.251   0.587   4.116  0.7673 -0.1770  0.2302
12575SOL     OW42571   4.567   1.790   1.774  0.8726 -0.3142 -0.3335
12575SOL    HW142572   4.569   1.870   1.825  2.4813 -0.1310 -0.6744
12575SOL    HW242573   4.587   1.720   1.836  1.4748 -0.2376 -0.4427
12576SOL     OW42574   6.294   4.176   2.104  0.5243 -0.1350 -0.1613
12576SOL    HW142575   6.343   4.256   2.124  0.4203 -0.3588  1.0334
12576SOL    HW242576   6.324   4.112   2.168  1.0655 -1.2567 -1.5236
12577SOL     OW42577   2.818   4.216   3.076  0.1843 -0.1617 -0.0808
12577SOL    HW142578   2.734   4.187   3.112  0.6084 -0.9425  0.3007
12577SOL    HW242579   2.872   4.233   3.154  0.4461  0.1272 -0.3261
12578SOL     OW42580   7.178   3.561   1.887  0.0210  0.6953 -0.0292
12578SOL    HW142581   7.248   3.516   1.936 -2.2594 -0.8075  1.9860
12578SOL    HW242582   7.176   3.516   1.802  1.5134  0.7890 -0.1353
12579SOL     OW42583   4.985   3.604   2.442 -0.0302  0.7189  0.2401
12579SOL    HW142584   5.011   3.559   2.361 -1.4157 -1.3938  0.9280
12579SOL    HW242585   5.054   3.583   2.504 -0.7248 -0.5992  0.5893
12580SOL     OW42586   5.126   3.114   4.130 -0.1509 -0.6391 -0.0481
12580SOL    HW142587   5.030   3.113   4.125 -0.1259 -3.1104 -0.3012
12580SOL    HW242588   5.150   3.024   4.150  2.2254 -0.3674 -1.5840
12581SOL     OW42589   3.545   2.890   1.786  0.9633  0.5336 -0.1991
12581SOL    HW142590   3.581   2.902   1.874  1.4658  0.8480 -0.4431
12581SOL    HW242591   3.620   2.903   1.728  0.8654 -0.6995 -0.6285
12582SOL     OW42592   4.976   1.753   3.231  0.2189 -0.0280  1.2191
12582SOL    HW142593   5.022   1.819   3.282  0.1405  0.1225  1.0956
12582SOL    HW242594   4.897   1.732   3.282  1.7216 -2.2174  2.7470
12583SOL     OW42595   3.961   2.409   2.511 -0.1647  0.1155  0.3774
12583SOL    HW142596   3.988   2.483   2.457 -1.7375  1.1757  0.9774
12583SOL    HW242597   3.981   2.332   2.459 -1.3133  1.0990 -1.5944
12584SOL     OW42598   4.728   2.231   2.434 -0.7924  0.2215  0.2928
12584SOL    HW142599   4.638   2.248   2.462 -0.1893 -0.8861  3.1239
12584SOL    HW242600   4.763   2.172   2.501  1.4358 -0.9257 -1.8184
12585SOL     OW42601   6.763   2.029   3.925 -0.8243  0.4293  0.2920
12585SOL    HW142602   6.778   2.058   3.835 -0.0564  2.0827  0.9406
12585SOL    HW242603   6.850   2.006   3.958 -1.1478 -0.5028  0.5164
12586SOL     OW42604   4.014   1.348   4.353 -0.2551  0.0865 -0.0123
12586SOL    HW142605   4.050   1.416   4.296  1.3232 -0.8885 -0.1973
12586SOL    HW242606   4.037   1.376   4.442 -2.3971  1.4185  0.1609
12587SOL     OW42607   6.867   4.064   3.079 -0.5351  0.5983  0.0482
12587SOL    HW142608   6.887   4.044   3.170  1.6630 -1.6040 -0.8743
12587SOL    HW242609   6.948   4.047   3.032 -1.8214  1.0802 -2.4230
12588SOL     OW42610   5.945   3.513   1.645 -0.1674 -0.0481  0.8184
12588SOL    HW142611   5.944   3.489   1.738 -1.0933 -1.3417  0.4851
12588SOL    HW242612   5.868   3.470   1.608  0.4656  0.0564 -0.6533
12589SOL     OW42613   2.713   2.381   0.852  0.1257 -0.8391 -0.0683
12589SOL    HW142614   2.772   2.312   0.883  0.7954  0.2869  1.2580
12589SOL    HW242615   2.626   2.340   0.853  0.5020 -1.6489  0.7448
12590SOL     OW42616   3.435   2.966   2.464 -0.5255  0.1076 -0.0599
12590SOL    HW142617   3.454   2.954   2.557  1.7084  0.6321 -0.4299
12590SOL    HW242618   3.433   2.877   2.429  2.8199  0.0750 -0.2829
12591SOL     OW42619   5.803   4.234   1.821  0.1662  0.0334 -0.0564
12591SOL    HW142620   5.853   4.285   1.885 -1.3809  0.8101  0.5844
12591SOL    HW242621   5.744   4.180   1.874 -0.1094 -0.3959 -0.7917
12592SOL     OW42622   6.819   0.561   3.758  0.5974 -0.3023  0.4535
12592SOL    HW142623   6.730   0.594   3.752  0.5450 -0.6943 -1.2321
12592SOL    HW242624   6.874   0.638   3.742  0.5707 -0.0118  1.7429
12593SOL     OW42625   5.382   1.666   2.790 -0.2802  0.4424  0.1047
12593SOL    HW142626   5.440   1.706   2.725  0.2335  0.5551  0.6316
12593SOL    HW242627   5.391   1.572   2.774  1.4574  0.3636  1.3635
12594SOL     OW42628   5.247   4.423   2.655 -0.3124  0.0195 -0.6569
12594SOL    HW142629   5.298   4.348   2.687 -0.3392  0.5575  0.7139
12594SOL    HW242630   5.281   4.498   2.704 -2.8188  0.3034  0.7957
12595SOL     OW42631   6.389   2.572   2.210  0.4905  0.1726  0.5427
12595SOL    HW142632   6.457   2.508   2.187 -0.2383 -1.0770  1.8014
12595SOL    HW242633   6.426   2.657   2.184  2.3693 -0.5305  0.8805
12596SOL     OW42634   4.363   2.846   2.383 -0.1018 -0.4952 -0.7744
12596SOL    HW142635   4.428   2.892   2.435 -2.5304  1.5116  0.6051
12596SOL    HW242636   4.334   2.774   2.440 -0.0397 -0.5627 -0.8293
12597SOL     OW42637   1.564   3.062   2.430 -0.0459  0.2857 -0.0762
12597SOL    HW142638   1.659   3.053   2.435 -0.0627  0.2036  0.0883
12597SOL    HW242639   1.532   2.973   2.417  0.0116  0.5090 -1.8417
12598SOL     OW42640   3.625   2.577   1.861  0.1511  0.5193 -0.1901
12598SOL    HW142641   3.593   2.530   1.939  1.5898 -1.8669 -0.9606
12598SOL    HW242642   3.559   2.644   1.845  0.3711  1.8221  3.7347
12599SOL     OW42643   5.409   1.882   1.540 -0.2391 -0.4728 -0.6210
12599SOL    HW142644   5.363   1.937   1.477 -0.0787  0.5541  0.1415
12599SOL    HW242645   5.392   1.792   1.511 -1.0184 -0.0401 -1.5222
12600SOL     OW42646   4.277   3.545   2.955 -0.1803 -0.3158 -0.1682
12600SOL    HW142647   4.244   3.456   2.963  2.4432 -1.2961  0.3665
12600SOL    HW242648   4.357   3.536   2.902  1.6883  1.2739  2.2605
12601SOL     OW42649   5.497   0.711   1.872 -0.0674 -0.2366 -0.0771
12601SOL    HW142650   5.514   0.722   1.966 -3.6961 -1.2533  0.7647
12601SOL    HW242651   5.495   0.801   1.838  1.9474  0.1126  0.6555
12602SOL     OW42652   2.612   1.952   2.569  0.3052 -0.2235  0.7374
12602SOL    HW142653   2.558   1.884   2.609  0.4293 -0.5450  0.3630
12602SOL    HW242654   2.702   1.918   2.575  0.2090 -0.8878 -0.9826
12603SOL     OW42655   2.892   3.322   2.119 -0.1666 -0.0810 -0.1378
12603SOL    HW142656   2.869   3.272   2.197 -0.1858  0.5682  0.2718
12603SOL    HW242657   2.983   3.300   2.101 -0.4820 -1.0653 -0.5645
12604SOL     OW42658   7.750   3.063   1.250 -0.0864  0.2548 -0.1902
12604SOL    HW142659   7.728   3.133   1.312  0.5815 -0.9345  1.4251
12604SOL    HW242660   7.754   3.107   1.165 -2.0785  1.7301  0.4240
12605SOL     OW42661   5.110   1.516   3.456  0.1594  0.3347  0.1658
12605SOL    HW142662   5.181   1.467   3.498 -0.6698 -0.4715  0.6732
12605SOL    HW242663   5.129   1.608   3.476  0.4496  0.0502  1.2629
12606SOL     OW42664   3.594   1.044   9.284  0.5101 -0.0126 -0.0206
12606SOL    HW142665   3.668   1.039   9.345  0.5680  0.5197 -0.0455
12606SOL    HW242666   3.584   1.137   9.266 -1.0119  0.0451  1.0193
12607SOL     OW42667   3.830   2.503   3.390  0.3268 -0.0161 -0.0728
12607SOL    HW142668   3.753   2.543   3.430 -0.4399  0.0737 -1.6276
12607SOL    HW242669   3.852   2.430   3.447 -2.3322 -1.4907 -0.9094
12608SOL     OW42670   3.630   3.564   3.104  0.1765 -0.2074 -0.1279
12608SOL    HW142671   3.710   3.513   3.116  0.5995  0.3291 -0.6267
12608SOL    HW242672   3.645   3.613   3.023  0.4069  1.8864  1.1505
12609SOL     OW42673   4.955   3.605   1.774 -0.3949  0.2416 -0.5732
12609SOL    HW142674   4.902   3.641   1.845 -2.0904 -0.0411 -1.6375
12609SOL    HW242675   5.009   3.679   1.745 -2.5852  1.5035 -1.5927
12610SOL     OW42676   4.759   1.398   2.153 -0.1638  0.1248  0.1148
12610SOL    HW142677   4.686   1.339   2.132  0.5124 -1.8956  3.0690
12610SOL    HW242678   4.828   1.374   2.091 -0.5060 -1.0455  0.1683
12611SOL     OW42679   4.425   1.419   1.030 -0.2172 -0.1116 -0.0674
12611SOL    HW142680   4.406   1.450   0.941  2.2356  1.7079 -0.0367
12611SOL    HW242681   4.501   1.361   1.019 -0.6293 -0.7939  0.6961
12612SOL     OW42682   4.391   3.286   1.441 -0.0544 -0.8628 -0.0698
12612SOL    HW142683   4.485   3.305   1.439 -0.1279 -0.1969  1.6259
12612SOL    HW242684   4.351   3.361   1.397  0.2002 -0.9997 -0.5317
12613SOL     OW42685   4.745   1.349   1.236  0.4175  0.5550 -0.9276
12613SOL    HW142686   4.798   1.425   1.214 -1.1443  2.4989  1.8025
12613SOL    HW242687   4.800   1.298   1.296  0.6403  0.5982 -1.0942
12614SOL     OW42688   3.902   1.847   2.993  0.1441  0.2612 -0.4046
12614SOL    HW142689   3.832   1.811   2.939  0.7525 -0.7038 -0.5666
12614SOL    HW242690   3.976   1.855   2.933  0.9981 -1.3539  0.3894
12615SOL     OW42691   4.375   2.778   2.807 -0.1029  0.2535  0.1178
12615SOL    HW142692   4.308   2.809   2.868  0.3629  1.4143  0.0625
12615SOL    HW242693   4.457   2.809   2.844  0.2981 -0.1075 -0.4538
12616SOL     OW42694   4.787   0.974   2.063 -0.1561  0.0746 -0.3954
12616SOL    HW142695   4.693   0.992   2.073 -0.0617  0.3851 -0.0232
12616SOL    HW242696   4.793   0.921   1.984 -0.7643 -0.8994  0.1960
12617SOL     OW42697   5.481   0.454   5.286  0.6655 -0.3159  0.2690
12617SOL    HW142698   5.411   0.438   5.349  1.4278  1.7284  1.6922
12617SOL    HW242699   5.524   0.370   5.275 -0.8582 -1.1804  0.7875
12618SOL     OW42700   0.863   1.929   2.395  0.1419 -0.6123  0.2539
12618SOL    HW142701   0.917   2.008   2.399  0.7064 -1.0026  0.3613
12618SOL    HW242702   0.898   1.879   2.322 -0.6060 -0.4844 -0.1974
12619SOL     OW42703   5.427   1.454   2.104 -0.4372 -0.0272 -0.0880
12619SOL    HW142704   5.409   1.434   2.013  3.3122 -2.6255 -0.3494
12619SOL    HW242705   5.488   1.528   2.102 -0.0964 -0.2917  0.2873
12620SOL     OW42706   4.100   2.246   1.647  0.0266  0.0654 -0.3243
12620SOL    HW142707   4.036   2.187   1.607 -0.4182 -0.3804  1.0357
12620SOL    HW242708   4.147   2.283   1.572 -0.9234 -0.6050 -1.2804
12621SOL     OW42709   5.652   2.047   3.561  0.0862 -0.3663 -0.1988
12621SOL    HW142710   5.701   2.020   3.483 -1.7484 -1.5601 -0.9677
12621SOL    HW242711   5.691   1.998   3.633  1.5582  0.4788 -0.3976
12622SOL     OW42712   3.039   1.278   2.105  0.1677 -0.2097  0.1952
12622SOL    HW142713   3.069   1.238   2.023  3.0602  0.8459  0.6715
12622SOL    HW242714   2.964   1.331   2.080  0.5030 -0.5483 -1.6268
12623SOL     OW42715   5.190   2.509   1.507  0.0214  0.2376 -0.1975
12623SOL    HW142716   5.183   2.430   1.453  0.3535  1.0729 -1.5000
12623SOL    HW242717   5.234   2.572   1.450 -0.1537  1.3232  0.8639
12624SOL     OW42718   4.266   1.585   1.638 -0.0916  0.1621 -0.8665
12624SOL    HW142719   4.323   1.517   1.674  1.7507  1.4065 -1.3780
12624SOL    HW242720   4.290   1.590   1.546 -0.5714  1.1262 -0.9476
12625SOL     OW42721   5.918   2.972   1.488  0.0467  0.3402  0.5296
12625SOL    HW142722   5.928   2.903   1.422 -0.0291  0.1817  0.6833
12625SOL    HW242723   5.875   3.044   1.442 -1.9147 -0.5521  0.9376
12626SOL     OW42724   2.226   2.171   2.473  0.3416  0.3863  0.1410
12626SOL    HW142725   2.172   2.096   2.446  0.9819  0.3572 -1.0934
12626SOL    HW242726   2.302   2.168   2.415  1.4452  0.7112  1.5402
12627SOL     OW42727   4.963   1.183   1.326  0.1316  0.3290  0.7714
12627SOL    HW142728   5.054   1.174   1.299  0.5334  1.1942  1.8000
12627SOL    HW242729   4.944   1.102   1.374  1.2261  1.3161  2.9391
12628SOL     OW42730   4.971   2.753   2.673  0.1065  0.2207  0.1414
12628SOL    HW142731   4.878   2.733   2.687 -0.0112  0.7407  0.0938
12628SOL    HW242732   5.017   2.695   2.735 -0.3526  1.5937  1.8130
12629SOL     OW42733   6.791   4.085   2.393 -0.5097 -0.6610  0.4025
12629SOL    HW142734   6.715   4.127   2.353  0.4618  1.4577  0.7156
12629SOL    HW242735   6.867   4.131   2.355  0.6220 -2.6785  0.1605
12630SOL     OW42736   2.976   2.528   4.311  0.1285  0.1754 -0.3000
12630SOL    HW142737   2.977   2.451   4.254  0.6570  0.5491 -0.8121
12630SOL    HW242738   2.918   2.590   4.267  2.5616  1.4791 -1.8585
12631SOL     OW42739   5.156   2.891   2.169 -0.8068  0.0176  0.3662
12631SOL    HW142740   5.242   2.850   2.166 -0.3054  1.0522  0.4932
12631SOL    HW242741   5.102   2.831   2.220 -1.0498 -2.2772 -2.4554
12632SOL     OW42742   2.677   2.041   0.895  0.3097  0.0172 -0.1827
12632SOL    HW142743   2.658   2.093   0.973 -0.4425  0.0931 -0.4204
12632SOL    HW242744   2.674   1.950   0.926  1.0128  0.0832  0.0946
12633SOL     OW42745   3.611   2.033   2.095 -0.0938 -0.2328 -0.4580
12633SOL    HW142746   3.603   1.952   2.146 -0.3922  0.2571  0.2855
12633SOL    HW242747   3.658   2.007   2.015  1.8405 -0.6838  0.7999
12634SOL     OW42748   3.823   2.055   5.752  0.1042 -0.2420  0.7212
12634SOL    HW142749   3.863   2.033   5.668  0.0864  0.6665  0.4686
12634SOL    HW242750   3.855   1.987   5.812  0.5120 -0.6099  0.0989
12635SOL     OW42751   5.033   2.360   3.731  0.0809  0.2595  0.0120
12635SOL    HW142752   5.018   2.401   3.646 -0.1610 -1.0383 -0.5947
12635SOL    HW242753   4.946   2.352   3.770  0.2177  1.0701  0.4914
12636SOL     OW42754   4.973   3.027   2.007  0.3610  0.0337  0.1394
12636SOL    HW142755   4.903   3.012   2.070 -0.5525 -0.0477 -0.8956
12636SOL    HW242756   5.052   2.995   2.052 -0.5420 -1.6122  0.5846
12637SOL     OW42757   6.682   2.715   2.288  0.3509 -0.1815  0.3349
12637SOL    HW142758   6.716   2.803   2.305  0.1634  0.0599 -0.5326
12637SOL    HW242759   6.660   2.715   2.195 -0.7396 -0.7738  0.5816
12638SOL     OW42760   3.602   2.943   0.755  0.2549 -0.2802 -0.5957
12638SOL    HW142761   3.597   2.866   0.811  4.1851 -0.6740 -0.6209
12638SOL    HW242762   3.543   2.924   0.683 -0.3207 -2.4001  0.3852
12639SOL     OW42763   4.831   2.070   2.670 -0.5220 -0.4468  0.3945
12639SOL    HW142764   4.744   2.040   2.696 -0.0482 -1.7511  0.5485
12639SOL    HW242765   4.891   2.021   2.727  0.2745  1.1006  0.9051
12640SOL     OW42766   3.123   1.499   9.984  0.5319  0.2833 -0.2356
12640SOL    HW142767   3.190   1.452  10.034  1.1347  0.8560 -0.5039
12640SOL    HW242768   3.165   1.580   9.956  0.4284 -0.3298 -2.2485
12641SOL     OW42769   6.595   3.023   2.588 -0.1185 -0.7991  0.2519
12641SOL    HW142770   6.507   2.988   2.596 -0.1116 -0.4112  2.1130
12641SOL    HW242771   6.650   2.962   2.637  0.0356  1.2001  2.6584
12642SOL     OW42772   5.096   3.154   0.388  0.2083  0.3460 -0.3997
12642SOL    HW142773   5.079   3.248   0.396  0.1784  0.3933 -0.9724
12642SOL    HW242774   5.051   3.129   0.307  0.1584 -0.1740 -0.2110
12643SOL     OW42775   4.510   2.232   1.659  0.0559 -0.0893 -0.0302
12643SOL    HW142776   4.517   2.155   1.716  0.1086 -0.2697 -0.2801
12643SOL    HW242777   4.500   2.196   1.571  0.4871  0.1933 -0.1945
12644SOL     OW42778   7.588   2.517   3.755 -0.0672  0.5148  0.2519
12644SOL    HW142779   7.633   2.533   3.838  2.9143  0.5294 -1.3338
12644SOL    HW242780   7.587   2.602   3.712  0.5381  0.0118 -0.7614
12645SOL     OW42781   4.510   3.708   3.519 -0.0162  0.1547 -0.2705
12645SOL    HW142782   4.477   3.719   3.429 -1.2508 -0.7756  0.0555
12645SOL    HW242783   4.445   3.651   3.561  0.6919  0.3838  1.1405
12646SOL     OW42784   6.786   2.635   3.002  0.5298  0.4652  0.1279
12646SOL    HW142785   6.793   2.595   2.915 -0.7386  0.5594 -0.0236
12646SOL    HW242786   6.877   2.656   3.026  0.8751  0.6111 -1.2560
12647SOL     OW42787   5.149   3.606   3.430 -0.0153  0.7515 -0.1477
12647SOL    HW142788   5.168   3.567   3.516 -0.1970  3.8446  1.3496
12647SOL    HW242789   5.106   3.689   3.450  0.1434  1.6379 -3.2424
12648SOL     OW42790   4.349   3.902   3.283 -0.0059  0.0740  0.3530
12648SOL    HW142791   4.351   3.810   3.257 -0.8525  0.6859 -2.0570
12648SOL    HW242792   4.427   3.940   3.242 -0.3599  0.6842  0.2334
12649SOL     OW42793   4.216   2.241   3.619  0.0858  0.7818 -0.3104
12649SOL    HW142794   4.278   2.242   3.546 -3.1125  1.4459 -3.1514
12649SOL    HW242795   4.195   2.148   3.631 -1.3974  0.8546 -2.1049
12650SOL     OW42796   5.466   5.890   2.922  0.0113 -0.0667  0.1124
12650SOL    HW142797   5.489   5.838   3.000 -1.2543 -0.0498  0.5176
12650SOL    HW242798   5.418   5.965   2.958  0.8129  0.7665 -0.5665
12651SOL     OW42799   3.835   2.298   1.589  0.4010  0.4838  0.9743
12651SOL    HW142800   3.843   2.314   1.495  1.2801  0.9286  1.1229
12651SOL    HW242801   3.778   2.221   1.596 -3.0287  2.8464  0.2102
12652SOL     OW42802   5.479   1.781   2.182 -0.1324  0.1294 -0.0621
12652SOL    HW142803   5.532   1.709   2.149 -0.0459 -0.0515  0.4759
12652SOL    HW242804   5.513   1.799   2.269  0.5170  1.4960 -0.5869
12653SOL     OW42805   7.769   4.457   1.028  0.6981 -0.8160 -0.2235
12653SOL    HW142806   7.758   4.363   1.042  0.8160 -0.9420 -0.9671
12653SOL    HW242807   7.709   4.478   0.956  0.7876 -0.3519 -0.1629
12654SOL     OW42808   1.897   2.465   2.094  0.9954  0.0888 -0.3088
12654SOL    HW142809   1.857   2.468   2.007  1.2456 -0.7740 -0.4558
12654SOL    HW242810   1.892   2.373   2.120  3.1361 -0.0904 -0.4450
12655SOL     OW42811   3.535   1.815   1.783 -0.0873  0.0487  0.2261
12655SOL    HW142812   3.541   1.829   1.689 -0.0731  0.6032  0.3091
12655SOL    HW242813   3.625   1.823   1.815 -0.3189  1.5704  0.5215
12656SOL     OW42814   4.882   3.407   1.212 -0.1532 -0.4229  0.0957
12656SOL    HW142815   4.876   3.379   1.121  0.0625 -2.3022  0.6282
12656SOL    HW242816   4.974   3.397   1.235  0.2258  2.1978 -0.1007
12657SOL     OW42817   4.923   2.704   0.950 -0.5349 -0.6897 -0.3583
12657SOL    HW142818   4.945   2.668   1.036  0.9779  1.3117  0.1264
12657SOL    HW242819   4.863   2.776   0.967 -0.2490 -0.2950 -0.9650
12658SOL     OW42820   4.896   4.527   3.396 -0.1120  0.2803 -0.3530
12658SOL    HW142821   4.827   4.462   3.411 -0.0722  0.5025  0.8235
12658SOL    HW242822   4.976   4.475   3.384  0.1032  0.1307  1.5964
12659SOL     OW42823   5.469   2.115   1.145 -0.6819  0.1663  0.4294
12659SOL    HW142824   5.485   2.032   1.101  0.8473 -1.2255  3.4994
12659SOL    HW242825   5.436   2.090   1.231  0.5519  2.7169  1.6830
12660SOL     OW42826   5.436   3.661   3.367  0.0834 -0.1016  0.4695
12660SOL    HW142827   5.484   3.584   3.338 -0.4947 -0.1395 -0.3810
12660SOL    HW242828   5.350   3.627   3.394 -0.2400  0.2618 -0.0882
12661SOL     OW42829   2.499   1.420   2.600 -0.2228 -0.4017 -0.5980
12661SOL    HW142830   2.454   1.335   2.600 -2.5698  0.7786 -0.3562
12661SOL    HW242831   2.514   1.439   2.508 -0.9760 -0.4358 -0.7296
12662SOL     OW42832   5.329   2.937   2.680 -0.4599  0.1887  0.3953
12662SOL    HW142833   5.406   2.919   2.733  0.2869 -0.7021 -0.9585
12662SOL    HW242834   5.336   2.877   2.606 -0.8378  2.2196 -1.3442
12663SOL     OW42835   3.698   2.374   4.331  0.3655 -0.2569  0.4842
12663SOL    HW142836   3.757   2.443   4.304 -0.8187  0.6597  0.2042
12663SOL    HW242837   3.709   2.305   4.266  0.4889  0.2675 -0.0466
12664SOL     OW42838   5.638   2.477   2.367 -0.1536 -0.8315  0.0455
12664SOL    HW142839   5.707   2.540   2.345  1.5616 -2.4176  0.7752
12664SOL    HW242840   5.662   2.397   2.319 -1.1621 -1.5737  0.7629
12665SOL     OW42841   4.670   1.874   1.203  0.0237  0.1822  0.2728
12665SOL    HW142842   4.652   1.784   1.176  1.3424 -0.2903  0.9486
12665SOL    HW242843   4.686   1.920   1.120  0.0965 -0.3618 -0.0191
12666SOL     OW42844   6.248   1.784   3.424 -0.4032 -0.2113  0.2565
12666SOL    HW142845   6.291   1.868   3.432 -0.5955 -0.0694 -0.2099
12666SOL    HW242846   6.242   1.751   3.514  0.1849  0.0102  0.3755
12667SOL     OW42847   5.590   1.593   3.231  0.1820  0.1648  0.0972
12667SOL    HW142848   5.552   1.530   3.170  0.7292 -1.0676  1.0137
12667SOL    HW242849   5.630   1.660   3.174 -0.7162 -0.1051 -0.8717
12668SOL     OW42850   3.869   3.430   3.144  0.9067 -0.2928  0.1029
12668SOL    HW142851   3.918   3.360   3.101 -0.8643  0.9507 -4.2638
12668SOL    HW242852   3.923   3.508   3.132  0.1804  0.1557 -0.2909
12669SOL     OW42853   1.236   2.776   5.400  0.0910  0.1290 -0.2172
12669SOL    HW142854   1.293   2.726   5.458 -0.9864 -0.6248  0.1939
12669SOL    HW242855   1.169   2.715   5.373 -1.1188  1.2903  0.1136
12670SOL     OW42856   7.509   2.245   2.861  0.0494 -0.9040  0.8699
12670SOL    HW142857   7.483   2.255   2.769 -0.1904 -1.5471  0.8611
12670SOL    HW242858   7.546   2.157   2.865  1.0199 -0.4845  1.1704
12671SOL     OW42859   4.041   1.057   1.318 -0.0137 -0.2228 -0.0530
12671SOL    HW142860   4.110   1.015   1.268 -0.6745 -0.1405 -1.0400
12671SOL    HW242861   3.961   1.036   1.271 -0.4165  1.6256 -0.2234
12672SOL     OW42862   4.484   2.548   2.019 -0.1494  0.0505 -0.0198
12672SOL    HW142863   4.404   2.601   2.025 -0.9677 -0.8620 -2.1745
12672SOL    HW242864   4.502   2.543   1.925  4.0276  2.5287  0.5493
12673SOL     OW42865   4.433   1.787   1.360 -0.8076  0.5259 -0.4681
12673SOL    HW142866   4.414   1.881   1.357 -0.9217  0.4828 -1.2176
12673SOL    HW242867   4.348   1.746   1.379 -0.7134  0.5868  0.0923
12674SOL     OW42868   4.533   2.399   3.157 -0.3813 -0.2637 -0.3213
12674SOL    HW142869   4.465   2.426   3.219 -0.1879 -1.0116  0.2266
12674SOL    HW242870   4.486   2.347   3.092 -0.6758  0.9692 -1.1167
12675SOL     OW42871   4.887   2.809   3.273 -0.3477  0.5883  0.0426
12675SOL    HW142872   4.816   2.872   3.255  0.2175  1.2139 -0.0178
12675SOL    HW242873   4.843   2.724   3.274 -0.9187  0.8507 -1.1411
12676SOL     OW42874   7.965   3.265   3.915  0.5846  0.5773 -0.0400
12676SOL    HW142875   7.891   3.206   3.932  1.3619 -0.4136 -0.0550
12676SOL    HW242876   8.032   3.239   3.978  1.4350  0.5396 -0.9407
12677SOL     OW42877   4.390   2.602   4.603 -0.5809  0.4544 -0.0713
12677SOL    HW142878   4.478   2.606   4.640  0.2104 -3.5712 -1.3398
12677SOL    HW242879   4.401   2.632   4.512 -0.3848 -0.5298 -0.3818
12678SOL     OW42880   4.229   1.321   1.768 -0.0241  0.2320 -0.1423
12678SOL    HW142881   4.235   1.231   1.801  0.0250  0.2931  0.0186
12678SOL    HW242882   4.142   1.350   1.795  0.3114  0.5509  0.6282
12679SOL     OW42883   5.129   1.931   1.675 -0.0878  0.1561  0.1223
12679SOL    HW142884   5.076   2.007   1.652  1.4642  1.0919 -0.4649
12679SOL    HW242885   5.110   1.867   1.606 -1.6503 -0.1237  0.8017
12680SOL     OW42886   4.435   2.629   2.584 -0.1787 -0.8379  0.4254
12680SOL    HW142887   4.443   2.666   2.672  1.3588 -0.3544  0.0899
12680SOL    HW242888   4.371   2.558   2.594 -0.1457 -0.6792  1.8883
12681SOL     OW42889   4.511   3.456   2.473  0.0884 -0.5433 -0.2642
12681SOL    HW142890   4.473   3.391   2.414  1.1128  0.1859 -1.7398
12681SOL    HW242891   4.439   3.517   2.489  0.4412  0.5075 -2.5840
12682SOL     OW42892   4.779   1.642   2.517  0.6118  0.0248 -0.0996
12682SOL    HW142893   4.705   1.701   2.503  0.3897 -0.1902  0.1492
12682SOL    HW242894   4.761   1.567   2.460  1.1832  0.4491 -0.8456
12683SOL     OW42895   6.127   1.439   4.774 -0.1589  0.0438 -0.3721
12683SOL    HW142896   6.038   1.429   4.741  0.4162  0.3896 -2.0787
12683SOL    HW242897   6.176   1.369   4.731  0.5853  0.3987 -0.1049
12684SOL     OW42898   6.783   1.839   3.468 -0.0614  0.2896  0.4117
12684SOL    HW142899   6.709   1.856   3.409 -0.8123  0.8290  1.4739
12684SOL    HW242900   6.758   1.760   3.516  0.7503 -0.4097 -0.3114
12685SOL     OW42901   3.296   1.589   2.133  0.6711 -0.4559  0.2506
12685SOL    HW142902   3.224   1.560   2.188  0.1464 -0.6854 -0.5522
12685SOL    HW242903   3.307   1.682   2.154  0.1707 -0.4306  0.4057
12686SOL     OW42904   4.981   1.052   2.267  0.0625  0.1066  0.2357
12686SOL    HW142905   4.918   1.031   2.198  0.1774 -2.4571  0.8322
12686SOL    HW242906   5.062   1.071   2.220 -0.4024  0.4952 -0.4176
12687SOL     OW42907   2.803   2.676   2.631  0.1045  0.4856 -0.4282
12687SOL    HW142908   2.766   2.605   2.684  0.3954  1.4477  1.1140
12687SOL    HW242909   2.769   2.756   2.672 -1.4527  1.2406 -3.0524
12688SOL     OW42910   4.119   2.933   3.801  0.3800  0.0985 -0.1598
12688SOL    HW142911   4.213   2.946   3.807  0.1481  2.8416 -1.6736
12688SOL    HW242912   4.084   2.972   3.880  0.5683 -1.9924  0.9893
12689SOL     OW42913   3.291   3.019   3.393 -0.5497  0.0450  0.0454
12689SOL    HW142914   3.359   2.965   3.434 -0.0702  0.3772 -0.3076
12689SOL    HW242915   3.333   3.054   3.314 -0.9192  0.7709  0.1680
12690SOL     OW42916   4.056   2.345   2.863  0.6364  0.2081 -0.2441
12690SOL    HW142917   4.095   2.272   2.815  1.6732  0.1817  0.5965
12690SOL    HW242918   3.962   2.334   2.853  0.8078 -0.7155 -0.8878
12691SOL     OW42919   4.137   3.458   3.294  0.3353  0.3056 -0.2920
12691SOL    HW142920   4.120   3.372   3.255  1.4949  0.5291 -1.3514
12691SOL    HW242921   4.062   3.474   3.351 -1.8236  0.2545 -2.9802
12692SOL     OW42922   4.294   0.492   0.837 -0.2724 -0.6806 -0.2738
12692SOL    HW142923   4.378   0.481   0.882 -0.2689  0.3744  0.0031
12692SOL    HW242924   4.251   0.407   0.844  0.6361 -1.1370 -0.1390
12693SOL     OW42925   4.485   1.418   1.702  0.0368  0.0920 -0.6651
12693SOL    HW142926   4.517   1.448   1.617  1.5633 -0.9227 -0.4497
12693SOL    HW242927   4.402   1.375   1.682  0.6992 -0.7171 -1.7269
12694SOL     OW42928   2.164   2.851   3.870  0.1558  0.5430 -0.1842
12694SOL    HW142929   2.078   2.890   3.884  0.2104  0.6923 -0.2737
12694SOL    HW242930   2.223   2.904   3.924 -0.0927 -0.7020  1.3794
12695SOL     OW42931   4.148   4.361   2.436  0.5391  0.5397  0.1857
12695SOL    HW142932   4.240   4.386   2.433 -0.2689  4.2856  3.4792
12695SOL    HW242933   4.140   4.308   2.515 -0.4181  1.3923  0.6602
12696SOL     OW42934   3.609   3.179   0.621 -0.4232 -0.1962 -0.1331
12696SOL    HW142935   3.638   3.095   0.657 -0.7253 -0.8437 -1.3784
12696SOL    HW242936   3.658   3.189   0.540 -1.5106  0.0897 -0.7709
12697SOL     OW42937   4.566   2.246   2.824  0.1703 -0.3509  0.3742
12697SOL    HW142938   4.572   2.163   2.776  0.2405 -0.2813  0.2639
12697SOL    HW242939   4.498   2.230   2.890 -0.5265 -0.1595 -0.3009
12698SOL     OW42940   2.834   1.871   1.321  0.3202  0.4290  0.1089
12698SOL    HW142941   2.834   1.953   1.370 -1.2240  0.6742 -0.2461
12698SOL    HW242942   2.741   1.847   1.315  0.5513 -0.1189 -1.8101
12699SOL     OW42943   5.312   4.288   3.549  0.3940 -0.2982  0.3475
12699SOL    HW142944   5.319   4.193   3.554  1.5701 -0.2129  0.4622
12699SOL    HW242945   5.254   4.311   3.622 -2.3342 -1.1619 -1.4845
12700SOL     OW42946   5.234   0.346   2.437 -0.0703 -0.2325 -0.6210
12700SOL    HW142947   5.141   0.349   2.456  0.5465  0.7616  2.3986
12700SOL    HW242948   5.277   0.377   2.516  2.9006 -1.9355 -1.4608
12701SOL     OW42949   4.434   4.442   0.938 -0.3829  0.2398 -0.0451
12701SOL    HW142950   4.397   4.465   0.853  2.1917 -1.3570 -1.6682
12701SOL    HW242951   4.511   4.497   0.947  2.2624 -3.1059 -1.1322
12702SOL     OW42952   3.633   4.421   0.368 -0.3367  0.0188  0.3155
12702SOL    HW142953   3.693   4.357   0.407  1.3886  1.3397 -0.1686
12702SOL    HW242954   3.649   4.502   0.416 -2.1171  0.2742  0.5327
12703SOL     OW42955   3.422   2.247   2.176 -0.2975 -0.0788 -0.1029
12703SOL    HW142956   3.485   2.197   2.124  1.4017 -0.6475  2.4051
12703SOL    HW242957   3.391   2.186   2.242 -1.1131  1.0881  0.6178
12704SOL     OW42958   3.244   2.410   2.471  0.0539 -0.3896 -0.8322
12704SOL    HW142959   3.253   2.360   2.552 -0.1191 -0.0483 -0.5997
12704SOL    HW242960   3.151   2.403   2.449 -0.3360  1.3334  0.1836
12705SOL     OW42961   5.726   2.297   1.870  0.4278 -0.3352 -0.5369
12705SOL    HW142962   5.764   2.322   1.785 -0.6319  0.6463 -0.7326
12705SOL    HW242963   5.662   2.365   1.889 -0.4585 -1.3799  0.3147
12706SOL     OW42964   4.181   3.975   2.217 -0.3542  0.0652 -0.3218
12706SOL    HW142965   4.175   3.919   2.295  2.4111 -0.3168 -0.3401
12706SOL    HW242966   4.090   3.996   2.196 -1.2077 -0.6774  2.3902
12707SOL     OW42967   1.139   3.732   1.973  0.1866 -0.1736  0.4197
12707SOL    HW142968   1.150   3.747   2.067 -0.8257 -3.2792  1.1060
12707SOL    HW242969   1.180   3.646   1.958 -1.0058 -0.3960 -1.6751
12708SOL     OW42970   4.635   1.222   2.917  0.3199  0.4580  0.1871
12708SOL    HW142971   4.655   1.131   2.939 -2.4889 -0.4733 -0.8402
12708SOL    HW242972   4.676   1.235   2.831  2.1296  0.7326  1.0573
12709SOL     OW42973   4.866   2.448   0.881 -0.5994  0.1786 -0.0682
12709SOL    HW142974   4.826   2.430   0.966 -0.8517  0.0741 -0.2068
12709SOL    HW242975   4.878   2.543   0.880  2.3675 -0.1531  1.3723
12710SOL     OW42976   4.392   3.602   2.191 -0.4615  0.1310 -0.4564
12710SOL    HW142977   4.342   3.529   2.227 -0.5642  0.8678  0.9363
12710SOL    HW242978   4.391   3.668   2.261 -1.0627  1.7830 -2.0022
12711SOL     OW42979   5.909   2.848   4.164  0.3862 -0.7925  0.0906
12711SOL    HW142980   5.833   2.816   4.115  0.3583  0.2924 -0.5885
12711SOL    HW242981   5.871   2.884   4.245  0.3631 -1.9191  0.5891
12712SOL     OW42982   5.377   9.985   3.521  0.4357 -0.0801 -0.0882
12712SOL    HW142983   5.329  10.064   3.496  1.7903  0.8439  0.1668
12712SOL    HW242984   5.449   9.980   3.459  0.5396 -0.9409  0.0948
12713SOL     OW42985   5.226   0.667   1.881  0.0535 -0.4526  0.6388
12713SOL    HW142986   5.198   0.710   1.962 -0.3533 -0.0645  0.2937
12713SOL    HW242987   5.318   0.691   1.872 -0.4339  1.1832 -0.0797
12714SOL     OW42988   3.365   3.128   3.134  0.5030  0.1950  0.0455
12714SOL    HW142989   3.333   3.218   3.132 -1.2617 -0.4030  0.6223
12714SOL    HW242990   3.422   3.121   3.057 -0.2628  1.4722 -0.6478
12715SOL     OW42991   5.144   1.956   3.116 -0.2814  0.3771 -0.3150
12715SOL    HW142992   5.190   1.927   3.037  1.1699  0.4254  0.4978
12715SOL    HW242993   5.055   1.921   3.106  0.2803 -0.8143 -1.3117
12716SOL     OW42994   4.570   3.015   1.380 -0.2900  0.0564  0.2099
12716SOL    HW142995   4.502   2.993   1.316 -1.3351  0.2731  1.2111
12716SOL    HW242996   4.544   2.966   1.459  0.8263 -0.0015  0.5461
12717SOL     OW42997   4.088   2.420   1.164 -0.4201 -0.2174  0.0337
12717SOL    HW142998   4.117   2.334   1.134 -1.4932 -0.4430 -0.3882
12717SOL    HW242999   4.063   2.466   1.084  1.6023  1.0527  0.1101
12718SOL     OW43000   3.232   4.106   4.395 -0.1221  0.1163  0.5533
12718SOL    HW143001   3.156   4.050   4.376  0.2384  0.1889 -1.1475
12718SOL    HW243002   3.256   4.084   4.485 -1.7385 -0.4045  0.8729
12719SOL     OW43003   7.051   4.414   3.180  0.0550 -0.3632  0.4533
12719SOL    HW143004   6.964   4.392   3.212  0.8129 -1.5313  1.7885
12719SOL    HW243005   7.052   4.385   3.089 -0.4357 -1.7936  0.8906
12720SOL     OW43006   4.821   2.928   1.299 -0.4202 -0.2845 -0.4046
12720SOL    HW143007   4.856   2.840   1.313  1.9109  0.9370  1.9365
12720SOL    HW243008   4.733   2.925   1.337  1.0520 -0.6284  3.1401
12721SOL     OW43009   4.403   1.726   3.321  0.0557  0.1465 -0.0903
12721SOL    HW143010   4.421   1.798   3.260  0.4742 -1.4982 -1.9590
12721SOL    HW243011   4.393   1.649   3.265  0.5123 -1.4353  1.9437
12722SOL     OW43012   3.983   1.706   1.792  0.1176  0.1524  0.6010
12722SOL    HW143013   4.060   1.718   1.736 -1.2322  0.8143 -1.1571
12722SOL    HW243014   3.973   1.611   1.798  1.5409  0.0341  1.5417
12723SOL     OW43015   4.794   2.600   2.142 -0.2337 -0.9716 -0.1743
12723SOL    HW143016   4.779   2.693   2.130  2.5576 -0.3933  0.5181
12723SOL    HW243017   4.716   2.569   2.188 -1.4063  0.8954 -0.8533
12724SOL     OW43018   3.493   4.571   2.647  0.3243  0.3182 -0.4362
12724SOL    HW143019   3.482   4.630   2.722  0.6114  0.6467 -0.6471
12724SOL    HW243020   3.571   4.605   2.602  1.8215 -1.5194  0.6597
12725SOL     OW43021   2.208   4.071   3.037 -0.1402  0.1984 -0.0109
12725SOL    HW143022   2.219   4.067   2.942 -0.7442  0.7259 -0.1048
12725SOL    HW243023   2.274   4.010   3.071  0.8683  0.8979 -0.7003
12726SOL     OW43024   3.976   3.063   3.550 -0.1674 -0.1128 -0.7536
12726SOL    HW143025   3.937   3.071   3.463 -0.3693  0.2642 -0.6299
12726SOL    HW243026   4.000   2.970   3.558  0.5012 -0.0070 -1.4904
12727SOL     OW43027   3.636   0.897   1.779 -0.4263  0.1327  0.0775
12727SOL    HW143028   3.731   0.889   1.786 -0.4738 -0.3776  0.1705
12727SOL    HW243029   3.622   0.969   1.717  0.0176  0.4988  0.3968
12728SOL     OW43030   6.397   2.421   3.273 -0.4036  0.1337  0.2083
12728SOL    HW143031   6.457   2.477   3.322 -0.1164 -0.8725  1.0290
12728SOL    HW243032   6.415   2.441   3.181  0.2325  0.8202  0.4780
12729SOL     OW43033   2.326   3.168   1.692 -0.4775 -0.2829 -0.5518
12729SOL    HW143034   2.285   3.139   1.611 -1.9566 -3.1564  1.1485
12729SOL    HW243035   2.291   3.110   1.759  0.7732  1.9661  2.1668
12730SOL     OW43036   4.718   2.660   2.732  0.1126  0.1613 -0.1028
12730SOL    HW143037   4.699   2.590   2.794  1.2494 -0.6979 -0.6890
12730SOL    HW243038   4.670   2.635   2.653  1.2570 -0.4547 -0.6136
12731SOL     OW43039   5.337   2.157   3.150  0.4233 -0.1583 -0.1197
12731SOL    HW143040   5.288   2.229   3.109  0.1244 -0.9885 -1.2350
12731SOL    HW243041   5.285   2.079   3.132  1.5103 -0.8716 -0.2010
12732SOL     OW43042   3.467   3.534   1.705  0.5307 -0.8068 -0.1412
12732SOL    HW143043   3.484   3.547   1.799  0.6493 -0.6514 -0.1840
12732SOL    HW243044   3.382   3.490   1.702  0.3620 -0.4898  0.0272
12733SOL     OW43045   6.328   4.134   2.960  0.0829 -0.3768  0.3709
12733SOL    HW143046   6.252   4.184   2.990  0.1637 -0.4765  0.7500
12733SOL    HW243047   6.331   4.058   3.019 -1.3477 -1.9891 -1.5628
12734SOL     OW43048   4.493   3.689   1.032  0.0497  0.1984 -0.3753
12734SOL    HW143049   4.520   3.665   1.121 -3.9462 -2.9065  0.1854
12734SOL    HW243050   4.415   3.743   1.045  0.9983  1.9942 -1.9821
12735SOL     OW43051   3.261   2.886   2.704 -0.2075 -0.1861 -0.2280
12735SOL    HW143052   3.339   2.839   2.732 -0.7775  0.2552  2.1892
12735SOL    HW243053   3.202   2.818   2.672 -0.0527 -0.8453  0.8753
12736SOL     OW43054   3.865   4.119   1.062  0.7645  0.1239 -0.5625
12736SOL    HW143055   3.807   4.060   1.110  2.5164 -1.2564 -0.0783
12736SOL    HW243056   3.839   4.110   0.970 -0.6406  0.5126 -0.2026
12737SOL     OW43057   4.454   1.132   3.125  0.1238  0.3777  0.8332
12737SOL    HW143058   4.510   1.072   3.175 -3.0116 -0.9858  2.8143
12737SOL    HW243059   4.427   1.081   3.048  0.4786  0.5723  0.5762
12738SOL     OW43060   4.891   1.405   1.825  0.5534  0.4097 -0.0027
12738SOL    HW143061   4.811   1.361   1.854  0.3203 -0.5841 -2.0793
12738SOL    HW243062   4.901   1.478   1.886 -0.4682 -1.0012  1.9194
12739SOL     OW43063   6.844   3.370   3.025 -0.1105 -0.4451 -0.5914
12739SOL    HW143064   6.919   3.385   2.968  0.3629 -0.9661 -0.1074
12739SOL    HW243065   6.870   3.406   3.110 -0.0809 -1.3754 -0.2004
12740SOL     OW43066   5.885   2.426   2.611 -0.5524 -0.5169 -0.6207
12740SOL    HW143067   5.941   2.416   2.688 -0.5309 -1.2093 -0.7237
12740SOL    HW243068   5.884   2.520   2.594  0.1807 -0.4555 -0.3226
12741SOL     OW43069   4.668   3.222   2.625 -0.4940 -0.7668 -0.2598
12741SOL    HW143070   4.722   3.283   2.675 -1.3335 -1.1693  1.1631
12741SOL    HW243071   4.619   3.278   2.564  1.8930 -0.4442 -1.9799
12742SOL     OW43072   5.185   5.402   2.637 -0.1568  0.1530  0.1973
12742SOL    HW143073   5.114   5.402   2.701  0.8031 -1.2263  1.2885
12742SOL    HW243074   5.214   5.493   2.634  0.7795 -0.0120  2.8712
12743SOL     OW43075   5.847   3.222   1.350  0.0853  0.3659 -0.0050
12743SOL    HW143076   5.786   3.212   1.278  0.3550 -0.9005 -0.0713
12743SOL    HW243077   5.924   3.265   1.312 -0.3834  1.1152 -0.1187
12744SOL     OW43078   5.189   3.156   1.808 -0.1313  0.1826  0.2778
12744SOL    HW143079   5.250   3.086   1.784 -0.2669 -0.1725  0.9734
12744SOL    HW243080   5.115   3.111   1.848 -0.4968  0.6774  0.1605
12745SOL     OW43081   4.033   2.582   3.004  0.1859 -0.5006 -0.2518
12745SOL    HW143082   4.052   2.499   2.960 -0.1153  0.0300 -1.3992
12745SOL    HW243083   4.067   2.571   3.092  2.0138 -1.1047 -1.0151
12746SOL     OW43084   4.178   2.923   0.274 -0.2265  0.5953  0.4658
12746SOL    HW143085   4.265   2.949   0.244 -0.0372 -1.2920 -0.6754
12746SOL    HW243086   4.171   2.831   0.250 -2.6279  0.7797  0.3879
12747SOL     OW43087   4.749   1.541   3.146  0.0958  0.1645 -0.2857
12747SOL    HW143088   4.798   1.481   3.090  0.7521  0.5365 -0.1084
12747SOL    HW243089   4.723   1.613   3.088 -0.1831  0.0029 -0.3632
12748SOL     OW43090   2.169   2.603   2.059  0.4540 -1.1566 -0.1953
12748SOL    HW143091   2.083   2.564   2.040  0.4423 -0.0213 -2.7312
12748SOL    HW243092   2.220   2.532   2.096 -2.3540 -1.1963  3.8419
12749SOL     OW43093   3.060   0.994   2.531  0.7830 -0.0985 -0.1622
12749SOL    HW143094   3.053   0.965   2.440  0.8234  0.6907 -0.4181
12749SOL    HW243095   3.040   0.916   2.583 -1.7410  0.0428 -0.8537
12750SOL     OW43096   5.182   2.585   3.708 -0.4751 -0.5858 -0.3039
12750SOL    HW143097   5.251   2.617   3.649 -0.3742 -0.6297 -0.2100
12750SOL    HW243098   5.187   2.489   3.701 -0.1502 -0.6043  0.1343
12751SOL     OW43099   3.499   1.874   3.453  0.5094 -0.2862  0.1404
12751SOL    HW143100   3.560   1.805   3.428 -1.3215 -0.8380 -3.0378
12751SOL    HW243101   3.415   1.845   3.418 -0.8048  2.3239  1.0314
12752SOL     OW43102   5.651   0.960   3.296  0.0911 -0.5364 -0.4636
12752SOL    HW143103   5.589   1.003   3.237  1.4337 -0.1235 -1.5986
12752SOL    HW243104   5.684   0.885   3.246  1.9151  0.3365 -0.6097
12753SOL     OW43105   6.662   1.970   4.645  0.3045 -0.2408  0.2327
12753SOL    HW143106   6.754   1.992   4.661  0.6267 -1.0537 -0.4641
12753SOL    HW243107   6.613   2.046   4.676  1.2442  0.4317  0.0761
12754SOL     OW43108   3.726   2.053   1.532  0.2156  0.3984  0.1478
12754SOL    HW143109   3.768   1.972   1.506  1.1273  1.4607 -1.7393
12754SOL    HW243110   3.677   2.081   1.455 -0.3969  1.4454  0.9035
12755SOL     OW43111   3.705   3.682   3.443  0.0649  0.2130  0.0762
12755SOL    HW143112   3.691   3.606   3.500  0.0236  0.6023  0.5984
12755SOL    HW243113   3.617   3.713   3.422  0.0777 -0.0191 -0.3249
12756SOL     OW43114   6.877   0.840   1.761 -0.4378 -0.0773  0.1238
12756SOL    HW143115   6.818   0.830   1.687 -0.5300 -0.5572  0.2650
12756SOL    HW243116   6.823   0.877   1.831  0.0579  2.1635 -0.6162
12757SOL     OW43117   6.168   2.383   0.754  0.1425 -0.0873  0.7697
12757SOL    HW143118   6.134   2.466   0.788 -0.9330  0.2652 -1.0995
12757SOL    HW243119   6.090   2.333   0.730  0.8494 -0.2610 -1.2833
12758SOL     OW43120   5.245   1.130   2.737 -0.0629 -0.3995 -0.9488
12758SOL    HW143121   5.305   1.073   2.690 -1.7830 -2.3029 -0.8871
12758SOL    HW243122   5.210   1.076   2.807 -2.2925  0.4771 -1.3449
12759SOL     OW43123   4.415   1.362   2.997  0.3120 -0.3114  1.0617
12759SOL    HW143124   4.452   1.289   3.048  1.3068 -0.5293  0.0557
12759SOL    HW243125   4.468   1.364   2.918  0.4189  1.6382  1.1666
12760SOL     OW43126   3.091   4.732   1.672  0.1868 -0.2928 -0.0699
12760SOL    HW143127   3.072   4.638   1.670  0.0155 -0.2491 -0.6169
12760SOL    HW243128   3.120   4.752   1.583 -2.1699  0.6498 -0.6754
12761SOL     OW43129   3.898   3.088   5.074 -0.2933  0.3757 -0.4278
12761SOL    HW143130   3.921   3.000   5.046  1.2255  1.0301 -1.2669
12761SOL    HW243131   3.859   3.076   5.161  1.6368 -0.9221  0.2745
12762SOL     OW43132   4.755   1.343   4.218 -0.4621  0.0908 -0.5271
12762SOL    HW143133   4.771   1.273   4.281  1.3272  0.0526 -1.0073
12762SOL    HW243134   4.735   1.419   4.272 -1.5783 -0.5653  0.0147
12763SOL     OW43135   3.222   2.833   5.180  0.5138  0.1432 -0.7245
12763SOL    HW143136   3.172   2.800   5.255 -0.4704  0.8299 -1.0617
12763SOL    HW243137   3.156   2.876   5.125  1.1043 -0.9224 -2.3061
12764SOL     OW43138   5.895   2.380   5.644  0.5433  0.2663  0.6767
12764SOL    HW143139   5.911   2.385   5.738 -0.2918 -0.1523  0.8447
12764SOL    HW243140   5.908   2.287   5.623  1.1388  0.4285  0.2960
12765SOL     OW43141   4.910   2.463   2.484  0.5707 -0.0339  1.2799
12765SOL    HW143142   4.821   2.443   2.456 -0.0951  2.7415  1.2299
12765SOL    HW243143   4.951   2.378   2.497 -1.4142 -1.3612 -0.8054
12766SOL     OW43144   6.243   1.646   3.646 -0.1075 -0.2168  0.0540
12766SOL    HW143145   6.299   1.569   3.643  0.4376  0.2097 -1.9875
12766SOL    HW243146   6.158   1.614   3.678  0.7569 -1.2072  1.4149
12767SOL     OW43147   4.006   3.687   0.896 -0.3785 -0.1569  0.1983
12767SOL    HW143148   4.062   3.625   0.942 -0.4256 -0.5533 -0.2640
12767SOL    HW243149   4.051   3.703   0.813  0.4619  1.7047  0.9795
12768SOL     OW43150   7.139   1.814   4.037  0.4718 -0.2175 -0.2451
12768SOL    HW143151   7.150   1.850   3.950 -1.6814 -0.6052 -0.7178
12768SOL    HW243152   7.227   1.794   4.067  1.2141 -0.3508 -2.4443
12769SOL     OW43153   5.053   1.291   5.485 -0.9308  0.4822 -0.5850
12769SOL    HW143154   5.005   1.368   5.515 -1.5385 -0.4703  0.9238
12769SOL    HW243155   4.991   1.219   5.492  0.0271 -0.3693 -0.7372
12770SOL     OW43156   3.277   3.012   4.793 -0.3910 -0.0800  0.6238
12770SOL    HW143157   3.205   2.996   4.853 -0.4563 -2.0957  0.0355
12770SOL    HW243158   3.244   2.983   4.708  1.4481 -2.0838  0.5434
12771SOL     OW43159   4.043   3.142   4.865  0.0361 -0.3936  0.4827
12771SOL    HW143160   4.132   3.159   4.898 -0.5035  0.6831  1.4518
12771SOL    HW243161   3.989   3.141   4.944 -1.3443  2.5084 -0.3595
12772SOL     OW43162   3.156   3.907   2.056  0.5717 -0.6029 -0.6729
12772SOL    HW143163   3.109   3.938   2.133 -0.7761 -1.4177 -1.1324
12772SOL    HW243164   3.111   3.950   1.983  0.9760 -0.8721 -1.0789
12773SOL     OW43165   3.946   3.811   3.485  0.0449  0.3311 -0.3845
12773SOL    HW143166   3.881   3.741   3.476 -1.6046  1.7940 -0.2150
12773SOL    HW243167   3.917   3.861   3.561  0.6511  1.7520 -1.0606
12774SOL     OW43168   6.004   1.045   4.456 -0.0522 -0.4020 -0.2113
12774SOL    HW143169   6.051   0.974   4.411  1.0790  1.7996 -2.6625
12774SOL    HW243170   6.073   1.104   4.487 -1.0235  0.3691  0.5205
12775SOL     OW43171   6.720   1.249   4.872 -0.6480 -0.5808 -0.0394
12775SOL    HW143172   6.759   1.315   4.930  0.0416 -1.0935  0.0903
12775SOL    HW243173   6.645   1.293   4.832 -0.6889  0.0139  0.6840
12776SOL     OW43174   5.540   5.018   3.105  0.2016 -0.1219 -0.1107
12776SOL    HW143175   5.532   5.110   3.080 -1.4355 -0.5484 -1.2374
12776SOL    HW243176   5.450   4.986   3.107  0.7591 -1.7017  0.3066
12777SOL     OW43177   5.320   3.525   3.622 -0.1847 -0.2685  0.5353
12777SOL    HW143178   5.367   3.607   3.608 -2.0180  0.8452  0.7984
12777SOL    HW243179   5.279   3.534   3.708 -1.6095 -0.8579 -0.0603
12778SOL     OW43180   4.319   3.968   1.993  0.2299 -0.7088  0.1055
12778SOL    HW143181   4.333   4.060   1.971  1.6489 -0.3762  2.2417
12778SOL    HW243182   4.296   3.968   2.086  1.3734 -2.5931  0.4218
12779SOL     OW43183   2.730   3.493   3.991  0.5617 -0.8633  0.6030
12779SOL    HW143184   2.654   3.552   3.996  0.1739 -1.1440 -1.6264
12779SOL    HW243185   2.705   3.418   4.045  0.2699  0.1306  1.8799
12780SOL     OW43186   4.441   2.962   3.401 -0.3701 -0.5349  0.1606
12780SOL    HW143187   4.447   2.944   3.494 -0.0998  0.5632  0.3623
12780SOL    HW243188   4.499   2.898   3.359 -1.2827 -1.6979  0.6571
12781SOL     OW43189   2.208   3.142   3.558 -0.1046  0.0807  0.2530
12781SOL    HW143190   2.187   3.159   3.649 -0.7727 -2.0829  0.5269
12781SOL    HW243191   2.237   3.051   3.556  2.0092  0.7364 -1.3557
12782SOL     OW43192   5.075   2.341   5.141 -0.0065 -0.0494  0.3684
12782SOL    HW143193   5.024   2.261   5.151 -0.5035  0.2874  0.6025
12782SOL    HW243194   5.104   2.340   5.050  1.2489 -1.2202  0.7703
12783SOL     OW43195   4.485   2.304   5.773 -0.2544 -0.0807  0.7307
12783SOL    HW143196   4.418   2.354   5.726  1.1795  0.8804 -0.3034
12783SOL    HW243197   4.511   2.235   5.711  1.0586  0.6931  0.4095
12784SOL     OW43198   7.829   3.400   2.829  0.1332  0.4947  0.8034
12784SOL    HW143199   7.842   3.450   2.748  1.2270 -2.4576 -0.9372
12784SOL    HW243200   7.734   3.395   2.839  0.0019  1.6146  0.1584
12785SOL     OW43201   6.140   3.053   3.358  0.1049  0.0608 -0.0561
12785SOL    HW143202   6.199   2.978   3.369  0.8215  0.2659 -2.4104
12785SOL    HW243203   6.092   3.035   3.277  0.1764  2.0737 -0.5787
12786SOL     OW43204   6.963   1.584   3.528 -0.1914  0.1049 -0.0596
12786SOL    HW143205   7.023   1.513   3.506 -0.5234 -0.0886 -0.3311
12786SOL    HW243206   7.014   1.641   3.586  0.4494  0.2511 -0.7610
12787SOL     OW43207   4.394   1.902   2.290 -0.1673  0.2253  0.3994
12787SOL    HW143208   4.357   1.818   2.317 -1.2171  1.2729  2.3500
12787SOL    HW243209   4.465   1.918   2.353 -0.0545  0.8456  0.1117
12788SOL     OW43210   3.703   2.683   3.606 -0.2529 -0.7343  0.1382
12788SOL    HW143211   3.667   2.736   3.678  0.9162  0.3764 -0.0819
12788SOL    HW243212   3.751   2.613   3.650  0.4638 -0.0551  0.4438
12789SOL     OW43213   2.820   2.511   3.379  0.6580 -0.0731  0.1438
12789SOL    HW143214   2.726   2.514   3.396  0.7987  1.1355  0.8094
12789SOL    HW243215   2.828   2.532   3.286  0.2300 -0.8894 -0.0778
12790SOL     OW43216   4.869   2.498   4.030 -0.2518 -0.0701 -0.5815
12790SOL    HW143217   4.814   2.421   4.011  0.3568 -0.8554  0.7391
12790SOL    HW243218   4.875   2.499   4.125  1.3047  0.5202 -0.6816
12791SOL     OW43219   5.322   1.496   4.886  0.2234 -0.1979 -0.3172
12791SOL    HW143220   5.315   1.570   4.826  0.0960  0.1429  0.1147
12791SOL    HW243221   5.270   1.427   4.845  0.4057 -0.0728 -0.7576
12792SOL     OW43222   3.009   1.366   5.202  0.1789 -0.1379 -0.2021
12792SOL    HW143223   2.928   1.318   5.221  1.2415 -2.2383 -0.8320
12792SOL    HW243224   2.992   1.455   5.234 -2.2855 -0.5994 -0.1104
12793SOL     OW43225   4.713   2.129   3.032 -0.1760  0.1984  0.3599
12793SOL    HW143226   4.754   2.182   2.965  0.6519  0.4369  1.0436
12793SOL    HW243227   4.675   2.055   2.985  0.0180  0.5902 -0.4120
12794SOL     OW43228   6.108   2.812   5.621  0.0939  0.3663  0.9888
12794SOL    HW143229   6.150   2.890   5.586 -0.4762  0.6371  0.9042
12794SOL    HW243230   6.016   2.836   5.631 -0.0004 -0.1389  1.4101
12795SOL     OW43231   3.183   2.161   4.960  0.2689 -0.5100  0.5794
12795SOL    HW143232   3.207   2.072   4.931 -2.6539 -0.9533 -0.6876
12795SOL    HW243233   3.183   2.213   4.879 -1.6568 -0.2316  0.7524
12796SOL     OW43234   4.991   2.407   6.445  0.1514  0.2781 -0.5201
12796SOL    HW143235   5.062   2.344   6.437 -1.3468 -1.1914 -2.9498
12796SOL    HW243236   4.967   2.405   6.538  0.2541 -2.5941 -0.5192
12797SOL     OW43237   5.158   2.917   4.556 -0.0470  0.4522 -0.1595
12797SOL    HW143238   5.104   2.974   4.611 -0.6321 -1.0905  0.9079
12797SOL    HW243239   5.142   2.829   4.590  2.0078 -0.1999 -0.7892
12798SOL     OW43240   3.035   3.250   4.331 -0.5678  0.2155 -0.1703
12798SOL    HW143241   3.070   3.339   4.319  0.7626 -0.4874 -1.7671
12798SOL    HW243242   2.985   3.233   4.251  0.0258 -0.8268 -0.3336
12799SOL     OW43243   6.171   0.913   5.598 -0.0870  0.2370  0.1322
12799SOL    HW143244   6.168   0.874   5.686 -0.5937  0.5384  0.2518
12799SOL    HW243245   6.123   0.994   5.607  0.0429  0.3704 -0.3819
12800SOL     OW43246   6.959   2.906   3.048 -0.1091  0.0330 -0.6578
12800SOL    HW143247   6.867   2.889   3.067  0.0075  0.8832  0.7637
12800SOL    HW243248   7.005   2.885   3.129  1.1269 -1.6106 -1.7472
12801SOL     OW43249   4.727   2.350   4.533  0.2571 -0.5039  0.1757
12801SOL    HW143250   4.771   2.338   4.618 -1.3730 -0.6314  1.0238
12801SOL    HW243251   4.759   2.435   4.502 -1.1211  0.8202  2.2041
12802SOL     OW43252   5.363   1.521   4.165  0.2438 -0.4675 -0.2160
12802SOL    HW143253   5.336   1.432   4.145  2.5021 -0.9925 -1.0416
12802SOL    HW243254   5.438   1.512   4.223  1.6133  0.8330 -1.7178
12803SOL     OW43255   5.663   1.715   4.241  0.5445 -0.2906 -0.5873
12803SOL    HW143256   5.722   1.702   4.167  2.3671  0.2333  0.7384
12803SOL    HW243257   5.631   1.628   4.262  2.0980 -0.8206 -0.3332
12804SOL     OW43258   5.216   2.371   4.511 -0.1188 -0.2410 -0.1444
12804SOL    HW143259   5.241   2.281   4.531  2.9971  1.2274  3.0000
12804SOL    HW243260   5.287   2.424   4.547 -2.7301  3.5785 -0.3961
12805SOL     OW43261   5.318   0.774   3.201  0.0195  0.1791 -0.4795
12805SOL    HW143262   5.243   0.762   3.143 -2.2217  2.3205  1.8222
12805SOL    HW243263   5.318   0.696   3.256 -1.7105  1.0036  0.7337
12806SOL     OW43264   6.286   1.839   2.898 -0.5453 -0.2543  0.5948
12806SOL    HW143265   6.240   1.888   2.967 -1.6016 -1.1326  0.5303
12806SOL    HW243266   6.361   1.800   2.942  0.9232  2.2950  0.4186
12807SOL     OW43267   2.152   3.316   3.818  0.4877 -0.6111  0.5457
12807SOL    HW143268   2.095   3.354   3.751 -0.4822 -0.8471  1.2317
12807SOL    HW243269   2.241   3.335   3.787  0.0429 -0.1571 -0.4805
12808SOL     OW43270   5.270   1.041   3.262  0.1684 -0.1448 -0.2307
12808SOL    HW143271   5.354   1.074   3.229  0.2693  0.8718  1.0255
12808SOL    HW243272   5.273   0.947   3.244  1.4366 -0.0665 -0.4940
12809SOL     OW43273   4.562   2.147   6.139 -1.0080  0.0353  0.9198
12809SOL    HW143274   4.590   2.061   6.107  0.5997  1.0757 -0.5878
12809SOL    HW243275   4.637   2.205   6.121 -2.7077  2.1293  0.2444
12810SOL     OW43276   6.603   3.886   5.224  0.9699  0.5049  0.2609
12810SOL    HW143277   6.602   3.891   5.128  0.2293 -0.5612  0.1991
12810SOL    HW243278   6.610   3.976   5.253 -0.1343  0.9419 -0.7952
12811SOL     OW43279   4.253   2.647   3.811  0.2410  0.0509  0.5821
12811SOL    HW143280   4.323   2.582   3.800  0.9628  1.1412 -1.5961
12811SOL    HW243281   4.180   2.611   3.760  0.5704  0.8295 -0.4479
12812SOL     OW43282   3.581   3.833   4.081  0.4012  0.1523  0.1184
12812SOL    HW143283   3.549   3.816   3.992  1.0710  2.6261 -0.6377
12812SOL    HW243284   3.522   3.899   4.115  0.5444 -0.3195  1.2849
12813SOL     OW43285   3.216   4.000   2.493  0.1377  0.3449  0.3506
12813SOL    HW143286   3.242   3.908   2.503 -1.8060 -0.4333 -1.3784
12813SOL    HW243287   3.298   4.049   2.503  1.1301 -1.5170  1.7478
12814SOL     OW43288   3.278   1.721   3.267 -0.1561 -0.2686 -0.1528
12814SOL    HW143289   3.192   1.758   3.246 -0.0433  1.5192  2.3613
12814SOL    HW243290   3.261   1.658   3.336  0.4148 -0.8022 -0.4973
12815SOL     OW43291   6.659   2.966   4.072 -0.6564 -0.1378  0.9253
12815SOL    HW143292   6.751   2.990   4.065 -0.4281 -0.2222  3.3013
12815SOL    HW243293   6.659   2.874   4.098 -1.3497  0.3081  2.6169
12816SOL     OW43294   3.947   0.885   4.357  0.1058 -0.1537  0.3828
12816SOL    HW143295   3.929   0.965   4.308  0.6864 -0.1009  0.2514
12816SOL    HW243296   4.020   0.845   4.311 -2.0328 -2.2737 -1.2997
12817SOL     OW43297   6.216   2.073   3.733  0.1402  0.2109 -0.0336
12817SOL    HW143298   6.286   2.062   3.669  1.6065  1.5281  1.3142
12817SOL    HW243299   6.260   2.104   3.812 -1.8427  0.1042  1.1401
12818SOL     OW43300   3.800   2.484   4.677 -0.6872  0.5264 -0.1403
12818SOL    HW143301   3.813   2.452   4.766  2.2966  2.5550  0.2278
12818SOL    HW243302   3.763   2.410   4.630  1.3606 -1.8640  1.8378
12819SOL     OW43303   3.866   3.029   3.274  0.2566  0.0022 -0.2021
12819SOL    HW143304   3.859   2.950   3.220 -0.2038  0.3618 -0.6753
12819SOL    HW243305   3.784   3.076   3.259  0.3409  0.3560  0.4243
12820SOL     OW43306   3.673   1.494   4.065  0.1009 -0.1220  0.4752
12820SOL    HW143307   3.722   1.460   3.990 -0.3001 -0.6575  0.4563
12820SOL    HW243308   3.727   1.471   4.141  0.5681  0.5277  0.3469
12821SOL     OW43309   2.628   3.572   2.509 -0.1141  0.5362  0.1493
12821SOL    HW143310   2.548   3.520   2.506  0.4600 -0.2962 -1.4147
12821SOL    HW243311   2.605   3.649   2.560 -1.1232 -1.0021  2.0817
12822SOL     OW43312   3.016   2.059   2.484 -0.4358  0.0646  0.1493
12822SOL    HW143313   2.969   1.988   2.527  0.9126 -0.5305  0.6831
12822SOL    HW243314   2.971   2.138   2.512  0.0028 -0.3587  2.1417
12823SOL     OW43315   5.911   2.385   4.971 -0.2715  0.0651  0.0616
12823SOL    HW143316   5.954   2.322   5.029  0.0517  0.3178  0.0989
12823SOL    HW243317   5.980   2.447   4.947 -0.1838 -0.5739 -1.3524
12824SOL     OW43318   5.827   2.006   2.850 -0.2813 -0.4440 -0.0965
12824SOL    HW143319   5.842   1.911   2.858 -0.0595 -0.3075  1.1072
12824SOL    HW243320   5.915   2.044   2.850 -0.3877 -0.1967 -0.2061
12825SOL     OW43321   5.399   3.081   2.179 -0.2470 -0.2213 -0.4593
12825SOL    HW143322   5.442   3.068   2.094  0.4520 -4.9099  0.4602
12825SOL    HW243323   5.313   3.040   2.168 -0.6045  0.1956  0.7439
12826SOL     OW43324   4.436   1.019   4.636 -0.3248 -0.3128 -0.0631
12826SOL    HW143325   4.356   1.018   4.689  0.6712  1.9330  1.5809
12826SOL    HW243326   4.417   1.083   4.567  0.5944  1.4700  1.2934
12827SOL     OW43327   4.825   2.419   5.640 -0.2636  0.0214  0.2299
12827SOL    HW143328   4.761   2.393   5.706  0.1801 -1.3500  0.1458
12827SOL    HW243329   4.897   2.357   5.652  0.3687  0.5690 -0.7019
12828SOL     OW43330   5.647   1.063   4.182 -0.3211  0.5406 -0.0374
12828SOL    HW143331   5.628   1.005   4.109  0.2431  0.5616 -0.2003
12828SOL    HW243332   5.742   1.071   4.183 -0.1878 -0.7391  1.6740
12829SOL     OW43333   4.080   2.321   5.129  0.2159  0.1220 -0.0554
12829SOL    HW143334   4.144   2.337   5.199  0.1908  1.1264 -0.2633
12829SOL    HW243335   4.043   2.235   5.150  0.9028 -0.0091  0.6306
12830SOL     OW43336   4.060   3.940   3.933  0.1378  0.3707  0.0021
12830SOL    HW143337   4.146   3.908   3.959  0.1185  0.1832 -0.1701
12830SOL    HW243338   4.002   3.912   4.004  0.1775  0.3004  0.0074
12831SOL     OW43339   5.829   1.660   5.070  0.2275  0.3281 -0.1343
12831SOL    HW143340   5.890   1.610   5.125 -1.2478 -0.3398  0.9468
12831SOL    HW243341   5.774   1.593   5.029  1.7946  0.7771 -3.0638
12832SOL     OW43342   3.336   2.370   3.985 -0.3297 -0.0270  0.4660
12832SOL    HW143343   3.424   2.363   4.021 -0.7691  1.0016  1.7542
12832SOL    HW243344   3.321   2.464   3.974 -1.0088 -0.2259 -0.4029
12833SOL     OW43345   5.279   1.120   2.411  0.1053  0.6507  0.0807
12833SOL    HW143346   5.230   1.179   2.467 -2.6140  0.2122 -1.7508
12833SOL    HW243347   5.317   1.176   2.344 -1.0742  0.5651 -0.6789
12834SOL     OW43348   2.702   1.270   3.913 -0.5164 -0.3507 -0.1309
12834SOL    HW143349   2.795   1.290   3.919 -0.4546 -0.1801 -1.5022
12834SOL    HW243350   2.681   1.279   3.820 -2.4847  2.2559  0.4991
12835SOL     OW43351   5.129   3.591   3.889  0.1734 -0.0535 -0.8814
12835SOL    HW143352   5.140   3.543   3.971  1.7656 -0.2911 -1.2156
12835SOL    HW243353   5.051   3.554   3.850  0.5260 -1.3316 -0.4103
12836SOL     OW43354   4.231   2.285   3.896  0.4654 -0.5366  0.3371
12836SOL    HW143355   4.148   2.258   3.935  1.7708 -0.6021  3.1797
12836SOL    HW243356   4.222   2.264   3.803 -1.8533 -2.6276  0.9855
12837SOL     OW43357   2.754   1.080   4.334 -0.4532 -0.1380  0.7844
12837SOL    HW143358   2.751   1.174   4.316 -1.3260 -0.2125  0.5129
12837SOL    HW243359   2.712   1.069   4.419 -1.5033 -0.4217  0.2318
12838SOL     OW43360   3.905   3.895   2.201 -0.4399  0.0818  0.4137
12838SOL    HW143361   3.878   3.976   2.158  1.4589  0.2448 -0.5150
12838SOL    HW243362   3.876   3.825   2.143  1.0040  0.2542 -0.5446
12839SOL     OW43363   2.075   4.578   3.245  0.0806  0.2555 -0.0392
12839SOL    HW143364   2.035   4.501   3.204  2.1192 -0.6092 -0.5097
12839SOL    HW243365   2.016   4.650   3.225 -1.0704 -0.9170 -0.9389
12840SOL     OW43366   5.969   3.324   4.180  0.1611  0.1236  0.3859
12840SOL    HW143367   6.040   3.349   4.121  1.2740 -0.1708  1.5605
12840SOL    HW243368   5.889   3.344   4.132  1.0199 -1.5177 -1.8395
12841SOL     OW43369   5.307   2.785   2.466  0.2556  0.0835 -0.3152
12841SOL    HW143370   5.229   2.728   2.471 -1.4255  2.1050 -2.4077
12841SOL    HW243371   5.340   2.772   2.377  1.5361  0.2658  0.1248
12842SOL     OW43372   3.531   1.957   5.861 -0.0510 -0.4853 -0.1672
12842SOL    HW143373   3.483   1.905   5.797 -0.0909 -0.7232  0.0566
12842SOL    HW243374   3.623   1.942   5.842 -0.0637 -0.2905 -0.3843
12843SOL     OW43375   5.078   1.900   5.486  0.7042  0.3511  0.1809
12843SOL    HW143376   5.027   1.822   5.505  1.5641  0.4163  3.0015
12843SOL    HW243377   5.027   1.972   5.522  1.8975  0.6118  1.3889
12844SOL     OW43378   4.085   0.900   4.578  0.5126  0.0767 -0.4010
12844SOL    HW143379   4.121   0.988   4.569 -0.8321  0.7768  0.7676
12844SOL    HW243380   4.024   0.891   4.505  0.2173  0.3549 -0.1942
12845SOL     OW43381   5.168   2.999   3.176  0.1526 -0.6789 -0.0694
12845SOL    HW143382   5.104   2.974   3.243  0.6180 -0.3436  0.5049
12845SOL    HW243383   5.250   2.958   3.205  0.1745 -1.1948 -0.8582
12846SOL     OW43384   5.776   1.708   3.521 -0.1285  0.5915 -0.0203
12846SOL    HW143385   5.759   1.785   3.466  0.4245  1.5573  1.1373
12846SOL    HW243386   5.817   1.645   3.462 -3.0077  0.1438 -1.6271
12847SOL     OW43387   5.640   2.562   5.607  0.1057 -0.3884  0.5319
12847SOL    HW143388   5.680   2.476   5.593  1.8652  0.3777  0.8004
12847SOL    HW243389   5.597   2.555   5.692  0.2355 -1.0095  0.5481
12848SOL     OW43390   4.711   2.850   2.055  0.6630  0.5069  0.4405
12848SOL    HW143391   4.727   2.853   1.961  1.9953 -1.5264  0.5771
12848SOL    HW243392   4.633   2.905   2.068  0.9351  1.4564 -1.7194
12849SOL     OW43393   6.258   3.834   4.494  1.0400 -0.3616  0.0795
12849SOL    HW143394   6.165   3.808   4.494  0.3373  1.9721 -0.9515
12849SOL    HW243395   6.300   3.772   4.435  0.1983 -1.6670  0.8370
12850SOL     OW43396   3.138   0.968   3.694 -0.7003 -0.5179 -0.6825
12850SOL    HW143397   3.061   0.993   3.644 -2.2257 -1.1222  1.2659
12850SOL    HW243398   3.163   0.883   3.660 -0.9700 -0.3667 -1.2505
12851SOL     OW43399   2.792   0.479   4.273  0.0797  0.0973 -0.2014
12851SOL    HW143400   2.853   0.425   4.324  0.0231  0.3096  0.0954
12851SOL    HW243401   2.706   0.439   4.289  0.1736 -0.3742 -0.8477
12852SOL     OW43402   4.410   0.625   5.928 -0.0928 -0.0148  0.0229
12852SOL    HW143403   4.325   0.625   5.884 -1.1202  2.4448  1.9234
12852SOL    HW243404   4.407   0.700   5.987  2.5563 -1.1936  1.7588
12853SOL     OW43405   5.740   2.522   4.646  1.2902  0.2071  0.1816
12853SOL    HW143406   5.748   2.597   4.705  2.6695  0.7043 -0.5974
12853SOL    HW243407   5.767   2.447   4.698 -0.5189  0.1827  1.0941
12854SOL     OW43408   8.015   3.711   5.152 -0.4841  0.1584 -0.2523
12854SOL    HW143409   7.987   3.775   5.219  1.0048  0.3315  0.2290
12854SOL    HW243410   8.005   3.758   5.069 -2.2821 -0.0317 -0.1684
12855SOL     OW43411   6.786   2.625   5.914 -0.5295  0.2944 -1.0811
12855SOL    HW143412   6.714   2.570   5.882  0.7257 -1.2468 -1.2859
12855SOL    HW243413   6.751   2.667   5.993 -1.8478  0.0095 -1.5047
12856SOL     OW43414   4.784   3.024   4.691  0.1705 -0.5734  0.1273
12856SOL    HW143415   4.703   2.997   4.734 -0.1071 -1.1435 -0.7571
12856SOL    HW243416   4.818   3.095   4.746 -0.7605 -0.5526  0.6733
12857SOL     OW43417   4.956   1.530   4.719 -0.0162  0.8882 -0.0735
12857SOL    HW143418   4.956   1.616   4.678  0.1121  0.1492 -1.6357
12857SOL    HW243419   5.017   1.477   4.667  1.9480  0.5737  2.4388
12858SOL     OW43420   4.879   2.122   4.948  0.0356  0.4652 -0.3012
12858SOL    HW143421   4.975   2.119   4.947  0.0132 -1.0396  0.7215
12858SOL    HW243422   4.853   2.038   4.986 -1.6276  2.1693  2.4176
12859SOL     OW43423   4.750   2.248   3.399 -0.0263 -0.4713 -0.4748
12859SOL    HW143424   4.732   2.190   3.473  1.3645 -0.4559 -0.1189
12859SOL    HW243425   4.834   2.219   3.365 -0.0873  0.2986 -1.2978
12860SOL     OW43426   4.713   2.796   3.809 -0.0536  0.0662 -0.2141
12860SOL    HW143427   4.681   2.821   3.896 -0.2140 -0.1813 -0.1986
12860SOL    HW243428   4.788   2.740   3.827 -2.1167 -2.7819 -0.1310
12861SOL     OW43429   3.764   2.040   2.535  0.5331 -0.8511  0.3059
12861SOL    HW143430   3.721   1.954   2.538 -1.3572  0.1070  2.3624
12861SOL    HW243431   3.783   2.060   2.626  2.4224  0.2363 -0.3027
12862SOL     OW43432   3.961   3.776   4.388  0.3129  0.4951  0.1235
12862SOL    HW143433   3.921   3.702   4.433 -0.9425 -0.0692 -1.8619
12862SOL    HW243434   4.049   3.747   4.365 -0.0145 -0.2220 -0.2263
12863SOL     OW43435   4.576   1.850   4.549 -0.5674  0.0092  0.3830
12863SOL    HW143436   4.573   1.925   4.609 -0.9728  0.0378  0.3329
12863SOL    HW243437   4.664   1.853   4.511 -1.3380  1.8293 -1.3331
12864SOL     OW43438   4.797   3.106   3.537  0.5918  0.3566  0.3176
12864SOL    HW143439   4.837   3.044   3.477  0.2914 -0.1067  0.5919
12864SOL    HW243440   4.859   3.112   3.610  1.6016  1.9443 -0.6517
12865SOL     OW43441   6.260   2.380   2.440 -0.1259 -0.3082 -0.1225
12865SOL    HW143442   6.346   2.419   2.424  0.2564 -0.6846  0.9743
12865SOL    HW243443   6.260   2.358   2.533 -1.1599 -0.9283 -0.2550
12866SOL     OW43444   6.319   3.382   3.702 -0.2947  0.6025  0.7842
12866SOL    HW143445   6.239   3.329   3.707  1.2590 -2.0611 -0.9402
12866SOL    HW243446   6.347   3.373   3.611  1.8665  1.6348  1.3192
12867SOL     OW43447   4.217   2.051   4.906  0.3473  0.9762 -0.3059
12867SOL    HW143448   4.296   2.078   4.953 -0.5053  1.5646  0.8141
12867SOL    HW243449   4.182   1.979   4.959  0.1931  0.6418 -0.8654
12868SOL     OW43450   3.704   4.557   3.847 -0.3521 -0.3948 -0.1178
12868SOL    HW143451   3.735   4.587   3.761  1.2433 -0.6277  0.3504
12868SOL    HW243452   3.701   4.636   3.900 -0.0323 -0.4457 -0.0192
12869SOL     OW43453   4.019   2.280   5.747 -0.1552  0.3264  0.2593
12869SOL    HW143454   3.956   2.260   5.678 -0.4393  0.7750  0.3870
12869SOL    HW243455   3.975   2.256   5.828  0.6224 -1.3150  0.2087
12870SOL     OW43456   1.436   1.775   4.955  0.4283  0.4129  0.0683
12870SOL    HW143457   1.482   1.694   4.976 -0.3210  0.4425  1.8990
12870SOL    HW243458   1.368   1.782   5.021 -0.3691  1.8570 -0.8849
12871SOL     OW43459   4.899   3.164   4.912  0.8929  0.1695  0.2688
12871SOL    HW143460   4.880   3.104   4.984 -0.2470  0.9470  0.6154
12871SOL    HW243461   4.875   3.250   4.945  1.3505  0.6620 -0.6717
12872SOL     OW43462   4.667   1.062   4.853  0.2201  0.3952 -0.9911
12872SOL    HW143463   4.735   0.999   4.828  0.7795  1.1453 -1.3800
12872SOL    HW243464   4.596   1.047   4.791 -0.4482 -1.1638  0.1150
12873SOL     OW43465   7.556   3.562   6.472  1.0671 -0.2543  0.8650
12873SOL    HW143466   7.470   3.565   6.514  1.0489 -0.5823  0.8477
12873SOL    HW243467   7.560   3.642   6.420 -0.1275 -1.3097 -0.8981
12874SOL     OW43468   4.304   2.340   4.315  0.3235 -0.3501 -0.1210
12874SOL    HW143469   4.352   2.303   4.241 -1.2225  2.5815 -2.6952
12874SOL    HW243470   4.362   2.409   4.348 -0.7805  1.1820 -1.3328
12875SOL     OW43471   1.878   4.680   4.393  0.8190  0.3230  0.2044
12875SOL    HW143472   1.789   4.692   4.359  0.8929  1.3955  0.3704
12875SOL    HW243473   1.898   4.588   4.376  0.2920  0.4810 -1.3097
12876SOL     OW43474   2.585   3.322   3.024  0.3729 -0.1311  0.0070
12876SOL    HW143475   2.612   3.247   3.078  0.0111 -0.5352 -0.3737
12876SOL    HW243476   2.531   3.284   2.955 -0.0615  0.5188 -0.0160
12877SOL     OW43477   4.628   2.676   6.448 -0.3542  0.7724 -0.7386
12877SOL    HW143478   4.611   2.762   6.486  0.3998  0.5544  0.1253
12877SOL    HW243479   4.712   2.686   6.403  0.6932 -0.0207  1.0133
12878SOL     OW43480   5.105   2.059   4.274 -0.3107 -0.3046  0.2143
12878SOL    HW143481   5.065   1.973   4.279  2.4733 -1.7202 -0.4734
12878SOL    HW243482   5.064   2.101   4.198 -1.3632 -1.1682  0.2989
12879SOL     OW43483   6.814   2.125   2.201 -0.3196 -0.1854  0.8829
12879SOL    HW143484   6.729   2.144   2.241 -0.3324  0.8786  0.3894
12879SOL    HW243485   6.878   2.164   2.260 -0.2135 -0.4957  0.9703
12880SOL     OW43486   5.663   2.134   4.829 -0.3545 -0.6922 -0.2442
12880SOL    HW143487   5.606   2.067   4.867 -0.0928 -0.5593  0.3940
12880SOL    HW243488   5.643   2.214   4.879  0.6062 -0.7173  0.1873
12881SOL     OW43489   5.990   2.017   4.360 -0.0647  0.0292 -0.1302
12881SOL    HW143490   5.900   1.986   4.347  0.5533 -1.5188 -0.8087
12881SOL    HW243491   6.015   1.980   4.445  0.0158  0.2479 -0.0602
12882SOL     OW43492   5.128   2.083   5.792  0.2526 -0.6593  0.4293
12882SOL    HW143493   5.191   2.043   5.732  1.4929 -0.8858  1.8533
12882SOL    HW243494   5.074   2.011   5.823 -1.7635 -0.2501 -1.9725
12883SOL     OW43495   4.277   2.811   6.869  0.2587  0.6849 -0.1961
12883SOL    HW143496   4.340   2.777   6.932 -1.3696 -2.1348 -0.0064
12883SOL    HW243497   4.291   2.758   6.790 -1.2817  0.5928 -0.4270
12884SOL     OW43498   5.157   1.012   2.963 -0.0168  0.3630 -0.1788
12884SOL    HW143499   5.112   1.027   3.047  2.7005  0.7011  1.2865
12884SOL    HW243500   5.175   0.918   2.962  0.7584  0.5069  0.0537
12885SOL     OW43501   3.994   1.312   3.634  0.0491  0.1109 -0.6877
12885SOL    HW143502   3.968   1.364   3.558  1.4734  0.0615 -1.2245
12885SOL    HW243503   4.010   1.225   3.598  0.8779  0.1259 -0.3464
12886SOL     OW43504   5.925   2.422   4.058 -0.8855  0.3128 -0.2843
12886SOL    HW143505   5.833   2.436   4.079 -1.0998 -0.1630 -0.8716
12886SOL    HW243506   5.931   2.328   4.042 -0.1144  0.2086  0.5973
12887SOL     OW43507   4.088   2.491   4.478  0.3550  0.9005 -0.1798
12887SOL    HW143508   4.160   2.482   4.416  0.5794 -0.0160  0.1967
12887SOL    HW243509   4.085   2.407   4.524 -0.3372  1.2682  0.4745
12888SOL     OW43510   3.387   0.980   4.982  0.1691 -0.4403 -0.1694
12888SOL    HW143511   3.459   0.921   5.008  0.0727  0.1332  1.4341
12888SOL    HW243512   3.396   0.988   4.887  0.8065 -2.2350 -0.2805
12889SOL     OW43513   5.962   2.503   3.679  0.0346  0.4337 -0.1844
12889SOL    HW143514   6.051   2.538   3.679  0.2163 -0.0258 -0.5287
12889SOL    HW243515   5.960   2.442   3.605 -0.8036  1.0379 -0.6793
12890SOL     OW43516   2.972   3.610   3.946  0.0336 -0.0828  0.4368
12890SOL    HW143517   2.986   3.668   4.021 -0.0964 -0.5906  0.8576
12890SOL    HW243518   2.882   3.579   3.955  0.3942 -1.0694  0.7330
12891SOL     OW43519   4.179   2.269   2.039 -0.6591 -0.7413  0.1586
12891SOL    HW143520   4.209   2.200   1.979  0.5257  0.6645 -0.9293
12891SOL    HW243521   4.213   2.243   2.124 -0.9730 -1.9426 -0.0675
12892SOL     OW43522   3.321   3.396   4.574 -0.2887  0.2666  0.5181
12892SOL    HW143523   3.250   3.396   4.638  0.5878 -0.3021  1.5166
12892SOL    HW243524   3.389   3.341   4.613  0.0546 -0.5297 -1.1624
12893SOL     OW43525   1.277   2.952   3.657 -0.5164  0.0189  0.1393
12893SOL    HW143526   1.193   2.906   3.650 -0.3818 -0.3280  0.8060
12893SOL    HW243527   1.322   2.909   3.729  0.0098  0.5707  0.1410
12894SOL     OW43528   3.648   1.742   4.835  0.4758 -0.2355  0.4318
12894SOL    HW143529   3.727   1.794   4.850  0.8325 -1.2611  2.2936
12894SOL    HW243530   3.580   1.787   4.884  0.6963 -1.2244  1.7071
12895SOL     OW43531   3.159   1.788   4.325 -0.7629  0.0267  0.1460
12895SOL    HW143532   3.222   1.859   4.332 -0.1201 -0.2907 -1.9751
12895SOL    HW243533   3.191   1.721   4.385 -1.4569  1.5323  2.2735
12896SOL     OW43534   3.082   0.590   4.148 -0.6837  0.0952  0.4592
12896SOL    HW143535   3.135   0.549   4.217 -0.5374  2.6280  1.9096
12896SOL    HW243536   3.140   0.592   4.072 -0.2139 -1.1240  0.7751
12897SOL     OW43537   4.194   3.652   4.307 -0.1374  0.3412 -0.0540
12897SOL    HW143538   4.239   3.585   4.256  0.1876 -0.9387  1.8446
12897SOL    HW243539   4.252   3.669   4.382 -1.3392  0.9711  0.7575
12898SOL     OW43540   5.316   2.199   2.481 -0.6364 -0.4089 -0.1652
12898SOL    HW143541   5.239   2.214   2.537 -0.2227  0.5229  0.1614
12898SOL    HW243542   5.378   2.154   2.538 -1.0455 -1.4356 -0.5166
12899SOL     OW43543   6.146   3.264   4.890 -0.7061  0.1188  0.6652
12899SOL    HW143544   6.116   3.307   4.809 -0.4486  0.9312  0.9956
12899SOL    HW243545   6.107   3.177   4.887 -0.1130 -0.1165 -0.6950
12900SOL     OW43546   4.786   3.391   3.585 -0.5286  0.0096 -0.4407
12900SOL    HW143547   4.795   3.334   3.509 -0.2329  0.2747 -0.6030
12900SOL    HW243548   4.694   3.381   3.611 -0.6463 -0.0299 -0.8677
12901SOL     OW43549   6.067   3.032   4.777  0.5891 -0.5192 -0.0501
12901SOL    HW143550   6.162   3.025   4.789  0.8819  1.1232 -1.2744
12901SOL    HW243551   6.038   2.942   4.761  1.8125 -1.1491  1.1699
12902SOL     OW43552   5.793   1.380   3.731 -0.7684 -0.1192  0.2284
12902SOL    HW143553   5.744   1.363   3.812  0.1442 -0.5466  0.6969
12902SOL    HW243554   5.797   1.295   3.687  1.6683 -0.6487  1.3856
12903SOL     OW43555   4.988   2.979   5.229  0.3991 -0.5851 -0.4577
12903SOL    HW143556   5.051   3.026   5.283  0.0682 -1.5666  0.8176
12903SOL    HW243557   5.028   2.893   5.215 -0.3704 -1.0013 -0.1400
12904SOL     OW43558   3.905   1.888   6.020  0.1199 -0.3147  0.1992
12904SOL    HW143559   3.919   1.793   6.020  1.5620 -0.1010  0.3385
12904SOL    HW243560   3.818   1.899   6.058  0.8164 -1.4477  2.1541
12905SOL     OW43561   4.995   1.769   2.599 -0.2451 -0.6756 -0.5886
12905SOL    HW143562   4.926   1.705   2.578  0.4614 -0.7363 -2.8846
12905SOL    HW243563   5.055   1.722   2.657 -0.5585 -1.5948 -1.0025
12906SOL     OW43564   7.084   3.450   4.880  0.7196 -0.6397 -0.3788
12906SOL    HW143565   7.025   3.522   4.857  0.0649 -0.8451  0.6331
12906SOL    HW243566   7.172   3.484   4.862  0.4495  0.6254  0.6128
12907SOL     OW43567   4.675   4.353   3.383 -0.1944 -0.1939  0.0030
12907SOL    HW143568   4.599   4.342   3.441 -0.7116  0.6271 -0.5088
12907SOL    HW243569   4.644   4.411   3.314  0.2002 -1.7757 -1.5119
12908SOL     OW43570   3.890   2.786   4.941 -0.1514  0.3569 -0.0737
12908SOL    HW143571   3.844   2.705   4.964  0.3867 -0.2461 -1.0865
12908SOL    HW243572   3.897   2.784   4.846 -1.7116  2.4867 -0.2545
12909SOL     OW43573   6.106   2.593   5.244 -0.0980 -0.1766  0.0975
12909SOL    HW143574   6.143   2.577   5.157 -1.5358  0.4890 -0.6557
12909SOL    HW243575   6.181   2.617   5.298  0.5493  1.4480 -1.4830
12910SOL     OW43576   4.973   2.147   4.036  0.2458  0.1568  0.2529
12910SOL    HW143577   4.878   2.139   4.035  0.1592  1.0523  0.2520
12910SOL    HW243578   5.002   2.094   3.962 -0.1876 -0.7807  0.7477
12911SOL     OW43579   6.859   2.889   1.949  0.3335  0.3083 -0.3832
12911SOL    HW143580   6.833   2.980   1.963 -1.8646 -0.5409  1.4644
12911SOL    HW243581   6.781   2.838   1.972  1.8941 -2.0963 -0.2255
12912SOL     OW43582   3.225   3.442   5.681 -0.1433 -0.3864 -0.1102
12912SOL    HW143583   3.145   3.390   5.670  0.2703 -0.9877 -0.2790
12912SOL    HW243584   3.247   3.433   5.773 -0.5634  0.2151  0.0545
12913SOL     OW43585   4.663   2.485   2.948  0.0723  0.4348  0.2427
12913SOL    HW143586   4.636   2.410   2.895 -0.0077  1.5084 -1.2466
12913SOL    HW243587   4.606   2.481   3.025 -0.8023 -0.2944 -0.4370
12914SOL     OW43588   4.016   4.999   2.980 -0.0455  0.0319  0.5114
12914SOL    HW143589   3.952   5.057   2.941  2.1397  1.5821 -0.8805
12914SOL    HW243590   3.990   4.911   2.951  0.5281  0.9686 -3.1139
12915SOL     OW43591   2.642   5.164   2.788 -0.3706 -0.0022 -0.5561
12915SOL    HW143592   2.680   5.125   2.866  2.9303  2.6716 -0.7280
12915SOL    HW243593   2.563   5.209   2.819  0.7572  0.7992  1.2241
12916SOL     OW43594   5.730   2.461   4.380  0.5386 -0.1046  0.0244
12916SOL    HW143595   5.807   2.411   4.353  1.5766  1.9561 -0.9384
12916SOL    HW243596   5.741   2.474   4.474  0.7135 -0.8925  0.1137
12917SOL     OW43597   5.648   4.687   1.781  0.2690  0.0027  0.7502
12917SOL    HW143598   5.697   4.755   1.734 -0.7616 -0.6874 -1.3807
12917SOL    HW243599   5.600   4.641   1.712 -2.1738 -0.3223  2.6256
12918SOL     OW43600   5.874   2.030   5.867  0.0250  0.3348  0.0044
12918SOL    HW143601   5.936   1.977   5.918 -3.0161 -3.1354  0.3728
12918SOL    HW243602   5.805   2.051   5.930 -0.8908  1.0806 -1.2437
12919SOL     OW43603   4.516   2.350   2.559 -0.4699 -0.4337  0.1817
12919SOL    HW143604   4.532   2.339   2.653  0.0968 -0.0846  0.1333
12919SOL    HW243605   4.425   2.378   2.553  0.2032  2.0814  0.8413
12920SOL     OW43606   5.608   1.877   5.271 -0.3355 -0.0091 -0.8872
12920SOL    HW143607   5.531   1.859   5.216 -1.3319  0.2848  0.3927
12920SOL    HW243608   5.578   1.945   5.332  0.3116 -1.3886  0.9981
12921SOL     OW43609   6.095   3.235   2.742 -0.0992 -0.3206  0.0598
12921SOL    HW143610   6.059   3.312   2.787 -1.1379 -0.8530  0.1564
12921SOL    HW243611   6.145   3.189   2.810  0.2138  0.0706  0.0965
12922SOL     OW43612   4.737   2.390   3.699 -0.6349  0.4601 -0.0587
12922SOL    HW143613   4.727   2.299   3.671  2.4834  0.3790 -1.0119
12922SOL    HW243614   4.718   2.441   3.620  1.2408  0.4934 -0.4928
12923SOL     OW43615   3.925   3.277   4.118 -0.0393 -0.7957  0.3936
12923SOL    HW143616   3.916   3.340   4.189  1.5251  0.5690 -0.5824
12923SOL    HW243617   3.852   3.297   4.058  0.1115 -0.2835  0.3769
12924SOL     OW43618   3.904   2.225   3.178 -0.0962  0.5545 -0.1840
12924SOL    HW143619   3.847   2.148   3.181  0.4534  0.1985  1.3261
12924SOL    HW243620   3.885   2.265   3.093 -2.2125  0.1424  0.0574
12925SOL     OW43621   5.841   1.081   3.682  0.2145 -0.3366 -0.0290
12925SOL    HW143622   5.922   1.127   3.659  0.4039  0.1545  1.5496
12925SOL    HW243623   5.866   1.024   3.755 -1.2313  1.1524  1.7034
12926SOL     OW43624   4.385   1.535   4.276  0.0179 -0.0519 -0.2295
12926SOL    HW143625   4.325   1.463   4.259 -1.7357  0.9842  1.3556
12926SOL    HW243626   4.426   1.513   4.360 -0.7172  0.8796  0.3907
12927SOL     OW43627   4.122   6.547   3.232 -0.3402  0.5105  0.5610
12927SOL    HW143628   4.193   6.555   3.296  1.0767  1.0162 -1.0443
12927SOL    HW243629   4.136   6.620   3.172  0.3661 -1.8697 -2.2704
12928SOL     OW43630   3.518   3.220   6.506  0.0398  0.3469 -0.3220
12928SOL    HW143631   3.538   3.126   6.511  0.7843  0.4817 -0.6381
12928SOL    HW243632   3.598   3.263   6.539 -0.0284  0.8883 -0.8597
12929SOL     OW43633   5.097   2.852   3.933 -0.6030  0.1254  0.1907
12929SOL    HW143634   5.034   2.797   3.887  0.3053 -0.3211 -0.5395
12929SOL    HW243635   5.111   2.927   3.875 -0.1592  0.0183  0.1520
12930SOL     OW43636   6.334   1.306   6.011  0.0848 -0.6102 -0.2271
12930SOL    HW143637   6.365   1.268   6.092  0.0999  0.3580  0.2285
12930SOL    HW243638   6.239   1.292   6.012  0.1267 -0.8965 -0.2097
12931SOL     OW43639   2.408   1.075   4.887 -0.2834  0.5302 -0.2005
12931SOL    HW143640   2.366   1.136   4.827 -0.0461  1.7894  0.8753
12931SOL    HW243641   2.459   1.131   4.945 -0.5671 -0.6480  1.2152
12932SOL     OW43642   3.768   1.020   3.459 -0.2762 -0.1505 -0.0053
12932SOL    HW143643   3.848   1.067   3.478  0.6018 -2.3223  1.8848
12932SOL    HW243644   3.767   1.012   3.363  1.1812  0.8719 -0.1076
12933SOL     OW43645   4.646   1.899   5.611  0.4147  0.5934  0.2151
12933SOL    HW143646   4.636   1.811   5.647  0.1700  0.5896  0.1392
12933SOL    HW243647   4.582   1.952   5.659 -1.3175  0.1814 -1.5814
12934SOL     OW43648   6.767   1.359   4.533 -0.2180  0.3831 -0.2297
12934SOL    HW143649   6.732   1.404   4.456 -1.4906 -0.3266 -0.0777
12934SOL    HW243650   6.833   1.299   4.498  0.8201  1.6826 -0.5272
12935SOL     OW43651   3.420   1.262   3.538 -0.0289  0.0971  0.0457
12935SOL    HW143652   3.449   1.276   3.628 -1.8129 -0.0116  0.6646
12935SOL    HW243653   3.424   1.167   3.526  1.3519  0.2115 -0.3894
12936SOL     OW43654   3.290   3.070   4.320  0.1951  0.4007 -0.4070
12936SOL    HW143655   3.236   3.142   4.351  0.7496  0.8540 -0.4793
12936SOL    HW243656   3.244   3.037   4.243  0.0761  0.8509 -0.5290
12937SOL     OW43657   4.867   3.898   2.300  0.2263  0.3366  0.5026
12937SOL    HW143658   4.893   3.806   2.310  1.1329  0.5041 -0.2851
12937SOL    HW243659   4.925   3.932   2.233 -1.7406  0.8569 -0.9725
12938SOL     OW43660   3.518   0.390   4.450 -0.1983 -0.4579 -0.0187
12938SOL    HW143661   3.532   0.295   4.455 -0.3592 -0.5275 -0.8381
12938SOL    HW243662   3.604   0.425   4.426  0.0284 -0.3275  0.9472
12939SOL     OW43663   5.975   2.826   2.167 -0.0849  0.0447  0.1367
12939SOL    HW143664   5.992   2.895   2.230  1.2647  0.7426 -0.9612
12939SOL    HW243665   5.909   2.862   2.108 -2.3299 -1.0973  1.9028
12940SOL     OW43666   2.471   2.719   4.039 -0.6308  0.3153  0.5779
12940SOL    HW143667   2.544   2.727   3.978  0.7929  0.7081  2.2799
12940SOL    HW243668   2.438   2.809   4.048 -0.1784  0.4239  1.1671
12941SOL     OW43669   3.770   3.437   3.608  0.4369 -0.1000  0.0468
12941SOL    HW143670   3.792   3.354   3.651 -2.8788 -0.7746  0.5463
12941SOL    HW243671   3.719   3.485   3.673 -1.5099  0.4162 -1.8202
12942SOL     OW43672   4.681   2.327   5.436  0.3191 -0.3365 -0.1913
12942SOL    HW143673   4.595   2.368   5.444 -0.0641 -1.1223 -0.1861
12942SOL    HW243674   4.736   2.373   5.499  0.4098  1.4618 -1.5543
12943SOL     OW43675   4.192   1.928   4.337 -0.3248  0.1828  0.0853
12943SOL    HW143676   4.215   1.948   4.427 -1.0551  1.4828 -0.0097
12943SOL    HW243677   4.184   1.832   4.334 -1.0696  0.1990  1.5646
12944SOL     OW43678   5.269   2.306   5.429  0.3802 -0.5292  0.4303
12944SOL    HW143679   5.245   2.281   5.339  0.1142  3.8834 -0.8308
12944SOL    HW243680   5.360   2.279   5.437  1.0152  0.7397 -1.9250
12945SOL     OW43681   5.478   2.474   5.826  0.3704  0.4538 -0.1372
12945SOL    HW143682   5.438   2.533   5.890  1.3900 -0.6501  1.5610
12945SOL    HW243683   5.437   2.389   5.843  1.3789 -0.0638 -0.2540
12946SOL     OW43684   3.009   3.685   2.967 -0.0883 -0.2373  0.0237
12946SOL    HW143685   3.087   3.736   2.945 -0.3005  0.3104  0.5123
12946SOL    HW243686   2.987   3.712   3.056 -0.0821 -1.3596  0.3673
12947SOL     OW43687   5.784   3.206   3.374 -0.1880 -0.9583 -0.2560
12947SOL    HW143688   5.838   3.246   3.305 -0.5599 -1.3066 -0.7514
12947SOL    HW243689   5.704   3.259   3.375 -0.5317 -1.4647 -0.6667
12948SOL     OW43690   4.182   2.017   5.592 -0.1133 -0.6950 -0.2688
12948SOL    HW143691   4.088   1.999   5.589  0.4405 -3.8932  0.1826
12948SOL    HW243692   4.208   1.995   5.681  1.2752 -0.8836 -0.7078
12949SOL     OW43693   6.278   1.397   1.622  0.1461  0.0277  0.4986
12949SOL    HW143694   6.296   1.344   1.544 -0.1293  2.4535 -1.2631
12949SOL    HW243695   6.183   1.391   1.633  0.3190 -1.2857  1.3865
12950SOL     OW43696   7.175   4.804   4.066 -0.2058 -0.1312  0.1082
12950SOL    HW143697   7.157   4.738   3.999 -0.4575  0.1708 -0.1213
12950SOL    HW243698   7.161   4.888   4.022  1.6128  0.1183 -0.0276
12951SOL     OW43699   2.817   5.073   5.018  0.5098 -0.0260  0.5025
12951SOL    HW143700   2.732   5.117   5.023  1.1292  0.9994  2.6654
12951SOL    HW243701   2.798   4.988   4.978 -1.2580  0.8022 -0.5036
12952SOL     OW43702   3.926   2.455   4.060 -0.0423  0.3524  0.3582
12952SOL    HW143703   3.903   2.463   4.153  0.4657 -1.7179  0.6847
12952SOL    HW243704   3.986   2.528   4.045  0.1409  0.5168  1.7632
12953SOL     OW43705   2.728   2.816   5.214 -0.2101  0.5345  0.3627
12953SOL    HW143706   2.643   2.834   5.255 -0.2755 -1.3820  1.1404
12953SOL    HW243707   2.713   2.737   5.162  0.9211  0.5973 -0.0737
12954SOL     OW43708   5.453   2.345   3.317  0.8630 -0.2296  0.4827
12954SOL    HW143709   5.474   2.308   3.403  0.4517 -0.8271  0.3271
12954SOL    HW243710   5.407   2.275   3.271  1.3879 -0.0238 -0.3578
12955SOL     OW43711   3.162   1.971   3.599 -0.7044 -0.0026 -0.1916
12955SOL    HW143712   3.144   1.882   3.628 -0.8453 -0.8266 -2.7265
12955SOL    HW243713   3.080   2.019   3.614 -1.2484 -0.7842 -0.7116
12956SOL     OW43714   6.307   3.264   4.305  1.0949  0.7313  0.2968
12956SOL    HW143715   6.353   3.253   4.222  1.5430 -0.2454  0.6669
12956SOL    HW243716   6.363   3.321   4.356  1.5834  0.0678  0.5057
12957SOL     OW43717   4.191   1.941   4.649  0.1448  0.0001  0.1538
12957SOL    HW143718   4.222   1.996   4.721  1.9881 -0.7282 -0.0486
12957SOL    HW243719   4.096   1.947   4.653  0.2000 -0.6908  3.1673
12958SOL     OW43720   4.787   3.325   2.390 -0.1141 -0.0125  0.4863
12958SOL    HW143721   4.741   3.338   2.306 -0.0845 -0.7959  0.3451
12958SOL    HW243722   4.773   3.233   2.410  1.8449 -0.3920  0.1820
12959SOL     OW43723   4.582   1.290   5.036  0.0082 -0.0102  0.4360
12959SOL    HW143724   4.648   1.352   5.006  1.7337 -0.1694  3.6332
12959SOL    HW243725   4.526   1.340   5.095 -1.5149 -0.3963 -0.6295
12960SOL     OW43726   4.627   0.820   5.028  0.2371 -0.1748  0.4145
12960SOL    HW143727   4.611   0.758   4.957  1.4953 -0.1099  0.0609
12960SOL    HW243728   4.722   0.832   5.028  0.0328  1.5683  0.6190
12961SOL     OW43729   6.019   3.418   3.737 -0.5450 -0.6572 -0.2335
12961SOL    HW143730   5.962   3.444   3.810 -0.4801 -1.9420  0.2987
12961SOL    HW243731   5.968   3.353   3.689  0.7210 -2.3826  0.6826
12962SOL     OW43732   4.053   3.066   2.589  0.3306 -0.3370  0.1211
12962SOL    HW143733   3.986   3.095   2.528 -0.8871 -1.0778  1.0794
12962SOL    HW243734   4.076   3.144   2.639 -0.9124 -0.4030  0.8014
12963SOL     OW43735   3.648   3.526   4.734  0.3109  0.4465 -0.4059
12963SOL    HW143736   3.587   3.524   4.808  0.1094 -0.3332 -0.5921
12963SOL    HW243737   3.608   3.586   4.671 -0.3540 -0.1941 -0.6004
12964SOL     OW43738   5.626   1.845   3.061  0.7111  0.4608  0.2812
12964SOL    HW143739   5.571   1.894   3.000 -1.3524 -0.6665  1.2061
12964SOL    HW243740   5.687   1.796   3.005 -1.6311 -1.1227 -0.9547
12965SOL     OW43741   5.110   3.293   3.720  0.3781 -0.2130  0.0192
12965SOL    HW143742   5.068   3.207   3.724  1.3110 -0.6358  0.8231
12965SOL    HW243743   5.056   3.348   3.777  0.6953 -0.6708  0.7799
12966SOL     OW43744   1.591   2.581   3.320  0.2941  0.5490 -0.7428
12966SOL    HW143745   1.643   2.651   3.280 -0.0715  1.2314 -0.0657
12966SOL    HW243746   1.533   2.628   3.380  1.0534 -0.4548  0.8112
12967SOL     OW43747   3.998   2.563   2.088 -0.0054 -0.4262  0.0189
12967SOL    HW143748   3.918   2.532   2.131  0.6594 -1.1572  0.7391
12967SOL    HW243749   4.046   2.484   2.066  0.2394 -0.0073 -0.9799
12968SOL     OW43750   2.834   3.099   4.695 -0.4656  0.1344 -0.3176
12968SOL    HW143751   2.743   3.114   4.669 -0.6722  0.9980  0.8582
12968SOL    HW243752   2.864   3.185   4.725  0.6171 -0.2411 -0.3156
12969SOL     OW43753   3.911   1.568   7.449  0.3046  0.6744  0.4039
12969SOL    HW143754   3.836   1.515   7.421  0.8120  0.0410  0.2337
12969SOL    HW243755   3.872   1.646   7.488 -0.4688 -0.1665  1.3435
12970SOL     OW43756   4.782   1.418   7.961  0.3911 -0.3360  0.0285
12970SOL    HW143757   4.832   1.394   8.039 -1.3079 -1.5963  0.7586
12970SOL    HW243758   4.722   1.486   7.991  1.0910  0.6016 -0.6629
12971SOL     OW43759   3.492   2.505   7.411 -0.0078  0.0736  0.5768
12971SOL    HW143760   3.451   2.510   7.325 -0.1214 -0.7784  0.5717
12971SOL    HW243761   3.441   2.563   7.466 -0.4733 -0.0480  0.2763
12972SOL     OW43762   7.299   3.619   4.794 -0.0380 -0.1603  0.7341
12972SOL    HW143763   7.388   3.618   4.759 -0.4952  0.0146 -0.4333
12972SOL    HW243764   7.301   3.686   4.863  0.4457  0.6195 -0.0295
12973SOL     OW43765   6.139   2.628   7.158  0.0964  0.2942 -0.0898
12973SOL    HW143766   6.166   2.708   7.203 -1.6816 -0.2901  2.1489
12973SOL    HW243767   6.202   2.562   7.188  0.8097  0.5808 -0.9511
12974SOL     OW43768   7.307   1.640   5.979 -0.2002  0.0928 -0.0336
12974SOL    HW143769   7.330   1.550   6.000  0.1404  0.3096  0.5352
12974SOL    HW243770   7.325   1.649   5.885  1.8865  0.2059  0.3654
12975SOL     OW43771   2.538   3.469   4.393  0.2525 -0.0091 -0.1698
12975SOL    HW143772   2.447   3.442   4.406  0.2531  0.1798  0.2390
12975SOL    HW243773   2.549   3.545   4.450  0.1387  1.1175 -1.6076
12976SOL     OW43774   4.145   2.181   7.263  0.2191 -0.1861 -0.0767
12976SOL    HW143775   4.077   2.113   7.261 -1.0720  1.0691  0.1577
12976SOL    HW243776   4.188   2.173   7.178 -0.4070 -0.8092 -0.3460
12977SOL     OW43777   5.480   2.571   4.529 -0.1140 -0.1074  0.0323
12977SOL    HW143778   5.540   2.523   4.586  0.5300  0.3257 -0.2861
12977SOL    HW243779   5.527   2.580   4.447 -0.3548  0.8102 -0.0070
12978SOL     OW43780   5.140   1.637   6.985 -0.5492  0.1321 -0.1462
12978SOL    HW143781   5.127   1.564   7.046  1.0291 -0.0050  0.0432
12978SOL    HW243782   5.191   1.599   6.913  1.0985  1.2682  0.3976
12979SOL     OW43783   4.719   3.050   5.270  0.4529  0.0315 -0.0129
12979SOL    HW143784   4.718   3.015   5.359  2.4870  0.3000  0.1295
12979SOL    HW243785   4.810   3.043   5.242  0.2898  2.1339 -1.2012
12980SOL     OW43786   4.870   2.551   6.248  0.1339 -0.4005 -0.0885
12980SOL    HW143787   4.880   2.493   6.323 -1.4493 -0.0559  0.4043
12980SOL    HW243788   4.902   2.500   6.174 -1.3892 -1.9730  0.3160
12981SOL     OW43789   6.509   2.920   7.055  0.2496  0.2913 -0.1298
12981SOL    HW143790   6.420   2.938   7.026  0.2313 -1.1666 -1.0076
12981SOL    HW243791   6.513   2.825   7.064  2.2528  0.1864 -1.8505
12982SOL     OW43792   5.968   0.513   5.406  0.1313  0.0608 -0.0380
12982SOL    HW143793   5.904   0.515   5.335 -0.2884  3.3290  0.3516
12982SOL    HW243794   5.915   0.500   5.485 -0.0172  1.9267  0.1971
12983SOL     OW43795   2.897   3.545   5.180 -0.1534  0.6377  0.5313
12983SOL    HW143796   2.949   3.622   5.157  1.5612 -0.5056  0.4756
12983SOL    HW243797   2.955   3.492   5.235 -1.5633 -0.2696  1.1825
12984SOL     OW43798   6.001   2.153   7.178 -0.5362  0.0744  0.0701
12984SOL    HW143799   5.953   2.100   7.115 -2.3218  1.1995  0.4435
12984SOL    HW243800   6.088   2.114   7.181 -1.0396 -1.2365 -1.5654
12985SOL     OW43801   2.324   3.609   7.050 -0.0638 -0.0993  0.0851
12985SOL    HW143802   2.396   3.661   7.015 -0.3884  1.8489  2.2167
12985SOL    HW243803   2.338   3.522   7.013  3.1941  0.3114  0.1761
12986SOL     OW43804   2.808   2.907   5.841 -0.2764 -0.6977 -0.0254
12986SOL    HW143805   2.889   2.936   5.883 -0.8923  0.5006  0.3775
12986SOL    HW243806   2.804   2.813   5.856  1.3884 -0.8768 -0.6488
12987SOL     OW43807   4.190   2.429   6.301  0.4452  0.1740 -0.1412
12987SOL    HW143808   4.204   2.503   6.242  0.8674  1.2522  1.2736
12987SOL    HW243809   4.132   2.370   6.253  1.7398  0.4361 -2.1077
12988SOL     OW43810   4.094   2.351   3.324 -0.5324  0.5667 -0.2003
12988SOL    HW143811   4.099   2.257   3.308 -1.3457  0.2840  1.1874
12988SOL    HW243812   4.010   2.377   3.288 -0.1286  0.8463 -0.9561
12989SOL     OW43813   4.856   0.775   6.862  0.7095  0.0167  0.2287
12989SOL    HW143814   4.805   0.856   6.866  0.6067 -0.0388  0.0480
12989SOL    HW243815   4.791   0.705   6.868  0.3826 -0.1049 -3.7555
12990SOL     OW43816   6.233   1.682   7.805  0.5024  0.6430  0.0305
12990SOL    HW143817   6.210   1.651   7.892 -0.2556  1.2121  0.0435
12990SOL    HW243818   6.328   1.671   7.799  0.2446 -1.8355 -0.0507
12991SOL     OW43819   7.002   4.286   3.728  0.3391 -0.1558  0.4378
12991SOL    HW143820   6.940   4.358   3.740 -0.1623 -0.4125 -0.5767
12991SOL    HW243821   7.007   4.244   3.814  0.3590  0.8661  0.9415
12992SOL     OW43822   1.896   1.616   4.369 -0.4343  0.5808 -0.4884
12992SOL    HW143823   1.892   1.587   4.460 -0.7561  0.6776 -0.4710
12992SOL    HW243824   1.858   1.544   4.319  1.2695 -0.1806 -0.7119
12993SOL     OW43825   4.737   2.144   4.342 -0.1531  0.1594 -0.0403
12993SOL    HW143826   4.781   2.225   4.366 -0.0232  0.1461 -0.2342
12993SOL    HW243827   4.664   2.137   4.403 -1.1715  1.2973 -1.1077
12994SOL     OW43828   3.223   4.221   5.006  0.1120  0.5251  0.0608
12994SOL    HW143829   3.223   4.184   5.095  0.4371  1.6229  0.5218
12994SOL    HW243830   3.210   4.145   4.949 -1.6581 -0.0111  1.1168
12995SOL     OW43831   2.785   2.853   7.600  0.1224  0.0285 -0.1042
12995SOL    HW143832   2.784   2.758   7.607  0.3795 -0.1055 -1.7226
12995SOL    HW243833   2.847   2.882   7.666  1.0378 -1.0112 -0.5025
12996SOL     OW43834   2.068   4.176   8.196 -0.1856 -0.0112 -0.0809
12996SOL    HW143835   2.055   4.147   8.287  1.8092  0.2039  0.3051
12996SOL    HW243836   2.036   4.103   8.143 -1.4073 -0.1266  0.7808
12997SOL     OW43837   6.920   3.010   6.660 -0.1597 -0.2921 -0.2609
12997SOL    HW143838   6.845   3.024   6.717  2.5931  0.9001  3.2128
12997SOL    HW243839   6.924   3.090   6.607 -1.0139 -0.1352 -0.1029
12998SOL     OW43840   3.620   3.543   6.768  0.7955  0.2220 -0.1350
12998SOL    HW143841   3.650   3.562   6.857  1.2296  2.1132 -0.6630
12998SOL    HW243842   3.579   3.624   6.739 -0.1869 -0.6862 -1.3239
12999SOL     OW43843   3.318   2.167   6.542  0.4779  0.2268 -0.5636
12999SOL    HW143844   3.316   2.076   6.572  0.2865  0.6542  0.7200
12999SOL    HW243845   3.343   2.160   6.450  2.9333 -0.9707  0.1477
13000SOL     OW43846   4.999   1.812   4.165  0.2815 -0.0916 -0.1995
13000SOL    HW143847   4.924   1.783   4.112  0.5406  2.4743 -2.0645
13000SOL    HW243848   5.076   1.779   4.118  0.4543  0.9042 -0.6347
13001SOL     OW43849   8.267   3.710   8.693  0.1407 -0.0556 -0.0803
13001SOL    HW143850   8.346   3.656   8.698  0.4210  0.3074 -0.4812
13001SOL    HW243851   8.221   3.678   8.615  0.1526  0.0682 -0.1400
13002SOL     OW43852   2.400   1.711   7.691  0.0708 -0.3871 -0.3891
13002SOL    HW143853   2.387   1.768   7.767 -0.0118 -0.3693 -0.4150
13002SOL    HW243854   2.469   1.651   7.717 -1.7836 -2.1152  0.7034
13003SOL     OW43855   4.850   2.873   4.390 -0.4007  0.2425 -0.0143
13003SOL    HW143856   4.829   2.888   4.298  0.6946  0.0662 -0.3003
13003SOL    HW243857   4.938   2.909   4.401 -0.8251  0.9588  1.1497
13004SOL     OW43858   6.590   2.820   7.668  0.0653  0.1452 -0.5941
13004SOL    HW143859   6.606   2.740   7.616 -2.3782 -0.9990  0.3197
13004SOL    HW243860   6.507   2.853   7.634 -0.1342  0.9600  0.6768
13005SOL     OW43861   3.711   4.609   3.141  0.5214 -0.1526  0.3819
13005SOL    HW143862   3.803   4.633   3.157  0.4277  1.3710 -1.2632
13005SOL    HW243863   3.668   4.691   3.121 -1.0464 -0.9773  0.3249
13006SOL     OW43864   7.181   1.069   4.268  0.2337 -0.1587 -0.3436
13006SOL    HW143865   7.165   1.143   4.326  0.7165  0.3973 -0.9130
13006SOL    HW243866   7.274   1.072   4.250  0.6489 -2.1355  1.2618
13007SOL     OW43867   4.141   2.527   5.827  0.2279 -0.2054  0.4384
13007SOL    HW143868   4.088   2.447   5.833  2.9138 -2.1148  0.2037
13007SOL    HW243869   4.152   2.555   5.917 -0.1347 -0.5295  0.5862
13008SOL     OW43870   3.787   2.036   7.147  0.4486  0.1210  0.5739
13008SOL    HW143871   3.813   2.118   7.105  1.1752 -0.1602  0.4723
13008SOL    HW243872   3.785   1.973   7.076 -0.4759  0.1267  0.5871
13009SOL     OW43873   3.662   1.095   5.495 -0.1039 -0.0893  0.6164
13009SOL    HW143874   3.728   1.069   5.431 -0.4494 -1.5168  0.8125
13009SOL    HW243875   3.691   1.055   5.577  0.7315  2.3444  1.5487
13010SOL     OW43876   6.072   4.064   7.499 -0.5534 -0.3227 -0.0429
13010SOL    HW143877   6.162   4.068   7.532 -0.7590  1.1037  0.3918
13010SOL    HW243878   6.057   4.151   7.460 -1.6317 -0.6636 -0.4133
13011SOL     OW43879   6.680   2.139   5.247 -0.4531  0.3212 -0.2184
13011SOL    HW143880   6.753   2.151   5.187 -3.0967  1.4194 -3.4076
13011SOL    HW243881   6.654   2.047   5.237 -1.9380  0.9202 -2.0857
13012SOL     OW43882   3.641   2.462   5.178 -0.0289 -0.5178  0.7640
13012SOL    HW143883   3.599   2.419   5.103  0.3769  0.9943 -0.3502
13012SOL    HW243884   3.674   2.390   5.232 -2.0771 -1.6815  0.5137
13013SOL     OW43885   3.193   4.373   0.164  0.2110  0.2429  0.3272
13013SOL    HW143886   3.181   4.284   0.196  0.8886  0.1167  0.2479
13013SOL    HW243887   3.257   4.412   0.224 -1.6081  1.3387  1.5786
13014SOL     OW43888   3.330   4.745   9.831 -0.2181 -0.2856 -0.2905
13014SOL    HW143889   3.281   4.820   9.866  0.4355 -0.1878  0.4254
13014SOL    HW243890   3.314   4.674   9.892  1.0638 -0.0683  0.3302
13015SOL     OW43891   3.604   2.440   6.669 -0.5902  0.0240  0.3306
13015SOL    HW143892   3.590   2.359   6.718 -1.1031  0.2881  0.6189
13015SOL    HW243893   3.559   2.425   6.586  0.5770 -0.5601 -0.2126
13016SOL     OW43894   5.217   1.930   8.118  0.3572 -0.1623  0.2941
13016SOL    HW143895   5.174   1.922   8.203  1.1052  0.2905  0.7219
13016SOL    HW243896   5.205   1.845   8.076 -0.1457 -0.3373  0.7873
13017SOL     OW43897   4.362   2.995   4.867 -0.3619 -0.5934  0.4529
13017SOL    HW143898   4.354   2.992   4.962  2.2107  0.4824  0.7316
13017SOL    HW243899   4.450   2.962   4.849 -0.7567 -0.6272 -1.5576
13018SOL     OW43900   2.668   2.377   5.169  0.2913  0.3378  0.0763
13018SOL    HW143901   2.673   2.292   5.126  0.6579  1.4089 -2.0791
13018SOL    HW243902   2.584   2.375   5.217 -1.8150  0.2977 -3.4465
13019SOL     OW43903   2.916   2.740   5.430 -0.3600  0.2873 -0.1041
13019SOL    HW143904   2.889   2.821   5.386 -4.0048 -0.1466  1.0969
13019SOL    HW243905   2.896   2.671   5.367 -0.5723  0.0656  0.2072
13020SOL     OW43906   4.183   3.203   7.825  0.4588 -0.1018  0.3311
13020SOL    HW143907   4.099   3.227   7.865  0.0124 -1.3142  0.1403
13020SOL    HW243908   4.229   3.155   7.894  0.1297 -1.2602 -0.2565
13021SOL     OW43909   6.623   2.329   5.061 -0.0764 -0.6280 -0.7369
13021SOL    HW143910   6.573   2.251   5.037 -1.7667 -0.7031  2.6401
13021SOL    HW243911   6.653   2.311   5.150  1.1618  1.7949 -0.6208
13022SOL     OW43912   4.830   2.953   6.122  0.2525  0.3803  0.4694
13022SOL    HW143913   4.769   3.023   6.097  0.5295  0.6894  0.6655
13022SOL    HW243914   4.813   2.939   6.215  1.9171  1.8887  1.0219
13023SOL     OW43915   4.699   2.749   4.617 -0.1720 -0.0618  0.1371
13023SOL    HW143916   4.756   2.815   4.578 -0.7644  1.7770  2.2928
13023SOL    HW243917   4.752   2.669   4.619  1.3381  0.9142 -0.4392
13024SOL     OW43918   4.440   2.145   5.017  0.0906 -0.4018 -0.2842
13024SOL    HW143919   4.511   2.198   4.982 -1.0480  1.4034  0.0350
13024SOL    HW243920   4.436   2.169   5.110  0.5827 -2.2385  0.2241
13025SOL     OW43921   6.017   1.903   6.621 -0.1752  0.3525 -0.4965
13025SOL    HW143922   6.062   1.923   6.703  0.1599 -0.0540 -0.5796
13025SOL    HW243923   5.966   1.824   6.640 -0.7244  0.7147 -0.4502
13026SOL     OW43924   5.325   2.685   5.958  0.1497 -0.0280  0.0794
13026SOL    HW143925   5.243   2.734   5.964 -0.6377 -1.3013 -0.0309
13026SOL    HW243926   5.393   2.752   5.962 -0.9053  1.1220 -0.6423
13027SOL     OW43927   4.317   2.225   6.731  0.1165  0.0564 -0.0705
13027SOL    HW143928   4.262   2.170   6.675 -0.9377 -0.9659  1.8977
13027SOL    HW243929   4.404   2.220   6.692  0.0265 -2.9627 -0.0389
13028SOL     OW43930   4.340   1.515   6.240 -0.1473  0.3188 -0.0027
13028SOL    HW143931   4.374   1.543   6.325 -0.0357  0.9888 -0.2704
13028SOL    HW243932   4.382   1.572   6.177  0.1984 -0.5436 -0.5690
13029SOL     OW43933   3.047   3.775   5.128 -0.2245  0.2623 -0.1250
13029SOL    HW143934   3.121   3.751   5.183  0.4327  1.2907 -0.5503
13029SOL    HW243935   3.025   3.865   5.154  0.6222  1.0587 -2.0989
13030SOL     OW43936   5.674   2.667   5.371 -0.0399  0.0147  0.6665
13030SOL    HW143937   5.765   2.645   5.392  0.2890 -0.0361 -0.7779
13030SOL    HW243938   5.625   2.643   5.450  1.4005  1.4669  2.0456
13031SOL     OW43939   4.723   3.467   7.837  0.2086 -0.3303 -0.4321
13031SOL    HW143940   4.702   3.520   7.760 -1.6467 -0.5177 -0.0811
13031SOL    HW243941   4.638   3.438   7.870  1.0350 -1.0250  1.1456
13032SOL     OW43942   4.424   2.752   5.332 -0.0850 -0.5635 -0.3536
13032SOL    HW143943   4.442   2.820   5.397 -2.7637  0.9929 -1.1431
13032SOL    HW243944   4.506   2.742   5.284  0.7400  1.1537  0.6530
13033SOL     OW43945   3.944   2.109   6.911 -0.1155 -0.5639  0.0176
13033SOL    HW143946   3.940   2.140   6.821 -3.3375  1.4694  0.7600
13033SOL    HW243947   4.018   2.048   6.913  0.1338 -0.4892 -3.9008
13034SOL     OW43948   6.604   2.373   5.771 -0.3365 -0.4709 -0.4107
13034SOL    HW143949   6.681   2.394   5.718  0.2566 -2.2329 -0.2947
13034SOL    HW243950   6.529   2.397   5.717  0.2950  1.4984 -0.4266
13035SOL     OW43951   5.215   1.176   4.366 -0.3074  0.2867  0.1244
13035SOL    HW143952   5.178   1.103   4.416 -1.3230 -0.3835 -1.5705
13035SOL    HW243953   5.309   1.167   4.377 -0.4371 -1.0923  0.1934
13036SOL     OW43954   4.819   1.966   8.335 -0.6178  0.7382 -0.2328
13036SOL    HW143955   4.906   1.931   8.314 -1.1561 -0.6689 -0.1379
13036SOL    HW243956   4.792   1.918   8.413 -0.3729  3.0766  1.3322
13037SOL     OW43957   3.358   3.308   6.294 -0.3948 -0.2714  0.3518
13037SOL    HW143958   3.329   3.390   6.335  0.6754  0.2350  0.1324
13037SOL    HW243959   3.419   3.271   6.357  1.7856  0.8483 -1.0227
13038SOL     OW43960   6.527   2.615   7.065 -0.1419  0.1672 -0.5189
13038SOL    HW143961   6.622   2.606   7.072 -0.0649  1.6290  0.7514
13038SOL    HW243962   6.508   2.594   6.974  1.1629 -1.9370 -0.3539
13039SOL     OW43963   5.222   1.914   4.497 -0.1409 -0.3188  0.2987
13039SOL    HW143964   5.254   1.834   4.455 -0.9066 -0.4809  0.0228
13039SOL    HW243965   5.246   1.984   4.437  1.7136 -0.1804  1.1562
13040SOL     OW43966   6.132   3.582   3.211  0.9192  0.5977 -0.0363
13040SOL    HW143967   6.137   3.501   3.262  1.9723  0.3260 -0.5541
13040SOL    HW243968   6.147   3.652   3.275 -0.8016  0.4375  0.5549
13041SOL     OW43969   3.724   1.754   5.703  0.0634 -0.7539  0.2158
13041SOL    HW143970   3.761   1.775   5.617  0.1277  1.0349  0.6527
13041SOL    HW243971   3.756   1.667   5.723  0.0310 -1.1989 -1.5893
13042SOL     OW43972   4.676   2.514   5.958  0.2237 -0.4140 -0.1684
13042SOL    HW143973   4.656   2.422   5.938  0.7071 -0.1962 -1.7451
13042SOL    HW243974   4.770   2.523   5.941  0.4120  0.0976  1.1078
13043SOL     OW43975   4.175   0.959   6.532  0.3924 -0.5672  0.1110
13043SOL    HW143976   4.236   1.018   6.575  0.6993 -1.3001  0.6824
13043SOL    HW243977   4.216   0.873   6.538 -0.0320 -0.8411 -0.7548
13044SOL     OW43978   3.990   2.702   3.905  0.0062 -0.2565 -0.5259
13044SOL    HW143979   4.067   2.736   3.859 -0.8315  0.4536 -1.4408
13044SOL    HW243980   3.922   2.767   3.887 -0.3852 -0.0521  1.6188
13045SOL     OW43981   4.811   2.139   7.340 -0.0067 -0.7700 -0.1946
13045SOL    HW143982   4.839   2.139   7.248 -0.0379 -0.5744 -0.2046
13045SOL    HW243983   4.804   2.046   7.363 -0.3023 -0.8220 -0.4851
13046SOL     OW43984   4.937   2.670   3.799  0.0594 -0.3794  0.3034
13046SOL    HW143985   4.934   2.591   3.853 -0.4670 -0.0823  0.7042
13046SOL    HW243986   5.012   2.656   3.741  0.1964 -1.0076  0.6286
13047SOL     OW43987   4.576   2.259   6.643  0.2512 -0.0253 -0.6846
13047SOL    HW143988   4.540   2.313   6.573 -1.6628 -0.8539 -0.3571
13047SOL    HW243989   4.652   2.216   6.604  0.2973  0.9696 -1.6898
13048SOL     OW43990   6.782   2.336   6.420 -0.4273 -0.1947 -0.2187
13048SOL    HW143991   6.858   2.330   6.479  0.4323  1.0704 -1.1566
13048SOL    HW243992   6.811   2.395   6.351 -3.0688  2.1908  0.6162
13049SOL     OW43993   5.795   1.047   5.156  0.1981  0.6176  0.6253
13049SOL    HW143994   5.718   0.993   5.176 -0.0957  0.0916 -1.6983
13049SOL    HW243995   5.865   1.010   5.210 -0.6918 -0.2342  1.2197
13050SOL     OW43996   4.426   2.378   7.224  0.0770  0.3043 -0.5630
13050SOL    HW143997   4.413   2.401   7.316  0.6651  1.7697 -0.8259
13050SOL    HW243998   4.346   2.406   7.180  1.6538  4.1138 -1.2542
13051SOL     OW43999   4.213   1.018   6.894  0.5233 -0.4636 -0.5697
13051SOL    HW144000   4.157   1.096   6.898  1.3952  0.1506 -0.1555
13051SOL    HW244001   4.264   1.030   6.813  0.1072 -0.9910 -0.9128
13052SOL     OW44002   5.236   2.184   7.216  0.0238 -0.1637 -0.5669
13052SOL    HW144003   5.199   2.220   7.136  0.2012  0.5869 -0.3113
13052SOL    HW244004   5.330   2.179   7.199 -0.4518 -5.2329 -2.4983
13053SOL     OW44005   4.710   1.139   6.692  0.0071  0.4249 -0.1268
13053SOL    HW144006   4.679   1.108   6.777 -0.7530  1.1505 -0.1297
13053SOL    HW244007   4.686   1.232   6.690 -0.8080  0.2110 -1.4882
13054SOL     OW44008   3.623   1.221   5.051  0.0462 -0.3318  0.0562
13054SOL    HW144009   3.537   1.181   5.062  0.5676 -1.6718 -0.6523
13054SOL    HW244010   3.671   1.160   4.997  1.1929  0.8017 -0.2303
13055SOL     OW44011   4.324   0.528   6.209  0.4545  0.1121  0.4311
13055SOL    HW144012   4.310   0.622   6.197 -0.1506 -0.2034 -1.4364
13055SOL    HW244013   4.410   0.522   6.251  0.6928  1.4676  0.1822
13056SOL     OW44014   3.925   1.886   4.622  0.6337 -0.2421  0.1560
13056SOL    HW144015   3.891   1.897   4.711  0.8194  2.7292 -0.0710
13056SOL    HW244016   3.849   1.902   4.566  1.2693  1.4699 -0.2559
13057SOL     OW44017   3.112   4.142   6.365 -0.1009  0.0327  0.1934
13057SOL    HW144018   3.125   4.057   6.406  1.3608 -0.6512 -1.5814
13057SOL    HW244019   3.159   4.204   6.421 -0.6706 -0.4281  1.1710
13058SOL     OW44020   6.421   3.990   4.644  0.4643  0.4943  0.2161
13058SOL    HW144021   6.436   4.083   4.624 -1.0537  1.1047  1.7511
13058SOL    HW244022   6.335   3.972   4.608  0.4188 -0.0929  0.6150
13059SOL     OW44023   2.595   2.928   4.971 -0.5103  0.0143 -0.2714
13059SOL    HW144024   2.635   2.856   5.021  1.3679  0.7798 -0.6311
13059SOL    HW244025   2.562   2.886   4.891 -0.0565 -0.5683 -0.1566
13060SOL     OW44026   3.229   2.722   5.833  0.0046 -0.0847  0.3729
13060SOL    HW144027   3.157   2.764   5.786 -0.8395 -0.9671  0.8443
13060SOL    HW244028   3.272   2.667   5.768 -0.0826  0.0379  0.2121
13061SOL     OW44029   7.079   3.215   5.851 -0.1684  0.4689  0.2004
13061SOL    HW144030   7.091   3.160   5.774  0.7469  2.1715 -0.9058
13061SOL    HW244031   7.131   3.172   5.919 -0.2099 -0.5232 -0.3808
13062SOL     OW44032   5.364   1.511   7.973  0.3786  0.1061  0.1287
13062SOL    HW144033   5.446   1.512   8.022 -0.4522 -0.7776  1.6013
13062SOL    HW244034   5.358   1.422   7.939 -0.2074  0.0151  0.4622
13063SOL     OW44035   6.707   1.478   8.394 -0.6325  0.3800 -0.6288
13063SOL    HW144036   6.793   1.446   8.365 -0.4424 -0.5142  0.8904
13063SOL    HW244037   6.727   1.556   8.445 -0.7918  0.6421 -0.9653
13064SOL     OW44038   4.637   1.935   7.003 -0.3681 -0.5485 -0.3328
13064SOL    HW144039   4.632   1.922   7.097  1.6063 -0.6059 -0.2237
13064SOL    HW244040   4.559   1.987   6.982 -1.0923 -0.9800  1.2367
13065SOL     OW44041   5.147   2.793   5.768 -0.2844 -0.1778  0.4779
13065SOL    HW144042   5.065   2.827   5.732 -0.8476 -1.7400  0.2175
13065SOL    HW244043   5.161   2.711   5.720  0.4485 -0.8641  1.8465
13066SOL     OW44044   4.309   1.825   6.335 -0.3189 -0.5159 -0.1766
13066SOL    HW144045   4.296   1.919   6.322  2.2828  0.1060  1.2672
13066SOL    HW244046   4.316   1.789   6.247  0.4239  0.9456 -0.7350
13067SOL     OW44047   5.792   1.143   7.381 -0.3878  0.5111  0.3444
13067SOL    HW144048   5.870   1.094   7.406 -1.1911 -1.0453 -0.1116
13067SOL    HW244049   5.731   1.076   7.348 -1.1751  1.9149 -1.1324
13068SOL     OW44050   3.319   3.441   7.004 -0.0007 -0.0177  0.5371
13068SOL    HW144051   3.231   3.475   6.988  0.5213  0.8464 -0.5543
13068SOL    HW244052   3.328   3.445   7.100 -1.6420 -1.4298  0.7814
13069SOL     OW44053   4.632   1.909   6.406 -0.1449  0.1337 -0.0217
13069SOL    HW144054   4.711   1.962   6.412  1.8532 -2.5750 -1.5569
13069SOL    HW244055   4.607   1.911   6.314 -0.4445 -1.0511  0.0255
13070SOL     OW44056   4.935   2.369   7.093  0.0296  0.1485  0.1626
13070SOL    HW144057   4.912   2.287   7.050 -0.5029  0.6115 -0.4649
13070SOL    HW244058   4.855   2.422   7.085  0.9815  1.4241 -1.1407
13071SOL     OW44059   2.471   2.758   7.337  0.0845  0.4918 -0.2834
13071SOL    HW144060   2.551   2.708   7.322  0.0990  0.0090  1.2835
13071SOL    HW244061   2.413   2.733   7.265  1.0701  0.2862 -1.0197
13072SOL     OW44062   3.953   2.203   3.923  0.3058 -0.2511  0.8057
13072SOL    HW144063   3.951   2.286   3.972 -0.7223 -1.4258  2.8079
13072SOL    HW244064   3.862   2.188   3.898  0.6905 -0.1176 -0.7640
13073SOL     OW44065   5.099   3.143   6.174 -0.2004  0.0822  0.5588
13073SOL    HW144066   5.049   3.201   6.116  0.6981 -1.4043 -1.8012
13073SOL    HW244067   5.042   3.066   6.184  0.5547 -0.5727 -0.1270
13074SOL     OW44068   3.938   2.648   7.550 -0.3683 -0.0996  0.3619
13074SOL    HW144069   3.873   2.636   7.481 -1.0615 -2.6675  1.3793
13074SOL    HW244070   4.018   2.608   7.516  0.5569  2.5795 -0.6763
13075SOL     OW44071   5.274   2.557   6.201 -0.2871  0.7922  0.2205
13075SOL    HW144072   5.281   2.580   6.108  0.5987 -0.1856  0.0310
13075SOL    HW244073   5.184   2.579   6.225 -0.7331  0.3930 -1.0618
13076SOL     OW44074   2.830   2.090   5.918 -0.3148 -0.0452  0.6385
13076SOL    HW144075   2.859   2.109   6.007 -0.1353 -0.2005  0.6132
13076SOL    HW244076   2.759   2.027   5.929 -0.4680  0.1330  0.6849
13077SOL     OW44077   1.597   3.908   8.527 -0.4114  0.2240 -0.4515
13077SOL    HW144078   1.553   3.842   8.473  2.5657 -0.8762 -1.6794
13077SOL    HW244079   1.607   3.866   8.612 -0.6944  0.0085 -0.5231
13078SOL     OW44080   6.064   3.777   7.519  0.7921  0.5969  0.6750
13078SOL    HW144081   6.037   3.866   7.497  1.7532  0.2765 -1.9357
13078SOL    HW244082   5.986   3.723   7.503  1.3066  0.4554 -1.4134
13079SOL     OW44083   3.446   2.298   7.572 -0.2537 -0.0267  0.6332
13079SOL    HW144084   3.474   2.323   7.661 -2.0351  0.9836  0.9498
13079SOL    HW244085   3.466   2.374   7.519  1.7684 -1.0257 -0.0588
13080SOL     OW44086   4.545   2.164   7.504 -0.2830 -0.1216 -0.1981
13080SOL    HW144087   4.615   2.099   7.504 -0.4822 -0.4357 -3.2626
13080SOL    HW244088   4.469   2.116   7.537 -0.3159 -1.3842 -1.9759
13081SOL     OW44089   2.823   1.218   6.841 -0.8237 -0.5437 -0.2122
13081SOL    HW144090   2.762   1.273   6.792 -1.8760 -0.0394  1.6264
13081SOL    HW244091   2.909   1.255   6.823 -1.5224  1.7709  1.0521
13082SOL     OW44092   5.452   1.390   6.877 -0.0397 -0.7954 -0.2031
13082SOL    HW144093   5.372   1.337   6.868 -1.6334  1.6674 -0.8532
13082SOL    HW244094   5.470   1.421   6.789  0.5036  0.2846  0.2877
13083SOL     OW44095   5.129   2.803   6.497  0.3452  0.1160 -0.0596
13083SOL    HW144096   5.163   2.889   6.524 -0.6028 -0.1653  2.1341
13083SOL    HW244097   5.196   2.741   6.524 -0.6271 -0.1699  1.8288
13084SOL     OW44098   1.995   2.802   7.164 -0.6642  0.2138  0.0726
13084SOL    HW144099   1.993   2.708   7.148  0.8645  0.1107  0.4345
13084SOL    HW244100   1.976   2.841   7.079  0.5930 -0.4045 -0.5038
13085SOL     OW44101   3.314   3.808   8.158 -0.7840  0.2198 -0.2857
13085SOL    HW144102   3.276   3.850   8.235 -1.4104 -0.9380  0.0464
13085SOL    HW244103   3.408   3.815   8.172 -0.8845 -0.5888  0.9464
13086SOL     OW44104   4.774   2.913   5.518 -0.3045  0.1992  0.4476
13086SOL    HW144105   4.845   2.850   5.529 -0.3546 -0.1907 -1.2570
13086SOL    HW244106   4.710   2.890   5.584  0.1955 -0.8163  0.5862
13087SOL     OW44107   5.499   2.279   7.615 -0.0147  0.3922  0.2633
13087SOL    HW144108   5.405   2.275   7.596  0.2437  2.2402 -1.6467
13087SOL    HW244109   5.536   2.203   7.572 -0.1767  1.6633 -2.2069
13088SOL     OW44110   3.827   9.969   6.014 -0.0214  0.2200  0.9510
13088SOL    HW144111   3.866  10.039   6.066  1.1443  0.6900 -0.5148
13088SOL    HW244112   3.902   9.915   5.987 -0.5292  0.3407 -0.7296
13089SOL     OW44113   5.373   1.611   4.614 -0.8625  0.6308  0.2900
13089SOL    HW144114   5.353   1.521   4.588  3.2877  0.4949 -2.9284
13089SOL    HW244115   5.339   1.665   4.542  1.7096  1.1036 -0.6243
13090SOL     OW44116   5.811   2.231   6.484 -0.4705 -0.3299  0.4439
13090SOL    HW144117   5.851   2.186   6.410  0.4484 -0.5275  1.0545
13090SOL    HW244118   5.867   2.210   6.558 -3.1099 -2.7627  1.8704
13091SOL     OW44119   3.875   2.253   7.483  0.7389 -0.1405 -0.0254
13091SOL    HW144120   3.921   2.336   7.496  1.6183 -0.7314  0.6827
13091SOL    HW244121   3.806   2.273   7.420 -0.5606  1.6546  1.9490
13092SOL     OW44122   7.233   1.910   7.496  0.1311  0.6843  0.7318
13092SOL    HW144123   7.299   1.846   7.524 -1.6789 -1.1642  0.9542
13092SOL    HW244124   7.267   1.944   7.413  0.9819 -0.8359  0.4247
13093SOL     OW44125   4.504   2.860   6.623  0.1133 -0.3536 -0.0781
13093SOL    HW144126   4.466   2.932   6.674  1.4668 -0.2801  0.8524
13093SOL    HW244127   4.443   2.788   6.635  0.4724 -0.3719  1.7587
13094SOL     OW44128   5.280   3.086   7.948  0.0220  0.7152  0.3652
13094SOL    HW144129   5.196   3.043   7.959  1.5122 -1.9788  1.6727
13094SOL    HW244130   5.302   3.121   8.034  1.7163 -1.5309  0.9173
13095SOL     OW44131   5.383   1.622   3.803 -0.4713  0.1134  0.1178
13095SOL    HW144132   5.346   1.534   3.817 -0.8509  0.4442  1.2368
13095SOL    HW244133   5.449   1.609   3.735 -1.2694 -0.8502 -0.4998
13096SOL     OW44134   5.424   2.850   4.540 -0.4789  0.1097  0.0365
13096SOL    HW144135   5.331   2.861   4.520  0.0582  0.1542 -2.5220
13096SOL    HW244136   5.442   2.758   4.523  0.1589  0.3137 -0.4226
13097SOL     OW44137   4.489   2.515   5.481 -0.1040  0.3275  0.3115
13097SOL    HW144138   4.485   2.589   5.421  1.1450  1.0574  1.1064
13097SOL    HW244139   4.511   2.553   5.566  0.6104 -0.9457  0.7213
13098SOL     OW44140   4.086   2.425   7.399  0.1787  0.2034 -0.2785
13098SOL    HW144141   4.106   2.333   7.383  2.7640  0.6130  0.3979
13098SOL    HW244142   4.063   2.460   7.313  0.5401 -0.7576 -0.7778
13099SOL     OW44143   5.755   1.166   8.033  0.4105 -0.3761  0.0883
13099SOL    HW144144   5.737   1.167   7.939  1.6922 -1.8607 -0.1952
13099SOL    HW244145   5.816   1.239   8.046  0.9255 -0.7238 -0.3802
13100SOL     OW44146   5.195   1.531   6.706  0.1663 -0.0471 -0.3150
13100SOL    HW144147   5.101   1.512   6.707 -0.0771  1.0816 -0.3588
13100SOL    HW244148   5.233   1.462   6.652 -0.7005 -0.2609 -0.6610
13101SOL     OW44149   3.589   2.109   4.880  0.0505 -0.9087 -0.2416
13101SOL    HW144150   3.554   2.195   4.905  0.6036 -0.3876 -1.2467
13101SOL    HW244151   3.541   2.086   4.800 -1.6854 -2.5619  1.2197
13102SOL     OW44152   2.020   2.930   6.919 -0.2739 -0.1000 -0.2133
13102SOL    HW144153   1.990   3.013   6.882 -2.1022 -0.1632  1.0667
13102SOL    HW244154   2.058   2.883   6.845 -2.2883  0.4831 -1.6509
13103SOL     OW44155   3.322   3.194   6.727 -0.0983 -0.4484  0.1734
13103SOL    HW144156   3.375   3.224   6.654 -1.4676  0.3058 -0.5286
13103SOL    HW244157   3.312   3.099   6.713 -1.0980 -0.1667 -1.1266
13104SOL     OW44158   4.896   1.794   7.916 -0.3745 -0.0254  0.4015
13104SOL    HW144159   4.974   1.767   7.964 -0.3101  2.2025  1.6125
13104SOL    HW244160   4.824   1.745   7.957  0.1789 -0.9725  0.2501
13105SOL     OW44161   3.472   3.043   5.006  0.0056 -0.2889 -0.3727
13105SOL    HW144162   3.417   3.030   4.929 -1.8826  0.1611  0.8757
13105SOL    HW244163   3.504   2.955   5.028 -1.3165 -0.7608 -0.3063
13106SOL     OW44164   3.585   2.655   7.897 -0.5179  0.0812  0.1690
13106SOL    HW144165   3.528   2.682   7.826 -1.3598 -0.2130  0.7359
13106SOL    HW244166   3.674   2.666   7.862 -0.9464 -0.7831 -1.1746
13107SOL     OW44167   5.337   2.653   6.664 -0.0448  0.1310  0.7055
13107SOL    HW144168   5.350   2.560   6.647 -0.6362 -0.0017  0.9672
13107SOL    HW244169   5.402   2.676   6.731  0.5964  0.0806  0.1129
13108SOL     OW44170   6.209   1.742   5.192 -0.4919  0.0034  0.0889
13108SOL    HW144171   6.247   1.690   5.262 -1.1289  0.1757  0.5766
13108SOL    HW244172   6.205   1.683   5.117  3.4567  0.8328 -0.8863
13109SOL     OW44173   6.835   2.748   6.534  0.0146 -0.0434 -0.0525
13109SOL    HW144174   6.855   2.824   6.589 -1.1828  0.4016 -0.2231
13109SOL    HW244175   6.900   2.752   6.464  0.1769  0.6288  0.1311
13110SOL     OW44176   3.824   2.655   7.785 -0.1290 -0.4663  0.1391
13110SOL    HW144177   3.817   2.560   7.785 -1.3504 -0.3850  0.5742
13110SOL    HW244178   3.860   2.676   7.699  0.0014 -1.3074 -0.0196
13111SOL     OW44179   3.431   2.908   6.172 -0.2955  0.1292 -0.0909
13111SOL    HW144180   3.386   2.825   6.183  0.0000  0.0956  0.9404
13111SOL    HW244181   3.362   2.974   6.171 -0.3411  0.1731  2.4901
13112SOL     OW44182   4.056   3.036   8.466  0.6210  0.5158  0.4983
13112SOL    HW144183   3.976   3.002   8.506  0.2731 -0.2535 -0.8324
13112SOL    HW244184   4.100   2.959   8.430  1.5809  1.0342  0.5274
13113SOL     OW44185   3.658   2.727   5.301 -0.1212  0.1905 -0.3066
13113SOL    HW144186   3.696   2.646   5.267  0.6242  0.5441 -0.3223
13113SOL    HW244187   3.588   2.748   5.240 -0.4609 -0.5576 -0.1832
13114SOL     OW44188   4.669   1.947   5.348 -0.2275  0.4973  0.3758
13114SOL    HW144189   4.658   1.922   5.440 -1.3495 -0.1301  0.0797
13114SOL    HW244190   4.757   1.984   5.344 -0.3802  1.0635  1.8244
13115SOL     OW44191   6.089   3.243   5.181  0.6706 -0.2940  0.0253
13115SOL    HW144192   6.001   3.209   5.196  0.5098 -0.1150 -0.4846
13115SOL    HW244193   6.079   3.302   5.106  1.1385  0.0788  0.2530
13116SOL     OW44194   3.099   3.665   3.625 -0.0946 -0.2357 -0.8435
13116SOL    HW144195   3.063   3.577   3.635  1.4552 -0.6919  0.8867
13116SOL    HW244196   3.046   3.720   3.683 -0.4692 -0.1887 -1.2268
13117SOL     OW44197   5.117   2.573   5.340 -0.1726 -0.0477  0.4399
13117SOL    HW144198   5.134   2.493   5.290 -1.6741 -0.5822  0.7548
13117SOL    HW244199   5.137   2.550   5.431  0.3865  0.2429  0.3898
13118SOL     OW44200   7.719   4.977   7.063  0.0194 -0.4662 -0.5611
13118SOL    HW144201   7.709   5.063   7.102  0.0801 -0.6545 -0.1316
13118SOL    HW244202   7.813   4.967   7.050 -0.1407  0.5498 -2.9170
13119SOL     OW44203   2.302   3.456   7.749 -0.1219  0.6288 -0.3363
13119SOL    HW144204   2.247   3.380   7.732 -1.3862  0.9854  1.9416
13119SOL    HW244205   2.273   3.522   7.686  1.8188 -1.1230 -3.1550
13120SOL     OW44206   5.947   2.315   5.916 -0.1054  0.0721 -0.2288
13120SOL    HW144207   6.013   2.254   5.949 -1.8671 -1.6074  0.2280
13120SOL    HW244208   5.863   2.276   5.940 -1.3459  1.0299 -2.7808
13121SOL     OW44209   4.260   1.952   6.038  0.2079  0.2985  0.0991
13121SOL    HW144210   4.178   1.987   6.072 -0.2679 -1.1819  0.5333
13121SOL    HW244211   4.297   2.023   5.986 -0.5278  1.5673  1.2578
13122SOL     OW44212   2.082   4.170   9.520 -0.3549  0.1664  0.0984
13122SOL    HW144213   2.113   4.247   9.567  0.1641 -0.1578  0.2973
13122SOL    HW244214   2.081   4.100   9.586  2.3312 -0.7808 -0.8180
13123SOL     OW44215   6.620   3.611   4.949 -0.2515 -0.3996 -0.0308
13123SOL    HW144216   6.619   3.707   4.943  2.3541 -0.2422  1.1375
13123SOL    HW244217   6.567   3.581   4.875 -0.6554  1.9333 -0.7179
13124SOL     OW44218   4.899   2.137   5.406  0.1052  0.1701 -0.0622
13124SOL    HW144219   4.812   2.177   5.412 -0.5505 -0.9756 -1.6060
13124SOL    HW244220   4.957   2.201   5.447 -1.8218 -0.2811  3.5348
13125SOL     OW44221   1.790   3.474   5.037  0.1435  0.2365 -0.3798
13125SOL    HW144222   1.838   3.398   5.071 -0.0138 -0.9769 -2.7938
13125SOL    HW244223   1.698   3.455   5.056  0.1581  0.1525 -0.3957
13126SOL     OW44224   6.613   3.777   7.564  0.2669  0.1154  0.5300
13126SOL    HW144225   6.701   3.741   7.579 -0.8146 -3.0987 -0.4418
13126SOL    HW244226   6.554   3.712   7.603 -1.8258  0.0343 -2.5895
13127SOL     OW44227   6.501   1.267   7.637 -0.3189 -0.4685  0.3763
13127SOL    HW144228   6.531   1.228   7.555  0.9736 -0.2994  0.7578
13127SOL    HW244229   6.415   1.229   7.652  0.0740 -1.6313 -0.2877
13128SOL     OW44230   3.299   3.746   5.928 -0.0176 -0.5775 -0.9277
13128SOL    HW144231   3.296   3.831   5.972  1.0066 -1.4741  0.9397
13128SOL    HW244232   3.281   3.683   5.997 -0.0528 -1.9248 -2.1509
13129SOL     OW44233   5.684   3.545   3.688 -0.2257  0.0457 -0.5688
13129SOL    HW144234   5.709   3.494   3.765 -2.3713  0.5393  0.5004
13129SOL    HW244235   5.627   3.487   3.638  0.9471 -0.1773 -1.6511
13130SOL     OW44236   4.545   2.692   6.147  0.2899  0.2147  0.4149
13130SOL    HW144237   4.572   2.631   6.078  2.1099  0.4217  0.9217
13130SOL    HW244238   4.612   2.683   6.214  0.2777  2.3651  0.7438
13131SOL     OW44239   3.939   2.020   5.482  0.2987 -0.0124 -0.2795
13131SOL    HW144240   3.934   2.059   5.394 -0.0028 -0.7857 -0.6112
13131SOL    HW244241   3.921   1.928   5.468 -0.1089 -0.0792  0.6561
13132SOL     OW44242   7.110   3.209   4.724  0.8819  0.1273  0.3088
13132SOL    HW144243   7.028   3.195   4.675  0.9809  1.2425 -0.1910
13132SOL    HW244244   7.106   3.301   4.751  1.9679  0.1784  0.3032
13133SOL     OW44245   5.245   1.863   7.066  0.0466  0.1352 -0.4169
13133SOL    HW144246   5.191   1.937   7.036 -3.5055 -1.6403  1.2140
13133SOL    HW244247   5.201   1.786   7.029 -0.2302 -1.5750  3.2608
13134SOL     OW44248   5.230   3.798   3.722 -0.0839 -0.8299  0.0222
13134SOL    HW144249   5.201   3.748   3.798  1.0014  0.0211  1.0185
13134SOL    HW244250   5.152   3.807   3.667 -0.7589 -1.8710  0.8066
13135SOL     OW44251   4.064   1.120   6.335  0.4643  0.1321  0.0389
13135SOL    HW144252   4.111   1.070   6.401 -2.0932  0.7463  2.4364
13135SOL    HW244253   4.090   1.211   6.350  0.2081  0.2273 -0.0763
13136SOL     OW44254   4.252   1.653   6.845 -0.4736 -0.3155 -0.1080
13136SOL    HW144255   4.310   1.611   6.781  0.5313 -2.8390  2.3735
13136SOL    HW244256   4.178   1.593   6.854 -0.9715  0.3928  0.5386
13137SOL     OW44257   3.997   1.858   7.677  0.0787  0.2580  0.6920
13137SOL    HW144258   4.018   1.931   7.735  0.8842 -0.3697  1.2089
13137SOL    HW244259   3.903   1.866   7.661  0.3537  2.0688 -0.1872
13138SOL     OW44260   4.962   2.500   5.888  0.4337 -0.3606  0.1558
13138SOL    HW144261   4.979   2.425   5.946 -0.2111 -2.0453 -1.7874
13138SOL    HW244262   5.047   2.523   5.853  0.7309  0.2487  1.2570
13139SOL     OW44263   3.039   2.774   6.301  0.0187 -0.4700 -0.1445
13139SOL    HW144264   2.970   2.736   6.247 -1.5855 -0.9117  2.1782
13139SOL    HW244265   3.004   2.859   6.328  0.6230 -0.4400  0.5551
13140SOL     OW44266   3.181   1.899   7.271 -0.5023 -0.3437  0.2763
13140SOL    HW144267   3.220   1.901   7.358 -1.0273 -2.1362  0.5647
13140SOL    HW244268   3.092   1.934   7.284 -0.1996  0.4578  0.2406
13141SOL     OW44269   4.235   2.626   6.100  0.6145  0.6936  0.1976
13141SOL    HW144270   4.199   2.714   6.108  0.5867  0.6836  0.1835
13141SOL    HW244271   4.329   2.637   6.112  0.4159  0.4544  2.1994
13142SOL     OW44272   3.812   9.025   3.442 -0.3183 -0.2905  1.0436
13142SOL    HW144273   3.797   9.050   3.533  2.1136 -1.6418  1.8672
13142SOL    HW244274   3.839   9.106   3.399  0.5978 -0.0527  2.0385
13143SOL     OW44275   4.690   2.778   5.256  0.0614 -0.3497 -0.0772
13143SOL    HW144276   4.706   2.872   5.266 -0.8046 -0.0453 -1.4016
13143SOL    HW244277   4.765   2.736   5.298  1.3290  0.9565 -0.9777
13144SOL     OW44278   3.881   2.619   6.355  0.1210  0.5019  0.0939
13144SOL    HW144279   3.909   2.707   6.330  0.9263  0.0240 -0.6943
13144SOL    HW244280   3.785   2.623   6.351  0.1390  1.4484  0.4439
13145SOL     OW44281   3.625   2.243   5.866 -0.7754  0.1631 -0.1359
13145SOL    HW144282   3.685   2.205   5.802  0.9370  1.7655  0.4579
13145SOL    HW244283   3.577   2.169   5.902  2.1867 -1.3849  0.7254
13146SOL     OW44284   1.797   1.620   7.954  0.0596  0.8123  0.3547
13146SOL    HW144285   1.816   1.572   7.873 -0.8524  1.6866 -0.3979
13146SOL    HW244286   1.759   1.703   7.924 -2.0496  0.3797  1.7146
13147SOL     OW44287   6.741   3.855   5.897  0.0240 -1.0038  0.2858
13147SOL    HW144288   6.814   3.916   5.886 -1.3332  0.5192 -0.3950
13147SOL    HW244289   6.703   3.879   5.982 -1.6651  0.3750 -0.8361
13148SOL     OW44290   3.237   1.934   4.742  0.1580  0.0381 -0.2771
13148SOL    HW144291   3.158   1.881   4.749 -0.0905  0.6501  1.7644
13148SOL    HW244292   3.304   1.884   4.788  0.4817  0.4533 -0.2909
13149SOL     OW44293   4.598   2.634   3.508  0.2697 -0.0648  0.2555
13149SOL    HW144294   4.579   2.720   3.546 -0.0970 -0.6757  1.4732
13149SOL    HW244295   4.523   2.580   3.533  1.0633 -1.0575  0.5208
13150SOL     OW44296   6.596   2.962   6.742 -0.1190  0.3861 -0.1720
13150SOL    HW144297   6.562   3.014   6.670  0.9607  1.1062 -0.1820
13150SOL    HW244298   6.623   3.027   6.807  2.3774 -0.0961 -0.6940
13151SOL     OW44299   4.230   3.031   7.435  0.8117  0.3185  0.9532
13151SOL    HW144300   4.274   3.079   7.505  0.7131  0.4817  0.9032
13151SOL    HW244301   4.208   3.097   7.370  1.9799 -0.0033  0.2082
13152SOL     OW44302   5.044   2.253   5.608 -0.2303 -0.0757  0.3144
13152SOL    HW144303   5.123   2.278   5.560  0.2230 -0.0875  1.0594
13152SOL    HW244304   5.075   2.206   5.685 -1.0286 -1.5922 -0.2688
13153SOL     OW44305   4.524   2.998   7.411  0.4991  0.4878 -0.0292
13153SOL    HW144306   4.434   3.005   7.378  0.3058 -0.0435  0.3625
13153SOL    HW244307   4.531   3.068   7.476 -0.0191 -0.1890  0.7797
13154SOL     OW44308   4.661   1.877   6.090 -0.5660  0.0391 -1.1063
13154SOL    HW144309   4.743   1.896   6.045 -0.0703 -0.3695 -0.3866
13154SOL    HW244310   4.670   1.785   6.118 -0.5605  0.5102  0.4662
13155SOL     OW44311   6.492   2.353   6.067 -0.3025 -0.7024  0.0325
13155SOL    HW144312   6.420   2.357   6.004  0.4231 -0.9289 -0.8075
13155SOL    HW244313   6.542   2.275   6.043  1.3019  0.4768 -0.5419
13156SOL     OW44314   3.686   2.464   8.318 -0.0219 -0.0706 -0.0577
13156SOL    HW144315   3.637   2.396   8.364  1.0515 -0.7480  0.0963
13156SOL    HW244316   3.744   2.500   8.384  0.4409  0.0075 -0.5074
13157SOL     OW44317   5.134   2.313   4.870  0.6628 -0.3129  0.8272
13157SOL    HW144318   5.202   2.334   4.806 -0.2160 -0.7590 -0.2751
13157SOL    HW244319   5.156   2.225   4.901  1.6222  0.2717  1.8678
13158SOL     OW44320   6.857   1.873   5.138  0.4296 -0.1790 -0.1650
13158SOL    HW144321   6.916   1.853   5.065  0.3451 -0.0852 -0.2595
13158SOL    HW244322   6.889   1.819   5.210  0.9054  0.1923 -0.0884
13159SOL     OW44323   5.280   2.711   7.105 -0.4540  0.5313  0.0767
13159SOL    HW144324   5.206   2.768   7.083 -2.3085 -1.1756  1.7037
13159SOL    HW244325   5.315   2.749   7.186 -0.9924  0.0502  0.5454
13160SOL     OW44326   3.431   1.429   4.664 -0.1833  0.6463  0.0545
13160SOL    HW144327   3.400   1.393   4.747 -1.5099 -1.1860 -1.1996
13160SOL    HW244328   3.452   1.352   4.611  1.4338  1.8086 -1.0289
13161SOL     OW44329   3.976   2.845   8.917 -0.1783  0.0450 -0.2460
13161SOL    HW144330   3.946   2.817   8.830  0.8355 -1.6144 -0.0935
13161SOL    HW244331   3.999   2.763   8.961  1.4224  1.0337  0.7930
13162SOL     OW44332   5.141   1.881   6.571  0.2016  0.1616 -0.1362
13162SOL    HW144333   5.072   1.816   6.558 -0.8097  0.8564  1.5340
13162SOL    HW244334   5.143   1.931   6.489 -1.2965  0.1429 -0.1928
13163SOL     OW44335   5.210   2.363   6.742 -0.1169  0.2083  0.1608
13163SOL    HW144336   5.157   2.286   6.722  1.6092 -0.8344 -0.4954
13163SOL    HW244337   5.180   2.429   6.680 -2.2730  0.4148  1.3514
13164SOL     OW44338   4.872   2.304   4.743 -0.2164 -0.0859 -0.0832
13164SOL    HW144339   4.840   2.223   4.783 -0.7148  0.1744  0.0558
13164SOL    HW244340   4.957   2.319   4.784 -0.0772 -0.5895 -0.1814
13165SOL     OW44341   4.992   4.247   9.021 -0.7806 -0.0474 -0.4015
13165SOL    HW144342   5.022   4.306   9.090 -1.8465 -0.3087  0.2898
13165SOL    HW244343   5.039   4.276   8.943  1.0821 -0.2823  0.6015
13166SOL     OW44344   3.001   1.750   3.593  0.8830  0.0929 -0.2317
13166SOL    HW144345   3.009   1.732   3.500 -0.9220  0.4234 -0.4706
13166SOL    HW244346   2.937   1.687   3.624  2.3153 -0.7748  1.0347
13167SOL     OW44347   5.207   1.601   7.705  0.2099  0.1552  0.5166
13167SOL    HW144348   5.256   1.665   7.653 -1.4188  0.9968 -0.0112
13167SOL    HW244349   5.269   1.574   7.773  1.3679  1.2839 -0.0577
13168SOL     OW44350   5.959   1.627   6.055 -0.2443 -0.2312  0.3607
13168SOL    HW144351   5.920   1.557   6.107 -0.8273 -0.1412  0.0403
13168SOL    HW244352   5.893   1.649   5.989 -0.0203  0.5456  0.3871
13169SOL     OW44353   5.695   2.878   6.934 -0.4082 -0.1306  0.4729
13169SOL    HW144354   5.730   2.944   6.875  1.5186  1.3100  3.1515
13169SOL    HW244355   5.726   2.795   6.898  0.1148  0.6739 -0.9478
13170SOL     OW44356   3.587   3.274   6.894 -0.0177  0.2945 -0.1118
13170SOL    HW144357   3.585   3.366   6.867 -0.2528  0.6433  1.0722
13170SOL    HW244358   3.665   3.238   6.852 -0.2613  0.8779 -1.0709
13171SOL     OW44359   6.083   2.217   5.112 -0.0469 -0.9073 -0.2693
13171SOL    HW144360   6.154   2.279   5.132 -2.3425  1.7610 -0.1290
13171SOL    HW244361   6.036   2.207   5.194 -0.9322 -1.2159 -0.8066
13172SOL     OW44362   5.751   1.676   7.223  0.6690  0.2453  0.4834
13172SOL    HW144363   5.779   1.654   7.134  0.4309  0.4699  0.3526
13172SOL    HW244364   5.709   1.596   7.255  0.3207  0.3248  0.2184
13173SOL     OW44365   6.335   2.800   6.656 -0.2171  0.2311  0.4111
13173SOL    HW144366   6.421   2.757   6.656  0.2176  1.0311 -1.9123
13173SOL    HW244367   6.338   2.858   6.733  1.1514 -0.0721  0.6156
13174SOL     OW44368   4.019   2.929   4.400  0.2605  0.2578  0.5449
13174SOL    HW144369   3.991   2.974   4.480  1.1954  1.0958  0.4103
13174SOL    HW244370   4.105   2.966   4.380  0.3650 -0.4853 -0.4358
13175SOL     OW44371   4.820   2.190   5.910 -0.1237  0.4365 -0.9235
13175SOL    HW144372   4.825   2.190   5.815  0.0526 -0.7832 -0.9219
13175SOL    HW244373   4.855   2.105   5.936  0.1592  0.9012  0.2469
13176SOL     OW44374   4.948   2.793   7.338  0.6180  0.0269  0.1411
13176SOL    HW144375   5.030   2.819   7.380 -0.1645  0.2948  1.5274
13176SOL    HW244376   4.944   2.698   7.351  0.0854  0.1898  1.2231
13177SOL     OW44377   4.050   2.544   8.525 -0.4405 -0.6005 -0.4379
13177SOL    HW144378   4.058   2.533   8.430 -1.0177  1.0610 -0.6929
13177SOL    HW244379   4.128   2.500   8.561 -1.4368 -3.3557 -1.4938
13178SOL     OW44380   4.191   1.945   8.473  0.0131  0.1534  0.3016
13178SOL    HW144381   4.243   1.925   8.395 -0.3926  1.6200 -0.3721
13178SOL    HW244382   4.227   1.890   8.541  0.1108 -1.4764 -1.0322
13179SOL     OW44383   5.004   2.731   8.862  0.1961  0.2842  0.0545
13179SOL    HW144384   4.986   2.729   8.956  1.1655 -0.6467  0.2193
13179SOL    HW244385   4.952   2.660   8.825 -1.4253  1.6243 -0.3597
13180SOL     OW44386   3.144   1.951   7.831  0.0966 -0.3401  0.0561
13180SOL    HW144387   3.050   1.935   7.836  0.2270 -1.7656 -1.5532
13180SOL    HW244388   3.183   1.869   7.863  0.8125  0.7235  1.9917
13181SOL     OW44389   6.661   3.639   8.883  0.0283 -0.2782 -0.2723
13181SOL    HW144390   6.675   3.716   8.827 -0.7378  1.0062  1.2502
13181SOL    HW244391   6.656   3.566   8.821 -2.5403  1.3107 -2.1072
13182SOL     OW44392   5.396   2.299   9.297  0.1947 -0.1037  0.3072
13182SOL    HW144393   5.337   2.353   9.245 -0.6700 -0.0016  1.3730
13182SOL    HW244394   5.465   2.272   9.236 -0.9411 -0.2007 -0.9402
13183SOL     OW44395   3.612   2.855   9.427  0.1535 -0.1164  0.0878
13183SOL    HW144396   3.526   2.814   9.435  0.0309  0.2343  0.5833
13183SOL    HW244397   3.641   2.833   9.339 -0.6538  0.1687 -0.2520
13184SOL     OW44398   4.733   3.483   8.135 -0.5349 -0.3592 -0.1578
13184SOL    HW144399   4.693   3.397   8.152 -0.8196  0.0392  1.2296
13184SOL    HW244400   4.737   3.488   8.039 -0.2332 -2.0486 -0.2596
13185SOL     OW44401   4.159   2.648   9.615  0.1331  0.3630  0.2731
13185SOL    HW144402   4.198   2.625   9.699 -0.3848  0.6395  0.5891
13185SOL    HW244403   4.094   2.579   9.599  0.2650  0.2832  0.0720
13186SOL     OW44404   5.225   3.008   8.490 -0.2369 -0.4157  0.2672
13186SOL    HW144405   5.216   2.994   8.585  0.7350  1.0034  0.5841
13186SOL    HW244406   5.316   3.033   8.478 -0.4485 -0.2174 -1.0092
13187SOL     OW44407   5.883   3.559   7.524  0.4713  0.3330  0.0083
13187SOL    HW144408   5.833   3.487   7.486 -1.8513  1.3539  0.9989
13187SOL    HW244409   5.969   3.522   7.544 -0.9027 -2.3190  1.1020
13188SOL     OW44410   3.820   1.776   0.288 -0.1496  0.2615 -0.0122
13188SOL    HW144411   3.749   1.712   0.285 -1.5636  1.7854 -0.2039
13188SOL    HW244412   3.890   1.732   0.336 -0.4177 -2.0409 -1.6309
13189SOL     OW44413   5.279   1.630   0.691  0.3046 -0.4835 -0.2429
13189SOL    HW144414   5.284   1.555   0.632  1.0178 -1.8410  1.5155
13189SOL    HW244415   5.190   1.626   0.727 -0.3011  0.6297 -1.5357
13190SOL     OW44416   4.249   2.766   8.179 -0.0027  0.4151  0.7262
13190SOL    HW144417   4.237   2.761   8.274 -0.2297  1.6653  0.7678
13190SOL    HW244418   4.161   2.778   8.144 -0.1813 -2.1068  0.1847
13191SOL     OW44419   3.232   2.217   8.455 -0.2674  0.1424 -0.3334
13191SOL    HW144420   3.213   2.196   8.547 -1.1352  0.6999 -0.3793
13191SOL    HW244421   3.162   2.276   8.429  0.9587  1.4261 -0.8215
13192SOL     OW44422   5.204   4.653   0.033  0.0511 -0.1526 -0.0566
13192SOL    HW144423   5.288   4.696   0.018  0.1935  0.5992  2.5547
13192SOL    HW244424   5.142   4.704  -0.018  0.8155  0.8153 -0.0510
13193SOL     OW44425   6.755   4.020   5.555 -0.0289 -0.6160  0.7372
13193SOL    HW144426   6.699   3.945   5.538 -3.7601  1.4906  3.1669
13193SOL    HW244427   6.781   4.011   5.647  1.6755 -0.2836  0.3093
13194SOL     OW44428   4.913   1.817   6.950  0.1924 -0.2751 -0.4289
13194SOL    HW144429   4.972   1.744   6.931  3.6699  1.7802  1.9316
13194SOL    HW244430   4.872   1.793   7.033  0.8583  0.1627  0.0283
13195SOL     OW44431   3.930   3.800   8.498  0.0005  0.4904 -0.2410
13195SOL    HW144432   3.897   3.739   8.432 -0.4502  0.0359  0.3987
13195SOL    HW244433   4.015   3.763   8.523  0.3084  0.8285 -0.7843
13196SOL     OW44434   5.356   4.183   8.495  0.0543  0.0340 -0.3871
13196SOL    HW144435   5.382   4.135   8.574  0.6555 -0.8857 -1.1288
13196SOL    HW244436   5.403   4.139   8.424  0.8482  1.9128 -1.0519
13197SOL     OW44437   4.019   2.072   8.128 -0.3704 -0.2578  0.1983
13197SOL    HW144438   4.054   2.078   8.218  0.7523 -2.3492 -0.0521
13197SOL    HW244439   3.949   2.137   8.125  0.1972  0.5059  2.3081
13198SOL     OW44440   5.252   2.720   7.765  0.1072  0.3491  0.4830
13198SOL    HW144441   5.157   2.713   7.771 -0.0912  2.7789  0.7559
13198SOL    HW244442   5.272   2.709   7.672 -0.4641  0.1847  0.3786
13199SOL     OW44443   4.844   2.400   6.705 -0.5928 -0.5298  0.2663
13199SOL    HW144444   4.864   2.374   6.795  0.3383  1.1975  0.5717
13199SOL    HW244445   4.750   2.418   6.706 -0.5157 -0.1662  0.9790
13200SOL     OW44446   5.048   2.881   7.077 -0.6955 -0.1247 -0.7737
13200SOL    HW144447   5.014   2.924   6.999 -1.4114 -0.9232 -0.9139
13200SOL    HW244448   4.970   2.847   7.121 -0.4739  2.0043  1.3249
13201SOL     OW44449   5.049   2.250   9.124  0.1582  0.5988 -0.5396
13201SOL    HW144450   4.953   2.249   9.123  0.1281  0.3034  0.9626
13201SOL    HW244451   5.071   2.335   9.162  0.4496 -0.1626  1.0260
13202SOL     OW44452   6.039   2.574   8.019  0.3695 -0.2492 -0.1491
13202SOL    HW144453   5.975   2.503   8.012 -0.3119  0.4233 -0.8409
13202SOL    HW244454   5.992   2.652   7.988  1.4087  0.3173 -0.3228
13203SOL     OW44455   5.788   2.362   9.190 -0.2818 -0.1152  1.0253
13203SOL    HW144456   5.710   2.309   9.174  0.3300 -1.1850  1.5045
13203SOL    HW244457   5.793   2.367   9.286  1.7163 -2.3402  1.0939
13204SOL     OW44458   6.067   2.453   8.841 -0.0240 -0.3646 -0.2886
13204SOL    HW144459   5.979   2.459   8.879 -0.3112 -1.8558 -0.6578
13204SOL    HW244460   6.123   2.427   8.915 -0.0012 -0.0217 -0.1845
13205SOL     OW44461   6.338   3.133   7.263 -0.1496 -0.0260 -0.4821
13205SOL    HW144462   6.278   3.201   7.232  2.1791  1.8270 -1.0158
13205SOL    HW244463   6.419   3.149   7.215  0.7173 -2.6538  0.0590
13206SOL     OW44464   2.493   2.967   7.535 -0.8048 -0.7001  0.2521
13206SOL    HW144465   2.517   2.886   7.489 -1.0340 -0.3502 -0.4899
13206SOL    HW244466   2.436   2.938   7.606  0.1668 -1.3261  0.7874
13207SOL     OW44467   4.723   1.492   8.994 -0.5354 -0.2630  0.0839
13207SOL    HW144468   4.633   1.523   8.990 -1.2270 -2.3996 -2.1842
13207SOL    HW244469   4.722   1.424   9.062 -1.5094 -2.7638 -2.3350
13208SOL     OW44470   5.731   2.897   7.235 -0.0946 -0.1663 -0.2012
13208SOL    HW144471   5.708   2.912   7.143  4.1600  1.8063 -1.0616
13208SOL    HW244472   5.761   2.806   7.237  0.3846 -0.0272 -0.8960
13209SOL     OW44473   3.940   2.948   9.654 -0.4962  0.2061 -0.2236
13209SOL    HW144474   3.871   2.889   9.685 -0.0020 -0.2407  0.0108
13209SOL    HW244475   3.909   3.035   9.679 -0.5207 -0.0765  0.7281
13210SOL     OW44476   4.237   3.363   8.678 -0.1557  0.0039  0.3224
13210SOL    HW144477   4.302   3.433   8.675 -0.8393  0.7153  1.4393
13210SOL    HW244478   4.274   3.298   8.737  0.0312 -0.1061  0.0817
13211SOL     OW44479   4.766   3.384   0.396 -0.3637  0.4274 -0.1443
13211SOL    HW144480   4.727   3.297   0.407 -0.6249  0.6256  0.4729
13211SOL    HW244481   4.773   3.394   0.301 -1.2304  0.1338 -0.2442
13212SOL     OW44482   3.972   2.450   8.281  0.5144  0.1892  0.2089
13212SOL    HW144483   3.881   2.432   8.257  0.4259  0.3544  0.4182
13212SOL    HW244484   4.023   2.415   8.208  0.1924  1.4436 -0.6378
13213SOL     OW44485   4.257   3.110   9.516 -0.1768  0.0330  0.1605
13213SOL    HW144486   4.240   3.073   9.603 -0.8074  0.9438  0.4307
13213SOL    HW244487   4.343   3.151   9.524  0.8902 -2.0248 -0.3650
13214SOL     OW44488   2.137   1.831   8.107  0.0223  0.2759 -0.1847
13214SOL    HW144489   2.169   1.813   8.195 -0.7131  0.2878  0.0866
13214SOL    HW244490   2.043   1.847   8.118 -1.0353 -4.2206 -1.4944
13215SOL     OW44491   4.175   3.020   9.764  0.0389 -0.3641  0.6241
13215SOL    HW144492   4.147   3.059   9.847  2.1308 -2.1458  2.2276
13215SOL    HW244493   4.097   2.976   9.731 -1.3456  1.9910  0.6437
13216SOL     OW44494   4.915   2.150   0.021 -0.0072  0.0942  0.0471
13216SOL    HW144495   4.926   2.102  -0.060  1.7321  1.8406 -0.7911
13216SOL    HW244496   4.940   2.240  -0.000 -3.0719  1.4086  1.5707
13217SOL     OW44497   4.280   2.043   7.527  0.2183  0.0457  0.3315
13217SOL    HW144498   4.243   2.072   7.443 -1.9358  0.6361  1.4471
13217SOL    HW244499   4.218   1.977   7.559  0.0793  1.0939  2.2928
13218SOL     OW44500   3.369   2.699   8.943 -0.7460  1.0440  0.3421
13218SOL    HW144501   3.389   2.785   8.906  1.7007  1.0202  1.5408
13218SOL    HW244502   3.321   2.654   8.874 -1.4151  3.0949 -0.5811
13219SOL     OW44503   4.149   3.244   7.238  0.2365 -0.2054  0.2043
13219SOL    HW144504   4.197   3.188   7.176 -0.8334  0.1806 -0.9877
13219SOL    HW244505   4.131   3.324   7.189 -0.3028  0.2488  1.1370
13220SOL     OW44506   2.903   4.544   7.650  0.3478 -0.9362 -0.3264
13220SOL    HW144507   2.920   4.601   7.725 -0.7587 -1.3684  0.2692
13220SOL    HW244508   2.935   4.458   7.679  2.3952 -0.5605 -1.3745
13221SOL     OW44509   6.592   2.221   7.244 -0.0293  0.1903  0.1901
13221SOL    HW144510   6.600   2.194   7.152 -1.4515 -0.6976  0.3130
13221SOL    HW244511   6.594   2.138   7.292  0.7397  0.6574  0.9769
13222SOL     OW44512   5.592   4.464   9.993  0.4948 -1.1237 -0.5061
13222SOL    HW144513   5.640   4.536   9.952 -0.9120  0.8511  1.2217
13222SOL    HW244514   5.530   4.435   9.925 -0.6877  1.0120 -0.3664
13223SOL     OW44515   3.487   2.376   7.829  0.1584 -0.3856  0.2408
13223SOL    HW144516   3.435   2.455   7.815  0.2888  0.0685  2.1550
13223SOL    HW244517   3.539   2.395   7.908  0.4692 -2.2251  0.5058
13224SOL     OW44518   6.136   3.303   7.817  0.6297 -0.0613 -0.0752
13224SOL    HW144519   6.056   3.321   7.865  1.1498 -0.0865  0.8221
13224SOL    HW244520   6.112   3.235   7.754  0.1990 -0.8429  0.9143
13225SOL     OW44521   5.127   4.407   9.240  0.1604 -0.4030 -0.0473
13225SOL    HW144522   5.048   4.394   9.293  0.7881 -2.3737  0.4552
13225SOL    HW244523   5.187   4.455   9.298  1.1935 -3.3540  1.4492
13226SOL     OW44524   3.889   2.420   6.636 -0.3753 -0.2486 -0.2594
13226SOL    HW144525   3.795   2.405   6.640 -0.5260  0.5287 -0.9066
13226SOL    HW244526   3.916   2.386   6.551 -0.1240 -0.2049 -0.1993
13227SOL     OW44527   3.984   1.675   9.423 -0.1281  0.3206 -0.0218
13227SOL    HW144528   3.900   1.720   9.420 -1.4803 -2.2809 -1.6905
13227SOL    HW244529   3.966   1.585   9.397  2.9046 -0.7109  1.1200
13228SOL     OW44530   7.260   2.490   7.863 -0.1594 -0.1418 -0.6904
13228SOL    HW144531   7.322   2.530   7.925 -0.5044  0.7010 -0.8905
13228SOL    HW244532   7.234   2.562   7.805 -0.8282 -0.6447 -1.0147
13229SOL     OW44533   3.461   2.857   8.413  0.0432 -0.1444 -0.2952
13229SOL    HW144534   3.417   2.804   8.480  0.0797 -0.0619 -0.2046
13229SOL    HW244535   3.398   2.865   8.342  0.3561 -1.0265 -0.6753
13230SOL     OW44536   5.124   0.802   7.273 -0.1091  0.1439 -0.4365
13230SOL    HW144537   5.129   0.898   7.279 -0.4192  0.2010 -1.0603
13230SOL    HW244538   5.212   0.772   7.297 -0.4534  0.4914  1.3669
13231SOL     OW44539   4.016   3.411   6.983 -0.4260 -1.0168 -0.0102
13231SOL    HW144540   4.012   3.460   6.901  1.2884 -0.5653  0.1541
13231SOL    HW244541   3.998   3.320   6.958  0.9071 -1.0152 -1.0176
13232SOL     OW44542   3.548   2.036   8.335 -0.2986  0.0179  0.1702
13232SOL    HW144543   3.547   2.098   8.262 -1.7640 -0.7575 -0.4998
13232SOL    HW244544   3.604   2.077   8.401  0.3545  1.1246 -1.0473
13233SOL     OW44545   3.413   2.842   7.218  0.8514  0.0326  0.2443
13233SOL    HW144546   3.418   2.857   7.312  1.8675 -1.0499  0.3705
13233SOL    HW244547   3.414   2.931   7.180  1.7105  0.4483  1.2034
13234SOL     OW44548   4.635   3.537   8.439 -0.3634 -0.4884 -0.1623
13234SOL    HW144549   4.698   3.514   8.371 -1.0692 -0.0395 -0.9800
13234SOL    HW244550   4.550   3.531   8.396 -0.9974 -2.6094  1.3497
13235SOL     OW44551   2.799   1.626   7.129 -0.2671  0.1077 -0.1428
13235SOL    HW144552   2.884   1.638   7.087 -0.3366  1.7208  0.1467
13235SOL    HW244553   2.816   1.644   7.222 -0.1850 -3.0764  0.5030
13236SOL     OW44554   4.667   2.933   9.366  0.3088  0.0553  0.6617
13236SOL    HW144555   4.715   2.852   9.381  2.0454  0.6483 -1.4754
13236SOL    HW244556   4.619   2.917   9.284  0.7245  1.2130  0.1894
13237SOL     OW44557   4.745   2.573   6.977  0.2963 -0.2680 -0.0270
13237SOL    HW144558   4.749   2.608   6.889  0.9700 -0.6460 -0.1498
13237SOL    HW244559   4.686   2.497   6.970  0.8753 -0.6936 -0.2877
13238SOL     OW44560   5.501   1.970   8.768 -0.5540 -0.7830 -0.5395
13238SOL    HW144561   5.440   1.941   8.701 -1.5241 -1.4307  0.6003
13238SOL    HW244562   5.566   1.900   8.773 -0.1872 -0.4921 -1.1522
13239SOL     OW44563   4.457   5.291   0.252 -0.2372 -0.2626  0.3469
13239SOL    HW144564   4.505   5.243   0.319  1.5500  2.1721  0.8748
13239SOL    HW244565   4.495   5.379   0.253 -1.1105  0.2334 -2.8914
13240SOL     OW44566   3.673   1.709   7.168  0.6159 -0.4400 -0.1307
13240SOL    HW144567   3.612   1.752   7.228 -1.8801 -0.5103 -2.5309
13240SOL    HW244568   3.689   1.623   7.207 -1.7924 -0.8747 -0.0421
13241SOL     OW44569   5.015   1.111   7.811 -0.2798  0.2419 -0.1723
13241SOL    HW144570   5.052   1.089   7.897  0.4292 -0.0086 -0.5434
13241SOL    HW244571   5.000   1.026   7.769  0.3011  0.3861 -0.6835
13242SOL     OW44572   4.829   2.062   7.701 -0.7819  0.2231 -0.0226
13242SOL    HW144573   4.759   1.997   7.696 -1.1904  0.7255 -0.8705
13242SOL    HW244574   4.899   2.026   7.647 -1.0544  0.5496 -0.5888
13243SOL     OW44575   6.049   1.123   8.262  0.0142 -0.4181  0.5295
13243SOL    HW144576   6.041   1.123   8.167  0.3110  2.1520  0.4690
13243SOL    HW244577   6.109   1.194   8.281  1.3361 -2.0345  2.5643
13244SOL     OW44578   3.092   1.952   8.446 -0.7335 -0.3557  0.1806
13244SOL    HW144579   3.038   2.031   8.451  0.4097  0.4394  0.0323
13244SOL    HW244580   3.034   1.886   8.408 -0.8796  1.1759 -2.4166
13245SOL     OW44581   3.818   2.233   9.092 -0.3960  0.1992  0.6438
13245SOL    HW144582   3.798   2.223   8.998 -0.1113 -1.6350  0.7636
13245SOL    HW244583   3.733   2.225   9.135 -0.6654  2.0097  0.5000
13246SOL     OW44584   2.863   1.333   6.324  0.1720 -0.6996 -0.4244
13246SOL    HW144585   2.774   1.329   6.358  0.3328 -0.7594 -0.0044
13246SOL    HW244586   2.904   1.405   6.372 -0.0084  0.0995 -1.4778
13247SOL     OW44587   4.590   2.300   6.916 -0.7255 -1.2314 -0.4323
13247SOL    HW144588   4.567   2.298   6.823 -0.9524 -2.3718 -0.3681
13247SOL    HW244589   4.508   2.280   6.961 -0.8483  0.3572  0.0742
13248SOL     OW44590   5.775   1.812   6.886  0.3582  0.2813 -0.0764
13248SOL    HW144591   5.810   1.769   6.807  0.0093  1.3517 -0.8294
13248SOL    HW244592   5.853   1.850   6.928  0.3933  0.7918 -0.5892
13249SOL     OW44593   3.982   2.821   7.958  0.3628 -0.1530 -0.4208
13249SOL    HW144594   3.939   2.754   7.905  1.0608  0.7870 -2.1896
13249SOL    HW244595   3.968   2.792   8.049 -0.9989 -1.6646 -1.0932
13250SOL     OW44596   4.291   1.361   8.576 -0.4158 -0.5087 -0.0676
13250SOL    HW144597   4.316   1.333   8.664  3.0537  0.1267 -0.7735
13250SOL    HW244598   4.244   1.443   8.590 -1.5109 -1.3587  1.3167
13251SOL     OW44599   3.193   0.811   5.878 -0.6068 -0.5372  0.6984
13251SOL    HW144600   3.214   0.871   5.950  1.1341  2.7927 -2.4569
13251SOL    HW244601   3.277   0.772   5.855 -0.5904  0.7184 -1.4677
13252SOL     OW44602   3.593   3.382   8.145  0.0503  0.4561 -0.0120
13252SOL    HW144603   3.616   3.469   8.114  1.3294 -0.0468 -0.4968
13252SOL    HW244604   3.661   3.325   8.110 -1.2432 -0.8727 -0.4271
13253SOL     OW44605   7.224   2.303   9.702 -0.6814  0.0312  0.4298
13253SOL    HW144606   7.288   2.372   9.718 -1.3462  1.3117 -2.1441
13253SOL    HW244607   7.141   2.338   9.736 -0.3070 -1.1268  2.6449
13254SOL     OW44608   4.333   3.336   8.098 -0.0190 -0.2404  0.2861
13254SOL    HW144609   4.299   3.248   8.116 -0.2648 -0.2094 -0.0167
13254SOL    HW244610   4.255   3.389   8.082 -0.0176  0.5333  2.5592
13255SOL     OW44611   6.054   1.819   8.481 -0.5304 -0.4150  0.2114
13255SOL    HW144612   6.137   1.780   8.508 -0.9498  1.0306  3.8431
13255SOL    HW244613   5.991   1.747   8.487 -0.2934 -0.5247  1.6112
13256SOL     OW44614   5.292   2.958   6.260 -0.0595 -0.0660 -0.2113
13256SOL    HW144615   5.245   3.041   6.272  1.0931  0.5318  0.1912
13256SOL    HW244616   5.274   2.934   6.169 -0.2944  0.6887 -0.3734
13257SOL     OW44617   3.823   2.345   6.987  0.1112 -0.1952 -0.2648
13257SOL    HW144618   3.750   2.317   6.932  0.7017 -1.0166 -0.6376
13257SOL    HW244619   3.900   2.303   6.948  0.8194  0.8664 -0.0282
13258SOL     OW44620   5.850   2.006   8.590  0.3201 -0.2227  0.0265
13258SOL    HW144621   5.922   1.950   8.561  0.4585 -0.1063  0.1452
13258SOL    HW244622   5.796   2.019   8.512  0.8802  0.3766 -0.2636
13259SOL     OW44623   3.600   9.838   7.594 -0.2475 -0.0324  0.1529
13259SOL    HW144624   3.563   9.816   7.680 -2.2127  0.5511 -0.5262
13259SOL    HW244625   3.613   9.932   7.597 -1.1258  0.1143 -0.4941
13260SOL     OW44626   5.587   2.495   0.023 -0.2289  0.0173 -0.3091
13260SOL    HW144627   5.607   2.568   0.081 -0.3152  0.9678 -1.4583
13260SOL    HW244628   5.535   2.435   0.077  0.0264  0.6945  0.7061
13261SOL     OW44629   5.011   3.798   0.123 -0.1725  0.1366  0.0092
13261SOL    HW144630   4.986   3.706   0.111 -4.4345  1.0788  0.6862
13261SOL    HW244631   4.999   3.837   0.036  0.1357  0.3590  0.0681
13262SOL     OW44632   4.538   2.903   9.108 -0.5708 -0.7499  0.0411
13262SOL    HW144633   4.516   2.834   9.045 -2.3954 -1.9551  1.9163
13262SOL    HW244634   4.504   2.984   9.069 -1.1471 -1.3959 -0.8133
13263SOL     OW44635   6.769   3.156   6.885  0.1017 -0.0045  0.0209
13263SOL    HW144636   6.720   3.208   6.949 -1.0290 -0.2750 -0.6178
13263SOL    HW244637   6.850   3.206   6.871  0.6898 -0.2652  2.1566
13264SOL     OW44638   4.618   3.267   9.871 -0.1569  0.2415  0.6061
13264SOL    HW144639   4.646   3.353   9.841 -0.6369  0.4507  0.7433
13264SOL    HW244640   4.527   3.260   9.843 -0.3666  0.1091  1.2992
13265SOL     OW44641   5.153   3.351   9.643  0.1655  0.1066 -0.2931
13265SOL    HW144642   5.203   3.315   9.570 -1.0762  0.5357 -1.3753
13265SOL    HW244643   5.213   3.412   9.686  0.7187  0.2494 -1.2762
13266SOL     OW44644   4.394   1.893   8.215 -0.2276  0.2823 -0.4974
13266SOL    HW144645   4.305   1.861   8.204 -0.9234  2.2957 -1.0350
13266SOL    HW244646   4.448   1.838   8.158 -1.4811  0.5992 -1.9963
13267SOL     OW44647   5.950   2.324   6.977 -0.0874 -0.3090 -0.0656
13267SOL    HW144648   5.893   2.391   7.015 -0.8250 -1.7742  1.4624
13267SOL    HW244649   5.988   2.278   7.052 -0.7105 -2.5399 -1.0672
13268SOL     OW44650   4.657   2.432   7.408 -0.0363  0.2056  0.2872
13268SOL    HW144651   4.658   2.339   7.430  1.8922 -0.2051 -1.4372
13268SOL    HW244652   4.565   2.458   7.420 -0.6416 -1.9496  0.5980
13269SOL     OW44653   3.490   3.662   8.948 -0.4191  0.3249 -0.0615
13269SOL    HW144654   3.434   3.720   9.001 -0.7947  0.2362 -0.3615
13269SOL    HW244655   3.579   3.695   8.962 -0.7637  1.8519 -1.3464
13270SOL     OW44656   4.710   3.194   8.368  0.1877  0.0500 -0.2115
13270SOL    HW144657   4.792   3.244   8.363  0.7354 -0.7173  0.8479
13270SOL    HW244658   4.667   3.210   8.284  0.3468  2.2875  0.1066
13271SOL     OW44659   3.953   2.507   8.904  0.1622 -0.0417 -0.8151
13271SOL    HW144660   3.951   2.434   8.841 -0.9556  1.6200 -2.7723
13271SOL    HW244661   4.025   2.562   8.874 -0.2534  0.6689 -0.5046
13272SOL     OW44662   4.280   3.859   1.098  0.1008  0.0706  0.2163
13272SOL    HW144663   4.246   3.919   1.032 -0.7080 -1.6818 -0.9635
13272SOL    HW244664   4.275   3.909   1.180 -2.9755  0.7290 -0.3372
13273SOL     OW44665   4.485   3.175   0.080  0.4906  0.4025  0.2102
13273SOL    HW144666   4.549   3.206   0.016  0.2583 -1.0535 -0.7584
13273SOL    HW244667   4.410   3.233   0.069 -0.5641 -1.3900 -2.7099
13274SOL     OW44668   5.492   1.291   8.099  0.8841  0.1219  0.9630
13274SOL    HW144669   5.426   1.244   8.047  2.0784  0.7497 -1.1805
13274SOL    HW244670   5.570   1.235   8.096  0.9222  0.0841  2.2593
13275SOL     OW44671   6.119   4.177   8.778 -0.7234 -0.0367 -0.0202
13275SOL    HW144672   6.055   4.242   8.809  0.4058 -0.2666  3.0338
13275SOL    HW244673   6.201   4.204   8.819  0.2754 -2.0161 -0.6664
13276SOL     OW44674   5.723   0.657   9.830  0.2342 -0.7237 -0.0808
13276SOL    HW144675   5.723   0.679   9.737  1.7783  1.5187  0.4072
13276SOL    HW244676   5.630   0.653   9.853 -0.1623  0.8423 -1.2742
13277SOL     OW44677   3.982   2.142   9.624  0.0700 -0.2293  0.5490
13277SOL    HW144678   3.903   2.137   9.570  1.0274 -1.5702 -0.7646
13277SOL    HW244679   3.954   2.188   9.702 -1.4354  1.4879 -0.9500
13278SOL     OW44680   2.742   2.051   9.289 -0.4537 -0.3560  0.3277
13278SOL    HW144681   2.830   2.086   9.304 -0.9752  1.2389 -0.2529
13278SOL    HW244682   2.689   2.128   9.269 -1.8846 -1.3637  0.2245
13279SOL     OW44683   4.615   1.648   7.718  0.3338  0.2549 -0.2772
13279SOL    HW144684   4.644   1.672   7.806  1.5770 -1.5961 -0.1701
13279SOL    HW244685   4.551   1.578   7.731  0.5414 -0.0477 -0.8539
13280SOL     OW44686   4.903   2.169   8.520 -0.2924  0.5306 -0.6472
13280SOL    HW144687   4.837   2.102   8.540 -0.1748  0.4603 -0.4962
13280SOL    HW244688   4.952   2.180   8.601  0.9863 -0.6431 -1.2317
13281SOL     OW44689   6.079   2.440   6.684 -0.3318 -0.1460 -0.1337
13281SOL    HW144690   6.099   2.500   6.613 -1.5420 -0.8719 -1.1044
13281SOL    HW244691   6.157   2.443   6.741 -0.0160  1.6151 -0.6414
13282SOL     OW44692   2.866   1.156   9.742 -0.2432  0.0251 -0.5776
13282SOL    HW144693   2.876   1.065   9.771  0.9110  0.7409  1.3298
13282SOL    HW244694   2.774   1.176   9.761 -0.0826 -0.2295  0.4737
13283SOL     OW44695   4.489   2.219   8.956 -0.6089  0.2424  0.2301
13283SOL    HW144696   4.521   2.129   8.946 -0.3521  0.2532  0.9433
13283SOL    HW244697   4.410   2.211   9.008  0.3839  0.5920  1.8300
13284SOL     OW44698   3.925   1.818   8.033 -0.0597  0.2073 -0.0371
13284SOL    HW144699   3.882   1.844   7.951 -0.4981 -0.0479  0.1135
13284SOL    HW244700   3.985   1.890   8.051 -1.0735  1.0003  0.2286
13285SOL     OW44701   5.335   3.301   8.652  0.4154  0.0503  0.0569
13285SOL    HW144702   5.374   3.365   8.710  1.2966  0.6930 -1.2285
13285SOL    HW244703   5.367   3.217   8.684  1.8749  0.4828 -0.2186
13286SOL     OW44704   3.099   1.646   8.491  0.0360 -0.6618  0.3059
13286SOL    HW144705   3.030   1.688   8.439 -1.0006 -1.4954  0.9882
13286SOL    HW244706   3.160   1.612   8.426  0.1560  0.6646 -0.2903
13287SOL     OW44707   4.387   1.796   5.354 -0.0481 -0.2615  0.1853
13287SOL    HW144708   4.367   1.775   5.445 -0.9065  0.1357  0.0956
13287SOL    HW244709   4.482   1.808   5.352  0.0150 -0.6364  0.9492
13288SOL     OW44710   5.809   2.568   9.442 -1.1880  0.1027  0.5621
13288SOL    HW144711   5.814   2.598   9.533 -2.7845  1.3939  0.2539
13288SOL    HW244712   5.766   2.483   9.447 -2.0780  0.5695  0.9443
13289SOL     OW44713   4.930   2.684   9.135  0.3288  0.2590 -0.0964
13289SOL    HW144714   4.851   2.677   9.081 -0.3718  0.3974  0.9140
13289SOL    HW244715   4.913   2.758   9.193  0.8069 -0.3269  0.7920
13290SOL     OW44716   6.403   1.228   7.220 -0.3372 -0.4984  0.2162
13290SOL    HW144717   6.471   1.186   7.273 -0.1245 -0.5770 -0.1227
13290SOL    HW244718   6.417   1.322   7.233  0.3275 -0.5001 -0.4804
13291SOL     OW44719   4.040   3.819   0.649  0.0388  0.1671 -0.5638
13291SOL    HW144720   3.946   3.815   0.668 -0.0656  1.9441 -0.6059
13291SOL    HW244721   4.049   3.777   0.563 -0.8151  0.5487 -0.8485
13292SOL     OW44722   4.981   2.694   7.831  0.1132  0.0052 -0.3249
13292SOL    HW144723   4.981   2.640   7.752  0.2467  0.3698 -0.5731
13292SOL    HW244724   4.896   2.678   7.870  0.6678 -1.4254  0.3133
13293SOL     OW44725   3.572   2.310   8.506  0.0699  0.0176 -0.3992
13293SOL    HW144726   3.615   2.234   8.545 -0.6932 -0.7903 -1.1085
13293SOL    HW244727   3.479   2.287   8.505 -0.0734  0.6051 -1.4230
13294SOL     OW44728   5.210   1.892   8.872 -0.1558  0.0803 -0.0595
13294SOL    HW144729   5.187   1.982   8.851  0.4556  0.0671 -0.8069
13294SOL    HW244730   5.216   1.848   8.787  0.2515 -0.4849  0.2573
13295SOL     OW44731   4.511   3.414   8.823 -0.0518  0.6877 -0.2921
13295SOL    HW144732   4.446   3.442   8.888  0.8162  1.4103  0.2681
13295SOL    HW244733   4.592   3.457   8.850  0.6787 -0.2582 -0.9565
13296SOL     OW44734   3.391   2.037   7.648 -0.0429 -0.2959 -0.0806
13296SOL    HW144735   3.358   1.986   7.575 -1.9172 -0.3218  0.7512
13296SOL    HW244736   3.404   2.125   7.612 -0.3722 -0.4546 -0.5872
13297SOL     OW44737   5.310   3.387   8.397  0.2509 -0.1194  0.1351
13297SOL    HW144738   5.244   3.455   8.410 -1.4071 -1.6151 -0.3146
13297SOL    HW244739   5.327   3.352   8.485 -0.8150 -0.8737  0.0508
13298SOL     OW44740   4.931   2.936   9.240  0.0225 -0.2591  0.6531
13298SOL    HW144741   4.855   2.970   9.288 -1.3986 -0.8021 -1.1806
13298SOL    HW244742   4.927   2.978   9.154  1.0192 -1.3347  0.0565
13299SOL     OW44743   4.502   2.133   5.547  0.1230  0.4858  0.0836
13299SOL    HW144744   4.443   2.081   5.493  2.6832 -1.3447 -1.0521
13299SOL    HW244745   4.572   2.161   5.488  0.9769  1.7003  1.6033
13300SOL     OW44746   4.615   3.183   7.742  0.2242 -0.1826 -0.5506
13300SOL    HW144747   4.627   3.129   7.820 -1.7837 -0.7901 -0.6255
13300SOL    HW244748   4.704   3.196   7.707  1.4077  1.9803  3.0298
13301SOL     OW44749   4.808   3.080   7.926  0.4620 -0.0496  0.4594
13301SOL    HW144750   4.857   3.158   7.954 -0.4531  0.7223 -0.0651
13301SOL    HW244751   4.803   3.026   8.004  1.4223  0.2460  0.7406
13302SOL     OW44752   3.139   2.175   9.081  0.5980 -0.0028 -0.7114
13302SOL    HW144753   3.111   2.086   9.061 -1.1506 -0.2053  2.4275
13302SOL    HW244754   3.066   2.230   9.054  0.2552  0.1609  0.5357
13303SOL     OW44755   2.673   2.340   8.318 -0.9442 -0.1718 -0.6657
13303SOL    HW144756   2.659   2.366   8.409 -0.8935  2.1822 -1.3096
13303SOL    HW244757   2.661   2.245   8.319  2.3533 -0.6977  2.4528
13304SOL     OW44758   3.111   1.627   0.574  0.3537  0.6454  0.3437
13304SOL    HW144759   3.070   1.550   0.536  1.2857  1.1479 -1.7516
13304SOL    HW244760   3.039   1.678   0.610 -0.3924 -0.5793  0.5801
13305SOL     OW44761   3.200   1.050   8.335 -0.1449 -0.0999  0.4064
13305SOL    HW144762   3.181   0.980   8.272 -1.0032  1.1699 -0.7607
13305SOL    HW244763   3.142   1.031   8.410  0.3195 -1.1699  0.5057
13306SOL     OW44764   5.082   1.609   8.980 -0.3587  0.3274  0.5349
13306SOL    HW144765   5.083   1.519   9.010 -0.6617  0.0835 -0.1810
13306SOL    HW244766   5.099   1.604   8.886 -0.4805  1.0045  0.4702
13307SOL     OW44767   2.557   5.499   9.282 -0.1587  0.0841 -0.0535
13307SOL    HW144768   2.468   5.527   9.260 -0.5940  1.6392  3.2791
13307SOL    HW244769   2.563   5.409   9.250 -2.8834  0.0003 -0.4558
13308SOL     OW44770   4.434   2.295   8.378 -0.0053  0.0509  0.3017
13308SOL    HW144771   4.479   2.267   8.298 -0.3357 -2.0589  0.8274
13308SOL    HW244772   4.458   2.229   8.443  0.0058  1.5887  1.8690
13309SOL     OW44773   4.271   3.191   8.420  0.1327 -0.7017  0.2322
13309SOL    HW144774   4.180   3.163   8.431  0.3539 -1.0579  1.2636
13309SOL    HW244775   4.281   3.262   8.484  0.3797 -0.1862 -0.3774
13310SOL     OW44776   4.825   3.085   7.403 -0.8845 -0.1168  0.0915
13310SOL    HW144777   4.821   3.133   7.485  0.2144 -3.2423  2.0561
13310SOL    HW244778   4.916   3.092   7.375 -0.9971 -0.0553 -0.2723
13311SOL     OW44779   3.546   2.542   9.142 -0.1490  0.7744 -1.1080
13311SOL    HW144780   3.485   2.469   9.155  0.5227  0.1716 -1.3324
13311SOL    HW244781   3.494   2.608   9.096 -1.2456  1.1183  0.5813
13312SOL     OW44782   6.272   2.997   8.443  0.0551  0.1536  0.0164
13312SOL    HW144783   6.285   3.009   8.537 -0.5630  1.9338 -0.0995
13312SOL    HW244784   6.194   2.940   8.437  0.0601  0.0845  0.5712
13313SOL     OW44785   5.850   3.175   8.787 -0.1926 -0.6874 -1.0766
13313SOL    HW144786   5.832   3.239   8.718 -0.7420 -0.2228 -0.5094
13313SOL    HW244787   5.776   3.184   8.847  0.9085 -0.2061  0.2355
13314SOL     OW44788   4.554   3.017   8.054  0.2585 -0.0082 -0.6323
13314SOL    HW144789   4.503   2.953   8.005  2.1622 -1.0472 -1.2960
13314SOL    HW244790   4.608   2.965   8.114 -1.0365  1.1707  1.6617
13315SOL     OW44791   6.259   5.646   8.273 -0.0246 -0.5206 -0.5867
13315SOL    HW144792   6.195   5.715   8.291  2.1314  1.2608  0.4145
13315SOL    HW244793   6.332   5.691   8.231  2.4095 -1.7776  2.1342
13316SOL     OW44794   3.504   1.794   7.373  0.6196 -0.3479 -0.0332
13316SOL    HW144795   3.512   1.888   7.362  2.2762 -0.6804 -1.9058
13316SOL    HW244796   3.412   1.781   7.395  0.2767  1.6722 -0.1545
13317SOL     OW44797   3.753   4.638   9.910  0.1020 -0.1310  0.3793
13317SOL    HW144798   3.812   4.694   9.859 -1.3137  0.9081 -0.1639
13317SOL    HW244799   3.707   4.699   9.968 -0.1726 -0.9727  1.0538
13318SOL     OW44800   5.405   2.072   8.240 -0.3096  0.5182 -0.1131
13318SOL    HW144801   5.316   2.048   8.217 -0.4433 -0.3623  1.2333
13318SOL    HW244802   5.421   2.154   8.193 -1.2475 -0.1531 -1.6454
13319SOL     OW44803   2.508   3.795   7.280  0.0131  0.2379 -0.3188
13319SOL    HW144804   2.600   3.820   7.291 -0.2360  1.3093 -0.5933
13319SOL    HW244805   2.469   3.869   7.233 -0.6659 -0.8325 -1.4846
13320SOL     OW44806   3.959   4.067   9.118 -0.1816  0.0040  0.1172
13320SOL    HW144807   4.031   4.117   9.080  1.5860 -1.4036  1.5295
13320SOL    HW244808   3.904   4.133   9.161  1.2139  0.9311  0.5231
13321SOL     OW44809   5.479   3.252   8.964 -0.4083 -0.0809 -0.1275
13321SOL    HW144810   5.540   3.320   8.937 -1.6654  0.6041 -1.3359
13321SOL    HW244811   5.487   3.184   8.897 -0.8530 -0.0480 -0.2202
13322SOL     OW44812   3.620   4.958   8.832  0.2745 -0.3700  0.2536
13322SOL    HW144813   3.562   4.977   8.906 -0.9508 -1.4652 -0.4067
13322SOL    HW244814   3.601   4.867   8.809  3.8514 -1.5189  1.4319
13323SOL     OW44815   3.466   2.481   5.925 -0.0582  1.0255 -0.1451
13323SOL    HW144816   3.410   2.468   6.002 -2.3934 -0.2624 -1.9691
13323SOL    HW244817   3.523   2.404   5.924 -1.6136 -0.1424 -0.9596
13324SOL     OW44818   4.588   2.472   8.138  0.9164 -0.0268 -0.3666
13324SOL    HW144819   4.620   2.399   8.190 -2.1611 -2.2173 -1.3763
13324SOL    HW244820   4.535   2.523   8.198  2.2251  0.8037  0.0891
13325SOL     OW44821   4.200   2.805   8.449 -0.1683  0.2050 -0.0690
13325SOL    HW144822   4.284   2.813   8.494 -0.2611 -3.5759  0.8974
13325SOL    HW244823   4.144   2.755   8.508 -2.1828  0.1602 -1.9132
13326SOL     OW44824   5.342   1.930   5.551  0.0119  0.1349 -0.2821
13326SOL    HW144825   5.254   1.927   5.513 -0.6373  3.7454  0.7486
13326SOL    HW244826   5.391   1.990   5.495  1.7286 -1.4538 -0.5453
13327SOL     OW44827   5.083   2.216   8.853  0.0421 -0.2520 -0.0201
13327SOL    HW144828   5.049   2.217   8.943 -1.1139 -1.5726 -0.4340
13327SOL    HW244829   5.029   2.151   8.808  0.6044  0.4213 -1.6775
13328SOL     OW44830   5.852   2.390   7.909 -0.2724  0.1414 -0.2243
13328SOL    HW144831   5.860   2.430   7.822 -0.4044 -0.9110 -0.7181
13328SOL    HW244832   5.825   2.300   7.892 -2.7808  0.6240  1.0019
13329SOL     OW44833   5.775   2.033   7.912 -0.2300 -0.1193 -0.0462
13329SOL    HW144834   5.779   1.961   7.850 -1.4094 -0.6265  0.4520
13329SOL    HW244835   5.688   2.026   7.952 -0.0650  1.1064  0.5662
13330SOL     OW44836   4.120   3.150   9.997 -0.2043  0.2714  0.8171
13330SOL    HW144837   4.070   3.126  10.075  0.1770  1.1278  1.3293
13330SOL    HW244838   4.172   3.225  10.024 -0.1786  0.6656 -0.3172
13331SOL     OW44839   6.169   2.422   0.199 -0.4624 -0.3742 -0.2604
13331SOL    HW144840   6.157   2.397   0.107 -0.9856  0.6905 -0.4827
13331SOL    HW244841   6.249   2.376   0.225 -0.1015 -0.3992 -1.3549
13332SOL     OW44842   4.482   2.729   7.051  0.3290  0.0704  0.0448
13332SOL    HW144843   4.476   2.713   7.145 -1.6240  1.2713  0.1497
13332SOL    HW244844   4.570   2.762   7.038  0.1456  1.2963  1.7005
13333SOL     OW44845   3.178   2.963   7.883 -0.0878 -0.3272 -0.0544
13333SOL    HW144846   3.094   2.925   7.855 -0.5886  0.9670 -0.3203
13333SOL    HW244847   3.188   3.041   7.829  0.9762 -0.1027  0.4597
13334SOL     OW44848   3.170   3.921   6.501  0.6655 -0.5114 -0.3637
13334SOL    HW144849   3.114   3.844   6.505  0.6967 -0.5203 -0.1087
13334SOL    HW244850   3.259   3.888   6.513  0.4853 -0.1628  2.3307
13335SOL     OW44851   5.901   2.956   9.756  0.6933  0.2625 -0.6573
13335SOL    HW144852   5.925   2.886   9.817  1.4486  1.2014  0.1425
13335SOL    HW244853   5.933   3.036   9.797 -0.0293  1.0733 -1.6315
13336SOL     OW44854   2.732   2.129   7.398  0.5296  0.0302  0.1332
13336SOL    HW144855   2.751   2.036   7.391  0.8521  0.0670  0.4603
13336SOL    HW244856   2.797   2.171   7.341  1.2796  0.1399  1.0497
13337SOL     OW44857   2.325   3.525   8.454  0.2421 -0.0231 -0.0829
13337SOL    HW144858   2.380   3.512   8.377 -0.2872 -1.1120 -0.2794
13337SOL    HW244859   2.258   3.457   8.448 -0.4519  0.5775  0.7596
13338SOL     OW44860   3.527   1.415   8.223  0.2958  0.2448  0.1613
13338SOL    HW144861   3.549   1.500   8.185  1.4749 -0.0261  0.2307
13338SOL    HW244862   3.609   1.384   8.262 -0.1660 -0.8492  0.2758
13339SOL     OW44863   4.760   2.141   0.456 -0.6646  0.7823  0.2307
13339SOL    HW144864   4.736   2.097   0.374  0.0933  1.5371 -0.4092
13339SOL    HW244865   4.678   2.178   0.489 -1.1905 -0.5393  0.4394
13340SOL     OW44866   4.313   1.494   7.523 -0.2649  0.2757 -0.4319
13340SOL    HW144867   4.367   1.459   7.594  0.7136 -0.2272 -1.4202
13340SOL    HW244868   4.239   1.535   7.568 -1.5085 -3.0807  0.8061
13341SOL     OW44869   5.373   2.932   5.693  0.2744 -0.1050  0.4158
13341SOL    HW144870   5.425   2.899   5.767  2.1051 -1.8906 -1.5899
13341SOL    HW244871   5.288   2.889   5.703  1.6474 -3.1592 -0.4314
13342SOL     OW44872   4.048   1.225   6.870 -0.0329 -0.1850  0.0578
13342SOL    HW144873   3.967   1.262   6.905  1.5565  2.1440  1.3898
13342SOL    HW244874   4.091   1.298   6.827  1.6665 -1.2477 -0.0992
13343SOL     OW44875   6.302   2.953   6.376 -0.1587  0.0633  0.6806
13343SOL    HW144876   6.231   2.997   6.332  0.6865  1.2476  0.4858
13343SOL    HW244877   6.259   2.889   6.433 -1.2639 -1.3043 -1.6142
13344SOL     OW44878   5.273   3.530   9.013  0.0633  0.1838  0.4737
13344SOL    HW144879   5.295   3.561   8.926 -1.1526  0.3863  0.2318
13344SOL    HW244880   5.263   3.610   9.065 -1.9158  0.1740  0.1309
13345SOL     OW44881   5.739   2.522   0.431  0.7015  0.3035  0.8454
13345SOL    HW144882   5.716   2.577   0.506 -0.6623  3.5123 -1.7946
13345SOL    HW244883   5.835   2.513   0.436  1.1281  4.1229  0.6206
13346SOL     OW44884   3.769   3.463   0.498 -0.4574  0.1149 -0.5249
13346SOL    HW144885   3.778   3.396   0.430 -0.9822 -0.6547  0.1409
13346SOL    HW244886   3.682   3.501   0.483 -0.8614 -0.5296  0.1134
13347SOL     OW44887   6.254   1.648   8.569  0.0779 -1.2739  0.4546
13347SOL    HW144888   6.283   1.645   8.660  0.7348 -0.6800  0.2702
13347SOL    HW244889   6.204   1.567   8.557  1.2942 -2.1036  0.8942
13348SOL     OW44890   5.031   1.466   7.428 -0.7000  0.6135  0.1853
13348SOL    HW144891   4.942   1.502   7.434 -1.1022 -0.4565  0.8172
13348SOL    HW244892   5.037   1.432   7.339 -1.8789 -1.6603  0.9143
13349SOL     OW44893   4.836   2.510   8.774 -0.8143  0.4626 -0.1713
13349SOL    HW144894   4.835   2.415   8.766  0.1851  0.3618  0.6857
13349SOL    HW244895   4.793   2.542   8.695 -0.4368 -0.6826 -0.8472
13350SOL     OW44896   6.231   2.200   6.549  0.3774  1.1554 -0.3744
13350SOL    HW144897   6.226   2.274   6.489 -0.4483  1.8477  0.5489
13350SOL    HW244898   6.147   2.198   6.594  1.0983  0.8463  1.0132
13351SOL     OW44899   5.692   2.899   7.714 -0.5064 -0.3200  0.8734
13351SOL    HW144900   5.609   2.920   7.757 -0.1130 -0.2683  1.6183
13351SOL    HW244901   5.741   2.850   7.780  1.0219  1.7214  1.2959
13352SOL     OW44902   4.800   2.488   7.921 -0.5254  0.1728 -0.2687
13352SOL    HW144903   4.855   2.411   7.909 -1.0565 -0.3345  0.5041
13352SOL    HW244904   4.736   2.462   7.988 -1.0608  1.0917 -0.4112
13353SOL     OW44905   4.187   2.649   8.870 -0.2634  0.3652  0.1509
13353SOL    HW144906   4.214   2.740   8.860  0.3836  0.3748  1.8590
13353SOL    HW244907   4.266   2.598   8.852  0.3152  0.3007  2.6695
13354SOL     OW44908   4.618   2.171   7.839 -0.2263 -0.6337 -0.2829
13354SOL    HW144909   4.684   2.162   7.770  1.0627 -1.5655  1.0225
13354SOL    HW244910   4.668   2.162   7.921 -1.7908 -0.0565  0.7556
13355SOL     OW44911   6.486   4.657   7.819  0.6269  0.1081  1.2934
13355SOL    HW144912   6.445   4.616   7.895 -2.0885 -0.4180 -0.3827
13355SOL    HW244913   6.523   4.584   7.769 -1.0278  0.0007  0.1647
13356SOL     OW44914   6.240   2.668   8.188  0.6856 -0.1738  0.2335
13356SOL    HW144915   6.263   2.593   8.244  2.1165 -1.1080 -1.5669
13356SOL    HW244916   6.174   2.634   8.129 -0.4551  0.6813  0.9982
13357SOL     OW44917   5.686   3.125   7.443 -0.0182  0.2253 -0.5588
13357SOL    HW144918   5.696   3.032   7.463  0.5717  0.7070  1.4597
13357SOL    HW244919   5.596   3.145   7.468  0.3036  0.5274  0.3531
13358SOL     OW44920   3.580   3.374   7.461  0.1075  0.7149  0.5168
13358SOL    HW144921   3.660   3.377   7.407 -0.2059 -0.8709 -0.0621
13358SOL    HW244922   3.609   3.338   7.544 -0.0536 -0.1160  0.2134
13359SOL     OW44923   3.531   3.265   8.391  0.8108 -0.1212 -0.1749
13359SOL    HW144924   3.446   3.222   8.385  0.8056 -0.3598  1.4489
13359SOL    HW244925   3.545   3.301   8.303 -0.2497 -1.4027 -0.9093
13360SOL     OW44926   4.463   1.985   9.186 -0.3131 -0.7620  0.2678
13360SOL    HW144927   4.498   1.963   9.100  1.2396 -0.2178  0.7355
13360SOL    HW244928   4.394   2.049   9.168  0.6440  0.0696 -0.5243
13361SOL     OW44929   4.984   2.971   7.730 -0.6852  0.3208 -0.0245
13361SOL    HW144930   4.906   2.989   7.782 -0.8362  1.2949 -0.5802
13361SOL    HW244931   5.029   2.901   7.778 -0.6377  1.4503  1.6218
13362SOL     OW44932   5.075   3.692   9.384 -0.5404  0.6880  0.1762
13362SOL    HW144933   5.066   3.727   9.473  0.3056 -0.0262  0.5515
13362SOL    HW244934   4.990   3.709   9.342 -0.7845  1.4414  0.9722
13363SOL     OW44935   4.325   1.999   8.762  0.4489  0.7829  0.4690
13363SOL    HW144936   4.329   1.913   8.719  0.5901  1.2805 -0.5303
13363SOL    HW244937   4.384   1.991   8.836  0.6333  0.0790  0.2543
13364SOL     OW44938   3.935   3.056   9.298 -0.4422 -0.0954  0.2199
13364SOL    HW144939   3.892   3.043   9.383 -1.8458  0.1402 -0.4378
13364SOL    HW244940   3.863   3.076   9.238  0.6696  0.9787 -0.7779
13365SOL     OW44941   4.436   3.138   8.950 -0.5636 -0.2524 -0.4832
13365SOL    HW144942   4.507   3.188   8.909 -1.2902 -1.0713 -2.8006
13365SOL    HW244943   4.397   3.088   8.879 -3.2790 -0.0803  0.8230
13366SOL     OW44944   3.308   4.140   7.443  0.4375  0.1190 -0.0627
13366SOL    HW144945   3.305   4.135   7.348  1.2524 -0.5366 -0.0550
13366SOL    HW244946   3.237   4.200   7.466 -1.1442 -1.3856 -0.9422
13367SOL     OW44947   3.884   4.816   0.196 -0.1951 -0.1052  0.4882
13367SOL    HW144948   3.918   4.760   0.266  0.1779  1.8471  1.9046
13367SOL    HW244949   3.929   4.786   0.117  0.5870 -1.2812  1.3623
13368SOL     OW44950   4.953   1.756   7.635 -0.0231 -0.4485 -0.2956
13368SOL    HW144951   5.008   1.679   7.627 -0.2716 -0.6091 -0.4407
13368SOL    HW244952   4.971   1.789   7.723  0.2981 -0.5046 -0.3399
13369SOL     OW44953   4.171   3.109   8.097  0.4347 -0.0501  0.6018
13369SOL    HW144954   4.229   3.042   8.135 -0.7710 -1.4709 -0.0111
13369SOL    HW244955   4.086   3.092   8.138  0.5432  2.3338  1.8620
13370SOL     OW44956   5.492   1.988   7.957 -0.2748  1.2260  0.6860
13370SOL    HW144957   5.439   1.980   8.036 -0.6511 -0.3704  0.2694
13370SOL    HW244958   5.460   2.068   7.916 -1.2938  1.1155  1.2357
13371SOL     OW44959   4.211   2.796   7.269 -0.0642  0.1766  0.2925
13371SOL    HW144960   4.120   2.809   7.242 -0.2794  0.2766  1.0692
13371SOL    HW244961   4.212   2.813   7.363  0.8580  0.6899  0.2016
13372SOL     OW44962   4.874   2.968   9.692  0.3388 -0.3725 -0.3585
13372SOL    HW144963   4.959   2.975   9.649  0.1344 -0.2795 -0.7450
13372SOL    HW244964   4.889   2.905   9.763  1.2425  1.1500  0.8341
13373SOL     OW44965   3.566   3.547   9.547 -0.0051 -0.9822  0.1370
13373SOL    HW144966   3.655   3.548   9.583 -0.1091 -2.1391  0.4278
13373SOL    HW244967   3.509   3.544   9.623 -0.2889 -0.4991 -0.0573
13374SOL     OW44968   5.250   1.751   8.640 -0.2595 -0.5764 -0.5786
13374SOL    HW144969   5.294   1.666   8.646 -1.2950 -1.0499  0.4074
13374SOL    HW244970   5.189   1.742   8.567  0.3043 -0.3623 -1.0802
13375SOL     OW44971   3.917   3.464   9.660  0.4773  0.0891  0.3269
13375SOL    HW144972   3.965   3.416   9.592  0.4350 -0.1981  0.5013
13375SOL    HW244973   3.853   3.402   9.694 -1.1621  0.9900 -1.0643
13376SOL     OW44974   4.628   3.504   0.846 -0.8364 -0.3720  0.1919
13376SOL    HW144975   4.590   3.533   0.764  0.9910  1.3465 -0.1013
13376SOL    HW244976   4.584   3.557   0.913  0.0259  0.6212 -0.0136
13377SOL     OW44977   3.834   1.883   9.603 -0.1434 -0.0874 -0.5082
13377SOL    HW144978   3.866   1.833   9.677 -1.7295 -1.4609 -0.7430
13377SOL    HW244979   3.749   1.845   9.582 -0.3935  1.2641 -2.0751
13378SOL     OW44980   2.800   3.927   9.805  0.9149 -0.7529 -0.2148
13378SOL    HW144981   2.771   3.845   9.847  0.8744 -0.8203 -0.3765
13378SOL    HW244982   2.719   3.973   9.785  0.9747  0.2748  1.7605
13379SOL     OW44983   6.424   2.303   8.611  0.2361 -0.1990 -0.1374
13379SOL    HW144984   6.334   2.335   8.611  0.5057  0.7420 -2.6633
13379SOL    HW244985   6.422   2.228   8.551  1.1322 -0.1403 -0.2458
13380SOL     OW44986   4.137   2.827   1.185 -0.0942 -0.1632 -0.4918
13380SOL    HW144987   4.214   2.864   1.143  0.3867  0.6416  1.0494
13380SOL    HW244988   4.135   2.867   1.272 -3.5619  1.6315 -1.2872
13381SOL     OW44989   3.085   4.640   9.712  0.4223 -0.5316  0.4335
13381SOL    HW144990   3.069   4.699   9.638 -0.2924 -0.4139  0.6751
13381SOL    HW244991   3.153   4.683   9.763  0.9028 -0.5998 -0.1383
13382SOL     OW44992   5.196   1.734   1.057 -0.2021  0.1598  0.3452
13382SOL    HW144993   5.238   1.782   0.986 -0.2913 -0.0226  0.1676
13382SOL    HW244994   5.269   1.697   1.108 -0.1512 -1.0047 -0.5478
13383SOL     OW44995   6.018   2.578   9.270  0.5151 -0.2797 -0.2752
13383SOL    HW144996   5.956   2.540   9.332 -1.6786  2.4248 -0.7310
13383SOL    HW244997   6.019   2.516   9.197  0.6243 -1.8327  1.0241
13384SOL     OW44998   5.547   0.776   8.260 -0.0759  0.6889 -0.3087
13384SOL    HW144999   5.580   0.856   8.220  1.2708  1.3407  2.0281
13384SOL    HW245000   5.452   0.788   8.264  0.1562  2.3098  0.3483
13385SOL     OW45001   6.616   3.063   9.318  0.4373  0.1687 -0.1993
13385SOL    HW145002   6.560   2.991   9.291  1.1942 -0.3592 -0.3664
13385SOL    HW245003   6.592   3.081   9.409  0.1152 -0.1575 -0.2209
13386SOL     OW45004   4.509   2.144   0.883  0.4885 -0.5788 -0.1444
13386SOL    HW145005   4.435   2.093   0.916 -1.6090  2.3510 -0.1776
13386SOL    HW245006   4.520   2.114   0.793 -0.4595 -1.2720 -0.0378
13387SOL     OW45007   5.746   2.592   8.425  0.8333  0.1304  0.0286
13387SOL    HW145008   5.739   2.591   8.520 -1.4382 -0.9871 -0.0998
13387SOL    HW245009   5.663   2.554   8.395  1.8254 -0.2345 -2.3734
13388SOL     OW45010   5.010   2.490   9.789 -0.3801  0.1139 -0.4594
13388SOL    HW145011   4.968   2.475   9.874 -1.8913  1.3923 -0.9459
13388SOL    HW245012   5.054   2.575   9.798 -2.5878  1.4448 -1.6742
13389SOL     OW45013   3.269   2.780   1.082 -0.1607 -0.2156 -0.0166
13389SOL    HW145014   3.346   2.755   1.031 -0.0191  0.7071 -0.2706
13389SOL    HW245015   3.255   2.872   1.059 -1.0748 -0.2608  0.3661
13390SOL     OW45016   7.079   0.066   0.129 -0.7757  0.4615  1.0791
13390SOL    HW145017   7.039   0.153   0.140 -1.7513  0.2148 -0.3193
13390SOL    HW245018   7.168   0.085   0.100 -0.6472  1.0064  1.8045
13391SOL     OW45019   5.213   2.029   9.121 -0.0088  0.3569  0.1129
13391SOL    HW145020   5.171   2.114   9.133 -0.5831 -0.1732  2.1894
13391SOL    HW245021   5.307   2.047   9.131 -0.1975  0.6108  1.5778
13392SOL     OW45022   5.819   4.081   9.094  0.0695 -0.3958  0.2111
13392SOL    HW145023   5.751   4.034   9.142 -0.1097  0.6494  0.9781
13392SOL    HW245024   5.895   4.023   9.098 -1.1719 -2.2378 -1.8975
13393SOL     OW45025   4.722   2.656   1.390  0.1863  0.7512  0.0139
13393SOL    HW145026   4.706   2.644   1.483 -0.1243 -0.5589 -0.1989
13393SOL    HW245027   4.640   2.633   1.348  0.4008  1.0902 -0.6053
13394SOL     OW45028   3.115   3.635   8.466 -0.0635 -0.3204  0.0283
13394SOL    HW145029   3.124   3.541   8.484 -2.5073 -0.3248  1.3977
13394SOL    HW245030   3.099   3.641   8.372  2.2485 -1.0920 -0.4471
13395SOL     OW45031   6.557   2.005   8.141  0.0889 -0.3399 -0.2985
13395SOL    HW145032   6.541   2.017   8.235  0.2173 -1.5842 -0.1004
13395SOL    HW245033   6.645   1.967   8.136  0.2039  0.0153 -0.9392
13396SOL     OW45034   5.087   2.774   1.415 -1.1992 -0.1754  0.5256
13396SOL    HW145035   5.175   2.751   1.444 -1.5969 -0.9849  1.0800
13396SOL    HW245036   5.072   2.861   1.453 -1.7323 -1.2382  2.7857
13397SOL     OW45037   6.119   1.830   1.917 -0.2113 -0.7552  0.4101
13397SOL    HW145038   6.062   1.904   1.895  1.1924  0.4010  0.5789
13397SOL    HW245039   6.062   1.768   1.961 -1.6229 -0.1891 -0.5904
13398SOL     OW45040   1.652   2.708   9.509  0.2551 -0.7318  0.1597
13398SOL    HW145041   1.698   2.625   9.523 -0.6755 -1.1778  0.6055
13398SOL    HW245042   1.560   2.684   9.511 -0.0105  0.2971  0.1196
13399SOL     OW45043   4.071   2.013   8.870 -0.0780  0.1125 -0.2372
13399SOL    HW145044   4.068   2.070   8.947  0.2207 -0.3008  0.0792
13399SOL    HW245045   4.163   1.992   8.859 -0.1583 -0.0951 -0.5135
13400SOL     OW45046   3.622   3.246   9.968  0.9117  0.2793 -0.1715
13400SOL    HW145047   3.642   3.154   9.980 -0.5122 -0.0871 -0.5325
13400SOL    HW245048   3.531   3.248   9.939  0.2052  1.9105  1.9811
13401SOL     OW45049   5.895   2.830   0.652  0.1580 -0.7671  0.2737
13401SOL    HW145050   5.812   2.868   0.623  1.2698  0.6516 -1.1547
13401SOL    HW245051   5.871   2.745   0.689 -1.7673 -1.1147 -1.6684
13402SOL     OW45052   3.241   2.598   7.538 -0.2047  0.0009 -0.5340
13402SOL    HW145053   3.197   2.650   7.472 -1.6900  1.8364  1.8136
13402SOL    HW245054   3.198   2.512   7.534 -1.3504  0.5850 -0.9068
13403SOL     OW45055   5.910   1.578   8.503 -0.1831  0.0270  0.1638
13403SOL    HW145056   5.949   1.498   8.537  0.7315 -0.8206 -2.7533
13403SOL    HW245057   5.819   1.574   8.532 -0.1211 -2.0355  0.1463
13404SOL     OW45058   5.514   2.544   1.171 -0.3622  0.0353  0.0088
13404SOL    HW145059   5.503   2.480   1.241  0.2091  0.1345  0.1922
13404SOL    HW245060   5.528   2.627   1.216  3.6319 -0.4538 -0.1334
13405SOL     OW45061   4.408   4.864   9.225 -0.9614 -0.1572 -0.4182
13405SOL    HW145062   4.336   4.912   9.265 -0.3881  1.1385 -0.9251
13405SOL    HW245063   4.409   4.892   9.134 -0.3026 -0.7550 -0.6016
13406SOL     OW45064   4.402   2.835   8.839 -0.7481  0.1128 -0.0343
13406SOL    HW145065   4.384   2.899   8.770 -0.1849 -0.7832 -1.0271
13406SOL    HW245066   4.488   2.799   8.817 -1.0237 -0.9344  0.5586
13407SOL     OW45067   4.027   2.102   0.687 -0.1380  0.0694  0.2635
13407SOL    HW145068   4.108   2.051   0.692 -0.2111 -0.0305  0.4077
13407SOL    HW245069   4.054   2.191   0.708 -0.1220 -0.0202  0.6273
13408SOL     OW45070   4.706   2.602   8.991  0.3851  0.0733 -0.2042
13408SOL    HW145071   4.756   2.523   8.977 -0.6422 -0.6802  0.3116
13408SOL    HW245072   4.628   2.574   9.039 -0.2349  1.3039 -0.4429
13409SOL     OW45073   5.965   2.134   0.406  0.5025 -0.0138 -0.3889
13409SOL    HW145074   5.947   2.041   0.415  1.2133  0.0312  1.5737
13409SOL    HW245075   5.953   2.151   0.312 -2.8282 -1.3918 -0.2642
13410SOL     OW45076   3.190   2.515   0.660  0.5708 -0.4500 -0.4502
13410SOL    HW145077   3.166   2.463   0.737  1.7177  1.7155  1.4192
13410SOL    HW245078   3.163   2.460   0.586 -1.2144 -2.2881  1.4538
13411SOL     OW45079   3.954   2.015   9.301 -0.0731 -0.0704 -0.4522
13411SOL    HW145080   4.022   2.050   9.242 -0.5525 -0.5620 -1.3084
13411SOL    HW245081   3.884   1.987   9.242  0.2292 -2.3527  0.2246
13412SOL     OW45082   2.766   4.192   9.551 -0.2835  0.1354 -0.2209
13412SOL    HW145083   2.793   4.104   9.526  1.6095 -0.2108  2.7755
13412SOL    HW245084   2.826   4.250   9.504  0.3328 -0.3212 -0.0093
13413SOL     OW45085   5.493   3.039   9.317  0.2428  0.0662 -0.6449
13413SOL    HW145086   5.411   2.997   9.290  0.0897  0.4377 -0.7509
13413SOL    HW245087   5.546   3.042   9.238  0.8842 -1.3827 -0.2951
13414SOL     OW45088   4.201   2.752   0.847  0.4044  0.1538  0.2898
13414SOL    HW145089   4.228   2.720   0.761 -1.9964  0.4695 -0.6022
13414SOL    HW245090   4.225   2.845   0.846  0.6954  0.0780  0.0840
13415SOL     OW45091   6.248   2.084   0.488 -0.1168  0.1873 -0.1186
13415SOL    HW145092   6.217   2.043   0.568  1.4140 -2.4690 -0.8381
13415SOL    HW245093   6.169   2.098   0.436 -0.8331 -0.3039  0.8335
13416SOL     OW45094   3.497   1.841   0.148 -0.3470 -0.4882  0.0833
13416SOL    HW145095   3.548   1.861   0.227 -0.2418  1.7950 -0.5390
13416SOL    HW245096   3.422   1.791   0.180  0.9411 -1.6863  1.3130
13417SOL     OW45097   6.335   1.460   0.058 -0.3586 -0.2407 -0.3781
13417SOL    HW145098   6.381   1.497  -0.017  0.3915 -1.1685 -0.3915
13417SOL    HW245099   6.243   1.466   0.034 -0.1882  0.5537 -0.8624
13418SOL     OW45100   5.269   1.169   9.938  0.6369 -0.1738 -0.5193
13418SOL    HW145101   5.250   1.075   9.933 -3.6413  0.4080  2.4724
13418SOL    HW245102   5.183   1.211   9.934  2.1543  3.4060  2.1850
13419SOL     OW45103   3.818   1.192   1.023 -0.2722 -0.1578  0.1839
13419SOL    HW145104   3.856   1.280   1.028  0.4180 -0.3112 -1.6676
13419SOL    HW245105   3.738   1.203   0.972  1.0733 -0.9225 -2.2216
13420SOL     OW45106   5.400   2.898   8.962  0.4567  0.7895 -0.3898
13420SOL    HW145107   5.398   2.942   9.048 -2.7390  2.1970 -1.1151
13420SOL    HW245108   5.406   2.805   8.983  3.5703  1.2555  1.2499
13421SOL     OW45109   5.481   2.191   9.875  0.4825 -0.2749 -0.2126
13421SOL    HW145110   5.474   2.200   9.780 -0.7911 -0.3572 -0.1313
13421SOL    HW245111   5.451   2.101   9.893 -2.4758  0.8031  0.5779
13422SOL     OW45112   3.379   2.300   9.176 -0.6492  0.1607 -0.0445
13422SOL    HW145113   3.303   2.250   9.145 -0.0732  0.3236 -1.7759
13422SOL    HW245114   3.444   2.233   9.198 -1.6982 -0.0258  2.5862
13423SOL     OW45115   6.767   2.531   0.396 -0.1675 -0.1245  0.1455
13423SOL    HW145116   6.786   2.438   0.394 -0.4877 -0.1983  0.4242
13423SOL    HW245117   6.800   2.565   0.313  0.0590 -0.4640  0.0994
13424SOL     OW45118   5.188   3.759   9.144 -0.0650  0.1870 -0.1005
13424SOL    HW145119   5.155   3.735   9.231  1.9681 -0.7838  0.4265
13424SOL    HW245120   5.245   3.835   9.160  0.2296  0.0718 -0.5950
13425SOL     OW45121   5.616   4.052   8.739 -0.4046  0.2758  0.4561
13425SOL    HW145122   5.655   4.098   8.813  0.0350  0.0544  0.3644
13425SOL    HW245123   5.603   3.963   8.771  0.9940 -0.1528 -0.1581
13426SOL     OW45124   5.516   4.515   9.482  0.8726 -0.4976 -0.0293
13426SOL    HW145125   5.563   4.432   9.488  0.2057 -0.7835  1.4979
13426SOL    HW245126   5.556   4.571   9.548  1.0986  0.2985 -0.8292
13427SOL     OW45127   5.154   3.797   1.797 -0.1214  0.1706 -0.3797
13427SOL    HW145128   5.177   3.811   1.889  0.1261  2.5107 -0.7821
13427SOL    HW245129   5.234   3.759   1.758  0.4472  1.0473 -0.0725
13428SOL     OW45130   6.901   2.907   8.912  0.0568  0.2456 -0.7212
13428SOL    HW145131   6.972   2.964   8.942  0.5461 -0.7603  0.0521
13428SOL    HW245132   6.824   2.939   8.959  0.6062 -0.6170  0.8031
13429SOL     OW45133   3.749   2.530   0.392  0.5426 -0.4278  1.0332
13429SOL    HW145134   3.707   2.514   0.477 -0.3700  0.7723  0.8257
13429SOL    HW245135   3.796   2.612   0.403 -0.1496  0.0901  0.1755
13430SOL     OW45136   6.484   1.634   8.723  0.0399 -0.0136  0.1079
13430SOL    HW145137   6.554   1.650   8.786  0.9461  1.2333 -1.1760
13430SOL    HW245138   6.508   1.552   8.680 -0.4269 -0.7099  1.1618
13431SOL     OW45139   3.046   2.969   8.756  0.9590 -0.1296  0.1847
13431SOL    HW145140   3.115   3.021   8.795  0.5324 -0.0339  0.8125
13431SOL    HW245141   2.976   3.031   8.737  2.2408  0.3438 -3.3657
13432SOL     OW45142   4.247   2.371   8.612 -0.4253  0.5013 -1.2761
13432SOL    HW145143   4.321   2.325   8.572  0.6545  0.9518  0.1323
13432SOL    HW245144   4.277   2.390   8.701 -2.6295 -0.1819 -0.3656
13433SOL     OW45145   5.691   2.858   8.131  0.0298 -0.0016  0.2940
13433SOL    HW145146   5.692   2.786   8.194  0.0698 -0.5751 -0.3565
13433SOL    HW245147   5.604   2.898   8.142  0.5736  0.8376  1.7518
13434SOL     OW45148   6.142   1.865   0.178  0.1677 -0.1787  0.5344
13434SOL    HW145149   6.077   1.853   0.248 -1.0803  0.8934 -0.4143
13434SOL    HW245150   6.109   1.810   0.107  1.8372 -1.8687  1.0104
13435SOL     OW45151   4.057   1.328   8.936  0.1993 -0.3004  0.4269
13435SOL    HW145152   3.979   1.284   8.970  0.2807  0.0200  1.0381
13435SOL    HW245153   4.119   1.258   8.919 -1.0201 -0.7863 -2.2236
13436SOL     OW45154   4.342   3.168   9.214 -0.2239 -0.3696  0.0095
13436SOL    HW145155   4.307   3.257   9.225  1.1051  0.0148  1.2704
13436SOL    HW245156   4.368   3.164   9.122 -0.0663  0.6310  0.0008
13437SOL     OW45157   4.730   2.927   8.264 -0.1933  0.2019 -0.2083
13437SOL    HW145158   4.818   2.929   8.303 -0.2861 -1.3494  0.1292
13437SOL    HW245159   4.691   3.011   8.287  0.9901  0.6598  0.1606
13438SOL     OW45160   3.417   2.956   9.981 -0.1229  0.1717  0.1460
13438SOL    HW145161   3.505   2.954   9.945  0.1012  1.0148  0.6148
13438SOL    HW245162   3.381   2.869   9.964  0.6746 -0.0608 -0.3525
13439SOL     OW45163   3.025   1.203   0.038  0.4873  0.5177  0.2667
13439SOL    HW145164   2.966   1.259  -0.013  0.3866 -1.2503 -1.6223
13439SOL    HW245165   2.967   1.138   0.078  0.8569  0.4395  0.6848
13440SOL     OW45166   2.670   4.182   0.578 -0.2164 -0.4375  0.4504
13440SOL    HW145167   2.574   4.186   0.586 -0.2407 -0.1751  0.0837
13440SOL    HW245168   2.685   4.182   0.483  0.1979  1.0592  0.5012
13441SOL     OW45169   5.378   2.225   8.852  0.5673  0.1946  0.4286
13441SOL    HW145170   5.309   2.188   8.799  1.3583  1.3855 -1.4865
13441SOL    HW245171   5.444   2.156   8.858 -0.0765 -0.3814  0.9428
13442SOL     OW45172   4.936   0.714   0.110 -0.1151  0.4984 -0.4255
13442SOL    HW145173   4.974   0.709   0.198 -0.0408  1.9471 -0.3606
13442SOL    HW245174   5.012   0.721   0.052 -0.2247  1.9671 -0.4078
13443SOL     OW45175   4.420   3.256   1.082  0.0532 -0.2392  0.0824
13443SOL    HW145176   4.390   3.341   1.051 -0.1193 -1.1641 -2.3937
13443SOL    HW245177   4.508   3.273   1.118 -0.1129  1.0158 -0.0838
13444SOL     OW45178   3.360   4.454   0.345 -0.1793  0.2004  0.0560
13444SOL    HW145179   3.450   4.435   0.318 -0.0127 -0.4125  1.0426
13444SOL    HW245180   3.352   4.416   0.432 -1.8744 -1.1531 -0.6635
13445SOL     OW45181   4.446   5.669   1.002 -0.1898 -0.3703  0.0345
13445SOL    HW145182   4.369   5.686   1.056  0.1113  0.1986  0.2775
13445SOL    HW245183   4.517   5.714   1.046  0.7614 -2.8047  1.0703
13446SOL     OW45184   2.395   4.080   0.535 -0.2934 -0.1913 -0.1733
13446SOL    HW145185   2.435   4.018   0.474 -0.4074 -2.0115  1.5389
13446SOL    HW245186   2.304   4.088   0.505 -0.7282 -2.1618  0.5720
13447SOL     OW45187   4.043   4.224   1.448  0.4408 -0.2435  0.2522
13447SOL    HW145188   4.090   4.307   1.460 -0.7820  0.7823 -1.8691
13447SOL    HW245189   4.077   4.189   1.366  1.4943 -2.2424  1.5095
13448SOL     OW45190   4.699   6.401   1.147  0.2608  0.4091 -0.2686
13448SOL    HW145191   4.616   6.358   1.126 -0.9909  2.8199 -0.4357
13448SOL    HW245192   4.756   6.379   1.074 -0.0214 -1.7017  0.0877
13449SOL     OW45193   4.528   4.461   1.441 -0.2923 -0.2260 -0.0845
13449SOL    HW145194   4.602   4.505   1.483 -1.0485  0.1728  0.8497
13449SOL    HW245195   4.458   4.526   1.441 -0.8993 -0.8745 -0.1941
13450SOL     OW45196   5.740   3.061   0.308  0.0062  0.3868  0.0344
13450SOL    HW145197   5.695   3.117   0.372  1.3897  0.3370  1.0807
13450SOL    HW245198   5.703   3.087   0.224 -0.5611  1.7278  0.6731
13451SOL     OW45199   4.200   4.297   0.512 -0.8846  0.3209  0.5759
13451SOL    HW145200   4.221   4.366   0.575 -0.2778 -0.3744  1.1493
13451SOL    HW245201   4.115   4.263   0.541  0.2187 -1.2131  2.1187
13452SOL     OW45202   4.195   3.166   1.235  0.3623  0.4373  0.2123
13452SOL    HW145203   4.269   3.176   1.175 -0.3797  0.1130 -0.7624
13452SOL    HW245204   4.208   3.235   1.300  1.5215  0.3817  0.0486
13453SOL     OW45205   5.512   4.417   8.547 -0.0003  0.2161 -0.1202
13453SOL    HW145206   5.448   4.349   8.524 -0.5218  0.7723 -0.3349
13453SOL    HW245207   5.570   4.422   8.472  0.9182 -1.0041  0.4967
13454SOL     OW45208   4.167   1.872   9.705 -0.2630 -1.2040  0.0392
13454SOL    HW145209   4.241   1.853   9.762  0.0537 -1.5228 -0.4710
13454SOL    HW245210   4.090   1.839   9.753 -0.0699 -0.9123  0.5472
13455SOL     OW45211   4.586   5.905   1.633 -0.0569  0.8312  0.5091
13455SOL    HW145212   4.630   5.972   1.580 -0.4786  2.5091  2.1975
13455SOL    HW245213   4.505   5.947   1.663 -0.8073 -0.7814  0.8192
13456SOL     OW45214   4.826   5.622   1.017  0.5017  0.4433 -0.3744
13456SOL    HW145215   4.920   5.632   1.001  0.9956 -0.7848  1.5565
13456SOL    HW245216   4.811   5.669   1.100 -0.3405 -0.4129 -0.0370
13457SOL     OW45217   5.015   2.664   0.695  0.7131 -0.3635  0.1639
13457SOL    HW145218   4.925   2.663   0.663  1.0576  1.5386 -0.9329
13457SOL    HW245219   5.011   2.711   0.778  0.9297  1.2341 -0.7099
13458SOL     OW45220   6.771   3.595   9.324  0.0167  0.0622 -0.3167
13458SOL    HW145221   6.747   3.606   9.416 -2.1184 -0.3115 -0.7976
13458SOL    HW245222   6.771   3.500   9.310  1.7831  0.0540 -0.3557
13459SOL     OW45223   2.956   5.412   0.702  0.0873  0.1928  0.4245
13459SOL    HW145224   2.918   5.338   0.654  2.3922 -1.4888  1.0681
13459SOL    HW245225   2.881   5.461   0.735 -1.6372 -4.6146  4.2146
13460SOL     OW45226   4.235   5.505   1.675  0.1369 -0.0652  0.8517
13460SOL    HW145227   4.167   5.571   1.662  0.5881  0.7683  2.7262
13460SOL    HW245228   4.205   5.454   1.750 -0.1065 -1.8906 -0.4459
13461SOL     OW45229   3.784   4.103   0.775  0.0719  0.4140  0.4132
13461SOL    HW145230   3.753   4.013   0.764 -1.1401  1.0503 -1.5525
13461SOL    HW245231   3.707   4.157   0.760  0.8759  1.8072  1.2186
13462SOL     OW45232   2.888   7.323   2.788 -0.1018 -0.3803 -0.0233
13462SOL    HW145233   2.852   7.412   2.778 -3.0962 -1.5246  0.0872
13462SOL    HW245234   2.981   7.337   2.808  0.0704  2.6532 -2.5508
13463SOL     OW45235   2.269   6.408   3.725 -0.4040 -0.1532  0.0582
13463SOL    HW145236   2.354   6.408   3.681 -1.4914  0.0331 -2.1323
13463SOL    HW245237   2.239   6.317   3.719 -0.9111  0.0363 -0.2804
13464SOL     OW45238   5.594   3.995   8.453  0.1248  0.0250  0.1702
13464SOL    HW145239   5.616   4.024   8.541  1.9459 -2.0884  0.4631
13464SOL    HW245240   5.677   3.964   8.416 -0.7438  0.2129 -2.0207
13465SOL     OW45241   4.598   4.851   1.322 -0.6552  0.2712  0.0298
13465SOL    HW145242   4.557   4.933   1.350  0.1877  1.1135 -1.1298
13465SOL    HW245243   4.679   4.846   1.373 -0.3275  0.5548 -0.4619
13466SOL     OW45244   2.896   5.101   0.647 -0.6054  0.3284  0.3983
13466SOL    HW145245   2.967   5.099   0.582  0.7114 -1.7780  1.8465
13466SOL    HW245246   2.823   5.057   0.603  0.1482 -0.7317  0.1895
13467SOL     OW45247   5.259   4.501   0.366 -0.2084  0.3355 -0.8157
13467SOL    HW145248   5.350   4.497   0.336 -0.2412 -0.4549 -0.8229
13467SOL    HW245249   5.260   4.561   0.441  0.4606 -0.3168 -0.3029
13468SOL     OW45250   4.720   6.065   1.098  0.2610 -0.2793 -0.5567
13468SOL    HW145251   4.744   6.085   1.007  0.2709 -1.3426 -0.7867
13468SOL    HW245252   4.788   6.107   1.150  0.5974 -0.1919 -1.0620
13469SOL     OW45253   6.178   4.944   0.583  0.0077  0.3466 -0.4446
13469SOL    HW145254   6.166   5.039   0.589  0.8081  0.3600  1.5280
13469SOL    HW245255   6.137   4.919   0.500 -0.3204  2.3959 -0.9189
13470SOL     OW45256   5.838   4.226   9.989  0.3343 -0.1337 -0.7627
13470SOL    HW145257   5.850   4.307  10.038  0.6663 -1.0675  0.7296
13470SOL    HW245258   5.764   4.244   9.931 -1.0332  0.5581  1.1083
13471SOL     OW45259   2.897   3.592   2.712  0.4155 -0.0102 -0.3598
13471SOL    HW145260   2.876   3.646   2.788  1.1902  0.3269 -0.3797
13471SOL    HW245261   2.812   3.562   2.680  0.0780 -0.1744  0.6470
13472SOL     OW45262   4.473   3.771   9.885 -0.3801  0.3123 -0.1308
13472SOL    HW145263   4.444   3.837   9.822  1.8893  1.3567 -0.1423
13472SOL    HW245264   4.493   3.821   9.964  2.9397 -0.0882 -0.6533
13473SOL     OW45265   4.844   5.287   1.330  0.6940 -0.3351 -0.6135
13473SOL    HW145266   4.903   5.315   1.261 -0.3026  0.3640 -1.2004
13473SOL    HW245267   4.800   5.367   1.358  2.3345 -0.3251  2.0486
13474SOL     OW45268   2.906   4.315   1.419 -0.6121 -0.0168  0.4102
13474SOL    HW145269   2.861   4.303   1.336 -1.5303  0.5931  0.8118
13474SOL    HW245270   2.891   4.233   1.466 -2.0631  0.4960  0.8850
13475SOL     OW45271   4.482   5.991   1.343  0.3380 -0.2636 -0.0345
13475SOL    HW145272   4.475   5.993   1.438  0.9814  1.4491 -0.0032
13475SOL    HW245273   4.432   6.067   1.314  0.5547 -0.4935 -1.0396
13476SOL     OW45274   2.609   4.010   8.493 -0.1139  0.4176 -0.3248
13476SOL    HW145275   2.595   3.941   8.559 -1.5628  0.1605 -0.8942
13476SOL    HW245276   2.657   3.966   8.423 -1.2103 -0.0759 -0.7744
13477SOL     OW45277   3.819   5.234   1.928 -0.2435  0.2208 -0.3431
13477SOL    HW145278   3.763   5.273   1.860 -1.3743 -1.4101 -0.3534
13477SOL    HW245279   3.769   5.244   2.009 -0.4329 -0.9995 -0.3118
13478SOL     OW45280   4.044   5.659   1.947  1.0244  0.3292  0.0353
13478SOL    HW145281   3.956   5.649   1.911  0.9002 -0.5685  0.5975
13478SOL    HW245282   4.033   5.653   2.041  1.6100  0.8170  0.1407
13479SOL     OW45283   5.034   5.795   1.255 -0.0617 -0.1845  0.2759
13479SOL    HW145284   5.008   5.847   1.179  0.6686 -1.8034 -1.1177
13479SOL    HW245285   5.113   5.838   1.288 -0.0022  0.1493 -0.2952
13480SOL     OW45286   4.412   5.565   2.533  0.2729 -0.1751  0.3735
13480SOL    HW145287   4.384   5.651   2.501 -0.8091 -0.8533 -0.5485
13480SOL    HW245288   4.452   5.583   2.618 -1.6154  1.0224  1.0413
13481SOL     OW45289   2.478   6.482   9.564  0.9330  0.3262  0.5660
13481SOL    HW145290   2.495   6.566   9.521 -0.3731  0.3067 -0.0252
13481SOL    HW245291   2.383   6.478   9.570  1.0018 -1.0380  0.7591
13482SOL     OW45292   5.406   3.344   0.377 -0.2893  0.4110  0.1237
13482SOL    HW145293   5.446   3.375   0.295 -0.3671  1.4239  0.4660
13482SOL    HW245294   5.478   3.303   0.425 -0.0662  0.5587 -0.0876
13483SOL     OW45295   5.350   8.113   8.490 -0.0404 -0.4647  0.2612
13483SOL    HW145296   5.369   8.049   8.558 -0.7984 -0.3255  0.6006
13483SOL    HW245297   5.255   8.118   8.487 -0.0018 -0.1050 -0.4678
13484SOL     OW45298   4.192   3.570   0.379  0.5222 -0.1913  0.1639
13484SOL    HW145299   4.146   3.653   0.367  0.3623 -0.4428 -1.0270
13484SOL    HW245300   4.142   3.525   0.447 -0.6832 -0.2273 -0.7360
13485SOL     OW45301   3.447   3.808   1.192 -0.7708 -0.1248 -0.1431
13485SOL    HW145302   3.394   3.868   1.245  2.3097  0.9655  1.8214
13485SOL    HW245303   3.454   3.852   1.107 -0.7348  1.0449  0.4488
13486SOL     OW45304   5.373   5.890   0.972  0.2618  0.4670 -0.0334
13486SOL    HW145305   5.394   5.801   0.943 -0.9240  0.9388 -2.4885
13486SOL    HW245306   5.307   5.878   1.041 -0.3059 -0.5348 -0.7395
13487SOL     OW45307   4.768   2.661   0.600 -0.4026 -0.3061  0.2828
13487SOL    HW145308   4.722   2.699   0.526  1.6973  1.4253 -0.1818
13487SOL    HW245309   4.727   2.575   0.612 -0.9820 -0.5075 -2.6790
13488SOL     OW45310   3.866   3.595   8.314 -0.6757  0.3315 -0.1229
13488SOL    HW145311   3.821   3.534   8.372  0.2445 -1.1425 -0.9538
13488SOL    HW245312   3.801   3.619   8.249 -0.9607  0.0641  0.0639
13489SOL     OW45313   3.347   6.724   2.592  0.0580 -1.2261 -0.7378
13489SOL    HW145314   3.364   6.818   2.592 -0.2599 -1.1654 -1.6781
13489SOL    HW245315   3.296   6.709   2.512 -1.1211 -1.9735  0.1522
13490SOL     OW45316   5.134   2.516   9.209 -0.0036  0.6230  1.3562
13490SOL    HW145317   5.200   2.540   9.143  1.1315 -0.8721  1.9150
13490SOL    HW245318   5.065   2.581   9.199  0.2172  0.5040 -1.2262
13491SOL     OW45319   6.076   3.693   1.220  0.0291  0.5252  0.1702
13491SOL    HW145320   6.032   3.738   1.293 -0.8414 -0.3378  0.1907
13491SOL    HW245321   6.162   3.733   1.216  0.1986  0.3915  1.8876
13492SOL     OW45322   4.491   4.142   0.079 -0.5238 -0.6729 -0.1009
13492SOL    HW145323   4.491   4.166  -0.014  3.7005 -1.6272 -0.4674
13492SOL    HW245324   4.490   4.226   0.125 -0.5469 -0.1263 -1.0691
13493SOL     OW45325   2.903   4.317   9.360 -0.0462  0.3753 -0.3869
13493SOL    HW145326   2.894   4.408   9.332 -3.5914 -0.3232 -1.8714
13493SOL    HW245327   2.951   4.275   9.289 -0.4974  0.6039 -0.8288
13494SOL     OW45328   2.599   5.421   0.939  0.0558 -0.2724 -0.4229
13494SOL    HW145329   2.595   5.416   0.844  0.4909 -2.4780 -0.3525
13494SOL    HW245330   2.688   5.393   0.961  0.2607  1.1264  0.5939
13495SOL     OW45331   5.600   5.589   1.274 -0.5091 -0.8157  0.6987
13495SOL    HW145332   5.676   5.593   1.333 -0.2022  0.2253  0.2377
13495SOL    HW245333   5.631   5.631   1.193 -1.6792 -0.1213  0.6132
13496SOL     OW45334   3.721   4.773   1.315 -0.4872  0.2481  0.5904
13496SOL    HW145335   3.705   4.748   1.406  1.5779  2.2458  1.5608
13496SOL    HW245336   3.649   4.831   1.292 -1.0198 -0.2757  0.9301
13497SOL     OW45337   3.733   5.372   0.915  0.5088  0.4549 -0.2127
13497SOL    HW145338   3.780   5.298   0.875 -2.1401 -0.1771 -2.2497
13497SOL    HW245339   3.733   5.440   0.848  0.2491  1.1978  0.5337
13498SOL     OW45340   4.415   5.087   1.379  0.0447 -0.3023 -0.0336
13498SOL    HW145341   4.363   5.075   1.459  1.8848  1.5427  1.4990
13498SOL    HW245342   4.352   5.078   1.308 -2.0583  0.1940  1.7069
13499SOL     OW45343   4.888   4.752   2.431 -0.2865 -0.3195 -0.2305
13499SOL    HW145344   4.804   4.723   2.396 -1.4039  0.2114  1.9496
13499SOL    HW245345   4.932   4.671   2.459 -1.1201 -0.4042  0.8683
13500SOL     OW45346   4.822   6.843   1.549 -0.0139  0.7460  0.2831
13500SOL    HW145347   4.872   6.909   1.500  0.5689  0.4166  0.4342
13500SOL    HW245348   4.740   6.834   1.501  0.0388  1.3496  0.0797
13501SOL     OW45349   2.519   3.920   1.813  0.2750  0.3872  0.6814
13501SOL    HW145350   2.462   3.958   1.746  0.1267  0.8694  1.0823
13501SOL    HW245351   2.489   3.830   1.822  0.0162  0.4460  0.4105
13502SOL     OW45352   5.431   4.820   9.929  0.0512 -0.0095  0.1281
13502SOL    HW145353   5.467   4.903   9.899 -0.6080  0.2152 -0.0541
13502SOL    HW245354   5.505   4.774   9.969  0.7168  0.0974 -0.9621
13503SOL     OW45355   4.542   5.551   0.372 -0.4367  0.0897 -0.1852
13503SOL    HW145356   4.499   5.585   0.450 -0.8622  0.9572 -0.7869
13503SOL    HW245357   4.580   5.467   0.400 -0.9462  0.1875  0.8296
13504SOL     OW45358   5.037   3.678   9.807 -0.3674  0.0733 -0.0699
13504SOL    HW145359   4.960   3.675   9.863  0.1547 -0.5002  0.6444
13504SOL    HW245360   5.018   3.745   9.742 -0.4856  1.6260  1.5444
13505SOL     OW45361   4.734   4.458   9.563 -0.1883  0.5681  0.2180
13505SOL    HW145362   4.691   4.400   9.626 -0.7547  1.7322  0.9304
13505SOL    HW245363   4.667   4.524   9.543  0.0984  0.3983 -1.3624
13506SOL     OW45364   4.650   4.442   9.844 -0.6270 -0.4646 -0.2926
13506SOL    HW145365   4.607   4.431   9.929 -0.9594 -0.0379 -0.3994
13506SOL    HW245366   4.651   4.537   9.830 -1.1410 -0.5649 -1.0538
13507SOL     OW45367   3.440   5.171   1.975 -0.2157 -0.6194  0.5771
13507SOL    HW145368   3.374   5.213   2.030 -0.5936 -2.4754  1.5837
13507SOL    HW245369   3.392   5.139   1.899 -0.5688 -2.2560  1.4634
13508SOL     OW45370   2.313   4.522   9.424 -0.5548  0.5213  0.2005
13508SOL    HW145371   2.272   4.607   9.408 -1.0420  0.1777 -0.4188
13508SOL    HW245372   2.335   4.523   9.517 -1.8772  0.7542  0.5198
13509SOL     OW45373   4.392   3.283   2.295  0.0826  0.0523 -0.5816
13509SOL    HW145374   4.430   3.269   2.208 -1.4804  1.4660 -1.5173
13509SOL    HW245375   4.323   3.217   2.301  0.0237  0.1195 -0.5177
13510SOL     OW45376   3.584   3.823   1.678 -0.5851  0.0721  0.0004
13510SOL    HW145377   3.643   3.828   1.602  0.7385 -0.9514  0.9434
13510SOL    HW245378   3.620   3.887   1.740 -1.5661  0.7781 -0.1390
13511SOL     OW45379   5.006   3.955   0.959  0.4210  0.2202 -0.1949
13511SOL    HW145380   4.917   3.921   0.967  0.9804 -0.9525  1.1284
13511SOL    HW245381   5.051   3.889   0.907  0.1336  1.5904 -2.2577
13512SOL     OW45382   3.798   3.697   0.641  0.5236  0.4672 -0.1037
13512SOL    HW145383   3.832   3.611   0.614  1.0670  1.3334 -2.2902
13512SOL    HW245384   3.718   3.676   0.688  2.4412 -1.4347  2.4894
13513SOL     OW45385   4.022   4.316   0.313  0.1810 -0.2274  0.3843
13513SOL    HW145386   3.986   4.259   0.381 -1.7991  1.5099  0.8389
13513SOL    HW245387   4.101   4.354   0.353 -1.1989  1.1189  1.9223
13514SOL     OW45388   4.241   4.188   8.718 -0.3336 -0.3501 -0.1387
13514SOL    HW145389   4.253   4.282   8.704 -0.5896 -0.6052 -2.2031
13514SOL    HW245390   4.232   4.179   8.813  0.7482  1.5827  0.1797
13515SOL     OW45391   3.586   3.874   0.297 -0.3613 -0.2688 -0.2482
13515SOL    HW145392   3.566   3.815   0.225  1.6183 -0.8037 -0.4001
13515SOL    HW245393   3.658   3.929   0.264  0.7433 -0.6951  1.3882
13516SOL     OW45394   4.042   4.307   0.850 -0.1961 -0.3299 -0.6845
13516SOL    HW145395   3.971   4.248   0.826 -0.7580  0.2139 -0.3853
13516SOL    HW245396   4.120   4.267   0.814 -0.6409 -1.0080 -0.8990
13517SOL     OW45397   3.753   7.515   1.165 -0.6016  0.3670 -0.2104
13517SOL    HW145398   3.661   7.524   1.141  0.2864  1.5704 -3.3560
13517SOL    HW245399   3.775   7.597   1.208 -1.1538 -0.2126  1.2188
13518SOL     OW45400   2.875   6.981   1.694  0.1282 -0.0134 -0.2955
13518SOL    HW145401   2.910   6.974   1.606  0.2136 -1.4229 -0.1618
13518SOL    HW245402   2.803   6.918   1.696  1.0012 -1.0080  1.0374
13519SOL     OW45403   6.070   3.238   9.442 -0.0610  0.3367 -0.3669
13519SOL    HW145404   6.148   3.184   9.450 -0.0729  0.1875 -1.2199
13519SOL    HW245405   5.997   3.178   9.459 -0.1255 -0.1458 -2.2239
13520SOL     OW45406   3.788   2.817   0.439  0.1309 -0.6459  0.2221
13520SOL    HW145407   3.828   2.902   0.417 -1.4607 -0.6462 -2.9054
13520SOL    HW245408   3.709   2.840   0.487  0.3377 -0.4147  0.4576
13521SOL     OW45409   3.672   5.314   1.174  0.0941 -0.0427 -0.5852
13521SOL    HW145410   3.582   5.338   1.193 -0.3359 -1.9422 -0.1662
13521SOL    HW245411   3.689   5.353   1.087 -0.7367  1.2522 -0.1830
13522SOL     OW45412   3.877   5.521   2.661 -0.4263 -0.1800 -0.0944
13522SOL    HW145413   3.941   5.552   2.597 -1.2514  0.8447 -0.4181
13522SOL    HW245414   3.822   5.460   2.612 -0.1012 -0.5841  0.0335
13523SOL     OW45415   3.233   4.792   0.333 -0.1768  0.3556 -0.2229
13523SOL    HW145416   3.289   4.734   0.384  0.2657  0.9704  0.0029
13523SOL    HW245417   3.201   4.738   0.261  1.3191  0.2020 -0.7817
13524SOL     OW45418   7.153   4.005   2.389 -0.4894  0.3937 -0.0565
13524SOL    HW145419   7.125   4.091   2.419  0.1132  0.1821  1.1619
13524SOL    HW245420   7.194   4.021   2.304 -0.5104  1.2894  0.0994
13525SOL     OW45421   4.862   3.602   9.974  0.1449 -0.8940 -0.2966
13525SOL    HW145422   4.867   3.513  10.010  0.3156 -0.6246  0.3544
13525SOL    HW245423   4.769   3.623   9.974  0.2383 -0.4560  1.0794
13526SOL     OW45424   6.323   4.974   0.834 -0.4585 -0.0229  0.5561
13526SOL    HW145425   6.311   4.893   0.784 -0.4433  0.3731 -0.0929
13526SOL    HW245426   6.274   5.040   0.785 -0.6585  0.3119  1.2114
13527SOL     OW45427   5.000   4.810   0.937 -0.1962  0.0380  0.0432
13527SOL    HW145428   4.940   4.841   0.870  0.8690 -1.0011 -1.4121
13527SOL    HW245429   5.087   4.834   0.905  0.4101 -1.4958  0.4811
13528SOL     OW45430   5.223   4.159   9.435 -0.1191 -0.1796 -0.3838
13528SOL    HW145431   5.236   4.089   9.498  0.2671 -0.4101 -0.7111
13528SOL    HW245432   5.312   4.186   9.411 -0.2455  1.5674  1.0016
13529SOL     OW45433   3.979   4.112   0.576  0.1569 -0.4776 -0.2987
13529SOL    HW145434   3.929   4.111   0.658  1.6132 -0.2156  0.6169
13529SOL    HW245435   4.028   4.029   0.578  0.7460 -0.1348 -0.5592
13530SOL     OW45436   2.523   4.339   7.777 -0.1313  0.4087  0.1915
13530SOL    HW145437   2.443   4.351   7.828 -1.8817 -1.2070 -2.1015
13530SOL    HW245438   2.552   4.429   7.758 -0.3330  1.0231  2.5881
13531SOL     OW45439   5.536   8.365   1.321  0.0155  0.4008  0.1470
13531SOL    HW145440   5.502   8.277   1.302 -1.8844  0.9355  0.9669
13531SOL    HW245441   5.466   8.424   1.296  1.0213  1.6510  0.2509
13532SOL     OW45442   4.406   7.007   1.252 -0.2224  0.2478 -0.5323
13532SOL    HW145443   4.330   6.963   1.290  1.1158 -2.6057 -0.9618
13532SOL    HW245444   4.417   7.087   1.303 -1.3712 -1.0864  1.8790
13533SOL     OW45445   5.749   6.369   0.619  0.0613  0.0402  0.2958
13533SOL    HW145446   5.669   6.362   0.565  0.7237 -2.0828 -0.4860
13533SOL    HW245447   5.811   6.415   0.563 -0.8584  2.5137  1.2444
13534SOL     OW45448   4.688   4.867   8.877 -0.3953  0.1985 -1.0727
13534SOL    HW145449   4.614   4.892   8.821 -2.0593 -1.2962  0.4035
13534SOL    HW245450   4.736   4.802   8.827  0.0316  1.3029 -2.1137
13535SOL     OW45451   6.225   5.550   1.599  0.2575  0.1148  0.0538
13535SOL    HW145452   6.291   5.538   1.531  0.0865 -0.1094 -0.0747
13535SOL    HW245453   6.170   5.472   1.593  0.1843  0.1387  0.3861
13536SOL     OW45454   4.762   4.908   1.764  0.2543  0.2159  0.0592
13536SOL    HW145455   4.838   4.948   1.721  1.5593 -1.1196  1.0772
13536SOL    HW245456   4.794   4.823   1.795 -2.0872 -1.0150 -0.8346
13537SOL     OW45457   3.590   4.443   1.617 -0.0525 -0.2902 -0.1918
13537SOL    HW145458   3.564   4.413   1.530 -2.2191 -0.5863  0.5285
13537SOL    HW245459   3.676   4.482   1.604 -0.6167  0.2417 -2.5793
13538SOL     OW45460   2.799   4.533   8.707 -0.3355 -0.8742  0.0962
13538SOL    HW145461   2.710   4.550   8.736  0.0516 -0.5801  1.1510
13538SOL    HW245462   2.854   4.579   8.770  0.4678  3.1061 -3.2600
13539SOL     OW45463   4.843   4.897   0.665 -0.4128 -0.7733  0.8108
13539SOL    HW145464   4.756   4.885   0.705 -0.2615 -2.1832  0.7401
13539SOL    HW245465   4.830   4.873   0.573 -0.3214  0.6410  0.4173
13540SOL     OW45466   5.361   3.276   2.960  0.3643 -0.0165 -0.1435
13540SOL    HW145467   5.336   3.291   3.051  3.0778 -1.0168  0.8148
13540SOL    HW245468   5.385   3.363   2.927 -0.6628  0.3534  0.0779
13541SOL     OW45469   4.844   4.210   0.735 -1.2971 -0.1624 -0.3465
13541SOL    HW145470   4.795   4.142   0.780 -1.6594 -0.0468 -0.5639
13541SOL    HW245471   4.831   4.190   0.642 -0.6501 -0.3354 -0.4021
13542SOL     OW45472   2.876   6.928   8.860  0.0088 -0.0387  0.4411
13542SOL    HW145473   2.899   6.979   8.782  0.6986  0.7455  1.1401
13542SOL    HW245474   2.838   6.848   8.826 -0.7746  0.7992 -0.6904
13543SOL     OW45475   3.566   4.899   9.939  0.2109 -0.4324  0.9458
13543SOL    HW145476   3.473   4.908   9.961  0.4925  0.9832  1.6256
13543SOL    HW245477   3.574   4.940   9.852  0.0245 -1.4595  0.4378
13544SOL     OW45478   4.712   5.241   2.651  0.4254 -0.1807  0.1550
13544SOL    HW145479   4.789   5.213   2.601 -0.1791  0.6074 -1.2217
13544SOL    HW245480   4.717   5.336   2.653  0.7933 -0.2037  2.1947
13545SOL     OW45481   4.199   5.042   1.564  0.3301 -0.1301 -0.0691
13545SOL    HW145482   4.174   5.005   1.649 -1.8341  0.9402 -0.2005
13545SOL    HW245483   4.148   4.991   1.501  1.6620 -0.6855 -0.7009
13546SOL     OW45484   4.837   4.612   1.831  0.2460 -0.1642  0.1110
13546SOL    HW145485   4.785   4.561   1.769  0.0321  0.7654 -0.4887
13546SOL    HW245486   4.928   4.599   1.802  0.2710 -0.9569  0.5333
13547SOL     OW45487   5.490   5.174   0.818 -0.1515  0.7102  0.3890
13547SOL    HW145488   5.480   5.081   0.836 -1.3601  0.9648  1.1326
13547SOL    HW245489   5.461   5.185   0.727  0.1670  0.3385  0.2436
13548SOL     OW45490   4.071   2.985   0.495  0.5211 -0.6266 -0.1570
13548SOL    HW145491   4.135   2.986   0.566 -0.2280 -2.3909  0.5436
13548SOL    HW245492   4.122   2.963   0.417  1.2326  0.7141 -0.0948
13549SOL     OW45493   4.224   4.316   1.082  0.2619  0.4849  0.6473
13549SOL    HW145494   4.139   4.316   1.038  0.4747  0.0953  0.2352
13549SOL    HW245495   4.277   4.377   1.032  0.2055  0.7926  0.9560
13550SOL     OW45496   3.638   3.965   9.515 -0.2974  0.1568  0.2451
13550SOL    HW145497   3.611   4.055   9.496 -3.2062 -0.2069  2.2914
13550SOL    HW245498   3.568   3.911   9.478  1.3573 -1.2743 -0.8562
13551SOL     OW45499   1.752   3.179   1.606 -0.5139 -0.0703 -0.8094
13551SOL    HW145500   1.728   3.267   1.634 -0.5529  0.5310 -2.6564
13551SOL    HW245501   1.706   3.167   1.523  1.1468 -1.0229 -1.6174
13552SOL     OW45502   5.336   3.950   1.234 -0.4119 -0.1662 -0.0222
13552SOL    HW145503   5.312   4.009   1.163  0.0601  1.3452  1.0448
13552SOL    HW245504   5.351   3.865   1.192 -1.3070  0.4291 -1.5398
13553SOL     OW45505   4.602   4.937   0.812 -0.0484  0.1839 -0.0742
13553SOL    HW145506   4.525   4.986   0.842 -0.3616  0.6003 -1.5032
13553SOL    HW245507   4.642   4.904   0.892 -1.1798  0.7728  0.7544
13554SOL     OW45508   5.921   5.219   1.215 -0.4964  0.0264 -0.2879
13554SOL    HW145509   5.997   5.229   1.157  0.1448 -2.1208  0.1319
13554SOL    HW245510   5.920   5.299   1.267  0.9988  0.4326 -0.8625
13555SOL     OW45511   4.122   4.112   9.884 -0.3672  0.0647 -0.2085
13555SOL    HW145512   4.104   4.096   9.791 -1.7519 -0.1757  0.0850
13555SOL    HW245513   4.071   4.045   9.930  1.0671 -0.4362  0.6991
13556SOL     OW45514   4.530   5.158   0.501 -0.1148  0.3620  0.4652
13556SOL    HW145515   4.488   5.183   0.584  1.2865 -0.3668  1.4072
13556SOL    HW245516   4.601   5.222   0.491  0.1663  0.0049  0.1939
13557SOL     OW45517   4.783   5.394   0.221  0.1735  0.3268 -0.1600
13557SOL    HW145518   4.792   5.365   0.312  1.1079  2.4541  0.4452
13557SOL    HW245519   4.854   5.456   0.208  0.7371 -0.8048 -2.7220
13558SOL     OW45520   5.015   5.513   1.245  0.0810 -0.2381 -0.0437
13558SOL    HW145521   5.042   5.604   1.234 -1.9667  0.4822  0.7385
13558SOL    HW245522   5.036   5.471   1.161  0.9833  0.9378 -0.4240
13559SOL     OW45523   4.445   2.947   0.235  0.0998  0.6119  0.0356
13559SOL    HW145524   4.431   2.904   0.151 -2.3266  0.6409  0.4044
13559SOL    HW245525   4.454   3.040   0.213 -2.7521  0.9063 -0.0147
13560SOL     OW45526   5.006   4.192   0.426 -0.3707 -0.1317  0.0907
13560SOL    HW145527   4.975   4.124   0.366  0.7756  0.4057 -1.1361
13560SOL    HW245528   5.057   4.145   0.492 -0.6147 -0.5953 -0.0483
13561SOL     OW45529   4.642   3.734   9.568 -0.2097  0.1354 -0.0138
13561SOL    HW145530   4.629   3.792   9.493  1.7817 -0.9020 -1.1864
13561SOL    HW245531   4.736   3.735   9.584 -0.0729 -3.0015 -0.2774
13562SOL     OW45532   4.629   5.946   2.422 -0.2922 -0.6101 -0.1059
13562SOL    HW145533   4.562   5.901   2.474 -0.8461  1.2700  0.8479
13562SOL    HW245534   4.589   6.030   2.400  1.2377 -0.0379 -0.7230
13563SOL     OW45535   3.963   5.917   1.664 -0.3285  0.3245  0.7720
13563SOL    HW145536   4.016   5.961   1.597  0.1247 -0.5123  0.5812
13563SOL    HW245537   3.907   5.857   1.614 -0.2477 -0.0365  1.1160
13564SOL     OW45538   3.275   5.082   1.766  0.5825  0.1644 -0.4814
13564SOL    HW145539   3.274   5.148   1.697  2.4824 -0.3799 -1.0588
13564SOL    HW245540   3.192   5.036   1.757 -0.4570  2.0090 -0.5158
13565SOL     OW45541   5.632   4.553   9.016  0.1581 -0.5303  0.2313
13565SOL    HW145542   5.716   4.507   9.011  0.4045  0.0409 -0.9001
13565SOL    HW245543   5.628   4.587   9.106  0.2495 -2.2275  0.8855
13566SOL     OW45544   6.046   4.175   0.189  0.2540 -0.2412  0.7121
13566SOL    HW145545   6.049   4.214   0.276 -2.5169 -0.8009  1.0974
13566SOL    HW245546   5.996   4.237   0.136  1.3850 -0.2007 -0.3224
13567SOL     OW45547   4.684   5.912   1.900 -0.1339  0.7400 -0.2920
13567SOL    HW145548   4.768   5.883   1.866 -0.2546  1.5960 -1.3562
13567SOL    HW245549   4.641   5.953   1.825 -2.0037 -0.7578 -0.0526
13568SOL     OW45550   2.259   5.433   0.626 -0.2795 -0.0689 -0.7987
13568SOL    HW145551   2.224   5.377   0.556 -1.0089  0.4503 -0.8524
13568SOL    HW245552   2.190   5.434   0.692 -0.2580  0.7592 -0.7929
13569SOL     OW45553   4.396   2.080   1.150 -0.2768 -0.2280  0.0840
13569SOL    HW145554   4.362   2.167   1.170  2.0364  1.3512 -2.5613
13569SOL    HW245555   4.486   2.081   1.182  0.0255 -1.3448 -0.7006
13570SOL     OW45556   3.721   3.537   1.599  1.1722 -0.5021 -0.0575
13570SOL    HW145557   3.703   3.559   1.507  1.6012  0.3884  0.0613
13570SOL    HW245558   3.635   3.520   1.637  0.8772  0.2899 -0.3437
13571SOL     OW45559   4.046   5.352   1.792  0.0210  0.4381  0.3890
13571SOL    HW145560   3.959   5.353   1.832 -0.1945  0.7386 -0.0876
13571SOL    HW245561   4.033   5.312   1.706  0.4275  0.0857  0.4947
13572SOL     OW45562   4.324   4.367   2.056 -0.0482 -0.1364  0.0651
13572SOL    HW145563   4.368   4.452   2.060  0.8029 -0.5250 -1.0191
13572SOL    HW245564   4.376   4.310   2.112  1.1771 -0.7327 -1.6260
13573SOL     OW45565   4.263   5.413   0.073  0.4304  0.1447  0.2511
13573SOL    HW145566   4.299   5.486   0.123 -0.5119  0.2338  0.7952
13573SOL    HW245567   4.307   5.420  -0.012  0.3093  1.3813  0.2727
13574SOL     OW45568   4.356   4.198   1.859 -0.3613  0.2149  0.2759
13574SOL    HW145569   4.348   4.261   1.930 -1.5882  2.0952 -1.4532
13574SOL    HW245570   4.430   4.229   1.807 -0.2531 -0.4333  0.0275
13575SOL     OW45571   4.819   5.613   1.802  0.0396 -0.7365 -0.3817
13575SOL    HW145572   4.812   5.567   1.886  2.0809 -0.0833  0.1765
13575SOL    HW245573   4.913   5.624   1.789 -0.3181  0.3162 -2.1352
13576SOL     OW45574   3.700   2.313   1.847 -0.3821 -0.2202  0.0720
13576SOL    HW145575   3.609   2.297   1.822  0.4576 -1.7329 -2.2082
13576SOL    HW245576   3.742   2.227   1.842  1.7844  0.8806 -1.5843
13577SOL     OW45577   4.534   4.571   0.329  0.6598 -0.1044  0.8634
13577SOL    HW145578   4.537   4.523   0.412 -2.3614 -2.2647 -0.1859
13577SOL    HW245579   4.455   4.625   0.335 -0.6170 -1.6382 -1.2501
13578SOL     OW45580   5.026   5.747   1.546  0.0305 -0.3718 -0.1155
13578SOL    HW145581   5.038   5.754   1.451 -0.1497 -0.5482 -0.1513
13578SOL    HW245582   5.029   5.838   1.577 -1.8148 -0.1584 -0.5173
13579SOL     OW45583   4.147   5.408   2.210  0.4043 -0.2207 -0.1676
13579SOL    HW145584   4.182   5.433   2.125 -1.2484 -0.9050 -1.0762
13579SOL    HW245585   4.111   5.321   2.197 -1.0545  0.1933  0.8832
13580SOL     OW45586   4.667   4.730   0.152  0.3667 -0.0746  0.7042
13580SOL    HW145587   4.730   4.662   0.131 -0.1753 -0.1586 -0.6671
13580SOL    HW245588   4.596   4.684   0.197 -1.3883 -0.9319 -2.8322
13581SOL     OW45589   4.221   6.330   1.840  0.0420 -0.1921  0.2350
13581SOL    HW145590   4.145   6.271   1.837  1.3218 -1.8539 -0.8665
13581SOL    HW245591   4.268   6.305   1.919 -0.0944  0.2503  0.4582
13582SOL     OW45592   3.183   4.025   0.484  0.2957  0.4431 -0.0319
13582SOL    HW145593   3.148   3.936   0.479  2.3951 -0.3330 -1.8274
13582SOL    HW245594   3.193   4.042   0.577 -0.8952 -0.9099  0.3554
13583SOL     OW45595   3.110   4.306   0.475 -0.1746  0.2074  0.1706
13583SOL    HW145596   3.119   4.211   0.473 -2.0304 -0.0082  1.0528
13583SOL    HW245597   3.082   4.329   0.386 -1.0874 -0.2238  0.3449
13584SOL     OW45598   6.012   3.796   0.851 -0.1660  0.2963 -0.3053
13584SOL    HW145599   6.020   3.794   0.756  0.4023 -0.2475 -0.2527
13584SOL    HW245600   6.081   3.856   0.880  0.8827 -0.9511 -0.1330
13585SOL     OW45601   4.015   3.798   9.087 -0.3227 -0.3128  0.2626
13585SOL    HW145602   3.992   3.817   8.996 -0.2427  0.9576  0.5013
13585SOL    HW245603   3.966   3.863   9.138  0.3913 -0.4024  1.0703
13586SOL     OW45604   5.944   4.220   9.387 -0.3866 -0.2255  0.0352
13586SOL    HW145605   6.001   4.188   9.317  0.1812  1.2414 -0.1837
13586SOL    HW245606   5.966   4.167   9.463 -0.1143 -0.9727 -0.5598
13587SOL     OW45607   4.678   4.591   0.922  0.0215  0.2470 -0.7240
13587SOL    HW145608   4.725   4.543   0.854  0.1392  1.0633 -1.2163
13587SOL    HW245609   4.746   4.617   0.985 -0.0549 -0.3041 -0.4112
13588SOL     OW45610   3.823   4.922   1.080  0.1805  0.0541  0.0786
13588SOL    HW145611   3.796   4.863   1.010 -2.0711  1.3831 -0.2082
13588SOL    HW245612   3.848   4.864   1.152  3.1974 -1.3512 -1.9909
13589SOL     OW45613   5.148   3.432   9.326 -0.1873 -0.2740 -0.1672
13589SOL    HW145614   5.070   3.411   9.274  1.7423 -2.4831 -2.2974
13589SOL    HW245615   5.147   3.527   9.333 -3.1961 -0.2711  0.0835
13590SOL     OW45616   4.203   3.685   9.248  0.0424 -0.8571  0.2001
13590SOL    HW145617   4.205   3.755   9.313  0.6707 -2.2887  1.7872
13590SOL    HW245618   4.142   3.715   9.181  1.5934  1.9134 -0.0127
13591SOL     OW45619   5.682   3.416   8.893  0.7701 -0.0584 -0.0345
13591SOL    HW145620   5.732   3.409   8.974  1.4574  1.0222 -0.3577
13591SOL    HW245621   5.720   3.491   8.847 -0.0180 -0.2795 -1.0746
13592SOL     OW45622   3.718   3.885   1.441  0.1832  0.0784  0.0944
13592SOL    HW145623   3.803   3.868   1.399  0.7103  2.8514 -0.0455
13592SOL    HW245624   3.714   3.980   1.449 -0.8337 -0.2211  4.4530
13593SOL     OW45625   3.363   5.196   1.161  0.2563  0.3105 -0.3791
13593SOL    HW145626   3.285   5.179   1.109  0.7550  2.3649 -1.8537
13593SOL    HW245627   3.435   5.160   1.110  0.2693 -2.1202  1.2536
13594SOL     OW45628   5.908   4.439   9.669  0.3524  0.3794 -0.1771
13594SOL    HW145629   5.983   4.381   9.682 -0.4331 -0.9542 -1.4320
13594SOL    HW245630   5.946   4.520   9.637  1.3332 -0.0413 -0.0884
13595SOL     OW45631   2.999   3.533   1.574  0.1237 -0.4754 -0.2840
13595SOL    HW145632   2.936   3.602   1.553  2.5971  0.9845 -3.3439
13595SOL    HW245633   2.952   3.452   1.556 -0.8416  0.5994 -2.8704
13596SOL     OW45634   3.340   6.078   2.592  0.5948 -0.1014 -0.0197
13596SOL    HW145635   3.387   6.102   2.513  1.2382 -1.2535  0.0123
13596SOL    HW245636   3.348   5.983   2.598 -1.6757 -0.3244  0.0186
13597SOL     OW45637   4.634   5.211   1.133 -0.4192  0.1731  0.5548
13597SOL    HW145638   4.697   5.241   1.199 -1.5060  1.5722  0.9838
13597SOL    HW245639   4.553   5.256   1.156 -1.2855 -0.7564 -0.6535
13598SOL     OW45640   4.396   5.356   1.115  0.8091 -0.4671 -0.4370
13598SOL    HW145641   4.301   5.372   1.119  0.9471  0.2788  0.1000
13598SOL    HW245642   4.434   5.444   1.107  1.4450 -0.7830 -0.8313
13599SOL     OW45643   5.089   4.794   0.444  0.0604  0.1488 -0.8229
13599SOL    HW145644   5.135   4.870   0.408  0.9717  0.3572  0.7401
13599SOL    HW245645   5.154   4.751   0.499 -1.5505  0.3723  1.3242
13600SOL     OW45646   5.882   3.600   9.071  0.1306 -0.6813 -0.2280
13600SOL    HW145647   5.938   3.678   9.070 -0.8014  0.0439  1.0120
13600SOL    HW245648   5.870   3.581   9.164  0.1289 -2.1580 -0.5206
13601SOL     OW45649   3.758   3.347   1.853 -0.1570 -0.1180  0.0666
13601SOL    HW145650   3.794   3.419   1.802  0.1804  0.7842  1.5556
13601SOL    HW245651   3.802   3.269   1.819 -0.0893  0.4325 -1.1424
13602SOL     OW45652   3.634   3.386   9.158 -0.0196  0.0041 -0.0447
13602SOL    HW145653   3.727   3.408   9.150 -0.0830 -0.1749 -1.3462
13602SOL    HW245654   3.593   3.468   9.188  0.5591  0.0708  0.5711
13603SOL     OW45655   4.566   4.446   0.570 -0.1287 -0.1568  0.5115
13603SOL    HW145656   4.634   4.486   0.625  0.8579  0.4717 -1.1152
13603SOL    HW245657   4.611   4.373   0.526 -1.3335 -1.6821  1.7506
13604SOL     OW45658   4.458   6.144   2.796  0.4365 -0.2268 -0.7247
13604SOL    HW145659   4.498   6.133   2.709  0.1877 -0.6096 -0.7914
13604SOL    HW245660   4.386   6.082   2.797 -0.5539  0.9079 -0.8438
13605SOL     OW45661   4.982   3.630   1.064  0.3712  0.2772 -0.0177
13605SOL    HW145662   4.998   3.623   0.969  2.2616  0.8975  0.2313
13605SOL    HW245663   4.915   3.564   1.082  0.2081 -0.0600 -1.7368
13606SOL     OW45664   2.785   4.373   0.734 -0.7732 -0.4276  0.1251
13606SOL    HW145665   2.753   4.315   0.665  0.0849  0.2180 -0.8516
13606SOL    HW245666   2.713   4.379   0.797 -0.6906 -2.8921  0.4864
13607SOL     OW45667   4.851   3.400   0.946 -0.4139  1.1075 -0.4149
13607SOL    HW145668   4.891   3.360   0.869  0.6821  1.1690  0.1270
13607SOL    HW245669   4.781   3.455   0.910  0.6298  1.7968 -1.4347
13608SOL     OW45670   3.409   5.424   0.944  0.2017 -0.1273 -0.4672
13608SOL    HW145671   3.399   5.495   0.880 -3.7700 -0.4929 -0.4311
13608SOL    HW245672   3.413   5.344   0.890  2.2776 -0.0885 -0.4120
13609SOL     OW45673   6.129   5.837   2.861  0.5942 -0.9485  0.1576
13609SOL    HW145674   6.178   5.919   2.852  0.7766 -1.3120 -2.5699
13609SOL    HW245675   6.196   5.769   2.864  0.3499 -1.2380 -0.8264
13610SOL     OW45676   1.811   5.248   1.728 -0.0917  0.0846  0.7166
13610SOL    HW145677   1.830   5.341   1.743 -1.4226  0.3884  0.5724
13610SOL    HW245678   1.892   5.203   1.753  0.5413  1.2733  0.8602
13611SOL     OW45679   3.566   4.746   2.861 -0.0395 -0.0133  0.3878
13611SOL    HW145680   3.551   4.835   2.828  2.3246  0.5912  0.8916
13611SOL    HW245681   3.486   4.726   2.910 -1.5642  0.9373 -1.6004
13612SOL     OW45682   4.721   4.301   2.138  0.0750 -0.5554 -0.0575
13612SOL    HW145683   4.729   4.245   2.061 -2.0924  0.5747 -1.1644
13612SOL    HW245684   4.787   4.370   2.125 -0.7858  0.0446 -1.2864
13613SOL     OW45685   2.931   2.551   0.470 -0.0501 -0.1268 -0.3951
13613SOL    HW145686   2.874   2.617   0.510  1.3048  1.3755 -0.8884
13613SOL    HW245687   2.988   2.521   0.541 -0.2605 -0.3235 -0.3092
13614SOL     OW45688   5.093   4.595   0.801 -0.0360  0.6436 -0.3320
13614SOL    HW145689   5.092   4.626   0.892  0.5951  0.4079 -0.2399
13614SOL    HW245690   5.001   4.591   0.776 -0.1543  2.1458 -0.1950
13615SOL     OW45691   3.121   4.104   8.911 -0.3357 -0.2585  0.2376
13615SOL    HW145692   3.123   4.070   8.822  2.0014 -1.3395  0.6530
13615SOL    HW245693   3.169   4.187   8.906 -0.9802  0.1185  0.3146
13616SOL     OW45694   6.703   3.634   9.915 -0.1212  0.0284  0.0098
13616SOL    HW145695   6.673   3.631   9.824 -1.1653  0.9757  0.3149
13616SOL    HW245696   6.731   3.724   9.929 -1.1942  0.2176  1.0157
13617SOL     OW45697   2.608   5.191   0.532 -0.0023 -0.0936 -0.1013
13617SOL    HW145698   2.603   5.154   0.443 -1.4627 -0.6459  0.1994
13617SOL    HW245699   2.659   5.127   0.582  0.5097  0.0406 -0.4421
13618SOL     OW45700   3.114   5.330   9.840  0.4101 -0.5494 -0.1282
13618SOL    HW145701   3.062   5.374   9.907  2.1273  0.2579  0.6951
13618SOL    HW245702   3.144   5.400   9.782  0.9796 -0.9524 -0.3271
13619SOL     OW45703   3.531   3.595   0.694  0.0317  0.1417 -0.0324
13619SOL    HW145704   3.534   3.586   0.599  2.3950 -0.8429  0.0761
13619SOL    HW245705   3.490   3.679   0.710 -0.9435  0.0455 -1.9021
13620SOL     OW45706   6.479   5.169   3.788  0.0910 -0.3325  0.1440
13620SOL    HW145707   6.550   5.233   3.784  1.2025 -1.5013  0.9439
13620SOL    HW245708   6.478   5.140   3.880 -2.5495  0.9463  0.5582
13621SOL     OW45709   4.248   6.124   0.420  0.0435 -0.1592 -0.6425
13621SOL    HW145710   4.256   6.034   0.454 -0.3245 -0.9053 -2.4637
13621SOL    HW245711   4.273   6.179   0.494 -0.2844 -1.7371  0.6959
13622SOL     OW45712   5.904   4.424   2.540 -0.0091 -0.1421  0.2097
13622SOL    HW145713   5.812   4.402   2.522 -0.2830  0.3789  0.9180
13622SOL    HW245714   5.902   4.518   2.561  0.7488 -0.0346 -0.1779
13623SOL     OW45715   2.993   3.157   9.011 -0.1996 -0.0142 -0.3897
13623SOL    HW145716   2.949   3.200   8.938 -1.1753 -0.1169  0.1297
13623SOL    HW245717   2.923   3.113   9.060  0.3304  0.6510  1.0143
13624SOL     OW45718   3.896   3.673   0.108 -0.2724 -0.6606  0.0519
13624SOL    HW145719   3.883   3.579   0.094 -0.2357 -0.4883 -1.1511
13624SOL    HW245720   3.807   3.710   0.107 -0.2220 -0.5451 -0.5166
13625SOL     OW45721   5.544   3.628   2.583 -0.6992 -0.2251 -0.1680
13625SOL    HW145722   5.552   3.689   2.510  0.9315  0.8795  0.9111
13625SOL    HW245723   5.486   3.671   2.645  0.3193  0.1710  0.5204
13626SOL     OW45724   3.036   4.682   0.956 -0.5700 -0.3735 -0.3128
13626SOL    HW145725   3.068   4.701   0.868 -0.5836  1.8970  0.1609
13626SOL    HW245726   2.945   4.711   0.956 -0.2526  0.6608  0.7682
13627SOL     OW45727   4.042   4.731   0.408  0.7196  0.0642 -0.2234
13627SOL    HW145728   3.994   4.670   0.464  2.8350 -0.7519  0.7841
13627SOL    HW245729   4.108   4.769   0.466 -0.2890  3.0508 -0.9500
13628SOL     OW45730   3.869   5.517   0.361  0.2495  0.0010  0.4069
13628SOL    HW145731   3.780   5.481   0.350 -0.2403  0.9586  1.1873
13628SOL    HW245732   3.884   5.517   0.455  2.2554 -2.9031  0.1599
13629SOL     OW45733   4.469   4.215   0.362 -0.0047  0.1918  0.0056
13629SOL    HW145734   4.558   4.225   0.396 -0.1455  0.2166  0.3642
13629SOL    HW245735   4.416   4.277   0.412 -0.7404 -1.7531  1.7331
13630SOL     OW45736   5.123   5.331   9.937 -0.6919  0.5633 -0.4521
13630SOL    HW145737   5.085   5.400   9.883  0.5960  0.8599 -1.0149
13630SOL    HW245738   5.148   5.374  10.019 -1.1281  0.4726 -0.2713
13631SOL     OW45739   5.238   5.029   2.256  0.0367 -0.0021  0.9704
13631SOL    HW145740   5.237   5.090   2.330  1.6519  2.1661 -0.7575
13631SOL    HW245741   5.184   5.071   2.189 -1.4981 -2.0027  0.8918
13632SOL     OW45742   3.858   3.800   9.698 -0.0519 -0.1272 -0.5430
13632SOL    HW145743   3.886   3.799   9.790  0.5300  0.1893 -0.7147
13632SOL    HW245744   3.934   3.766   9.650  0.6671  2.2903 -1.1850
13633SOL     OW45745   3.071   6.072   0.791 -0.2697 -0.2421 -0.3225
13633SOL    HW145746   3.051   6.049   0.700 -0.8332 -0.7824 -0.0671
13633SOL    HW245747   2.986   6.089   0.831  0.1070  2.3244 -0.4856
13634SOL     OW45748   4.481   6.214   1.141  0.5247  0.9515 -0.3003
13634SOL    HW145749   4.549   6.148   1.154 -2.1613 -1.8306  0.3607
13634SOL    HW245750   4.457   6.205   1.048 -1.6063 -0.8811  0.3793
13635SOL     OW45751   5.670   3.255   1.076 -0.1261 -0.3668  0.2618
13635SOL    HW145752   5.615   3.333   1.078 -0.7078 -0.7871  0.7168
13635SOL    HW245753   5.665   3.225   0.985  0.9969  0.7574 -0.1774
13636SOL     OW45754   3.249   4.743   1.194 -0.1838  0.5114 -0.3309
13636SOL    HW145755   3.165   4.786   1.183 -0.2257  0.3821 -0.5076
13636SOL    HW245756   3.247   4.668   1.135 -0.0181  0.3996 -0.1994
13637SOL     OW45757   3.144   4.070   1.523  0.3312  0.0287 -0.2361
13637SOL    HW145758   3.132   4.083   1.617 -1.5079  0.0223 -0.4498
13637SOL    HW245759   3.058   4.084   1.486  0.6552 -1.6978 -1.7370
13638SOL     OW45760   2.547   5.903   2.243  0.7243  0.0055 -0.5476
13638SOL    HW145761   2.462   5.860   2.245  0.1496  1.0803 -1.1826
13638SOL    HW245762   2.603   5.850   2.299 -0.6051 -0.1999  0.6078
13639SOL     OW45763   5.130   5.593   0.962 -0.3929 -0.9011 -0.1380
13639SOL    HW145764   5.189   5.586   0.887 -0.2602  0.8717 -0.2268
13639SOL    HW245765   5.185   5.577   1.038  0.2038  0.6692 -0.2248
13640SOL     OW45766   4.584   4.234   1.053 -0.6974  0.4955  0.0172
13640SOL    HW145767   4.550   4.209   1.139 -1.5983 -0.8459 -0.7050
13640SOL    HW245768   4.519   4.295   1.018 -0.2385  1.1848  0.3502
13641SOL     OW45769   5.067   5.779   3.116  0.1066  0.1523 -0.1105
13641SOL    HW145770   5.012   5.765   3.039  0.0215 -0.8636  0.1199
13641SOL    HW245771   5.037   5.713   3.178  0.6552  0.5023  0.5303
13642SOL     OW45772   4.740   2.927   0.955  0.4023 -0.3903  0.3925
13642SOL    HW145773   4.784   3.000   1.000 -0.0240  0.4049 -0.4590
13642SOL    HW245774   4.770   2.935   0.864 -2.6283  1.0584 -0.5272
13643SOL     OW45775   4.021   2.382   0.639 -0.1603  0.0452  0.0838
13643SOL    HW145776   4.072   2.445   0.588 -0.4456  0.7479  0.6532
13643SOL    HW245777   3.968   2.336   0.573 -0.8748  1.2749 -0.2270
13644SOL     OW45778   5.316   2.775   0.880 -0.2686  0.0234 -0.3891
13644SOL    HW145779   5.292   2.829   0.805  1.5045  0.4834 -0.6391
13644SOL    HW245780   5.284   2.823   0.956  1.0079  1.2571 -0.6314
13645SOL     OW45781   3.248   4.863   9.267 -0.2585 -0.7600 -0.4532
13645SOL    HW145782   3.342   4.878   9.268 -0.3429 -0.1999 -0.9032
13645SOL    HW245783   3.238   4.779   9.222  0.0804 -1.2787  0.4165
13646SOL     OW45784   2.455   5.784   2.964  0.2063 -0.5411  0.1433
13646SOL    HW145785   2.377   5.731   2.979  0.3282 -0.4655  1.0298
13646SOL    HW245786   2.452   5.852   3.030 -0.0443  0.6838 -1.1073
13647SOL     OW45787   4.207   3.456   4.069 -0.4810 -0.1836  0.0807
13647SOL    HW145788   4.201   3.360   4.061  0.1872  0.0298 -4.0057
13647SOL    HW245789   4.141   3.490   4.008 -0.3014  1.9649  1.0457
13648SOL     OW45790   2.681   4.569   0.381 -0.2478 -0.2627 -0.2130
13648SOL    HW145791   2.621   4.619   0.437  0.3906  0.8361 -0.4996
13648SOL    HW245792   2.663   4.477   0.403  0.1591  0.1504  1.9640
13649SOL     OW45793   6.207   5.423   3.012 -0.1660 -0.8017 -0.1058
13649SOL    HW145794   6.247   5.344   2.976 -2.0163 -2.1385  0.6355
13649SOL    HW245795   6.201   5.405   3.106 -1.8899 -0.4024 -0.1260
13650SOL     OW45796   3.362   6.390   2.782 -0.2941  0.0963  0.2848
13650SOL    HW145797   3.276   6.433   2.777 -0.7488 -0.9187 -0.9771
13650SOL    HW245798   3.408   6.420   2.704  0.4264  0.4696  0.8495
13651SOL     OW45799   6.382   4.433   2.157 -0.1277 -0.1110  0.2446
13651SOL    HW145800   6.427   4.424   2.241  1.4969 -1.1485 -0.7139
13651SOL    HW245801   6.294   4.460   2.180  1.0403  2.2832  2.1746
13652SOL     OW45802   5.095   4.208   2.001 -0.2716  0.1566  0.6060
13652SOL    HW145803   5.043   4.284   2.025 -0.7378  0.3273 -0.9592
13652SOL    HW245804   5.170   4.243   1.953  0.5683 -0.2143  1.6025
13653SOL     OW45805   4.292   3.617   1.265 -0.1787 -0.0114 -0.3219
13653SOL    HW145806   4.260   3.688   1.210  0.4007 -0.2953 -1.0258
13653SOL    HW245807   4.333   3.661   1.340  0.5607  0.4052 -0.9695
13654SOL     OW45808   4.144   3.302   3.537  0.0200 -0.1656  0.3009
13654SOL    HW145809   4.112   3.213   3.524 -1.0112 -0.1752  2.6920
13654SOL    HW245810   4.215   3.311   3.474  0.5174 -2.8753  0.4042
13655SOL     OW45811   3.346   3.912   1.470 -0.4543  0.3105  0.6320
13655SOL    HW145812   3.416   3.977   1.465 -0.6433  0.3440 -2.5283
13655SOL    HW245813   3.268   3.962   1.496 -0.3725  1.1739 -0.7457
13656SOL     OW45814   2.947   5.976   2.809  0.1868  0.3373  0.1835
13656SOL    HW145815   2.879   5.987   2.877  1.5598  1.1864  1.4469
13656SOL    HW245816   3.008   5.912   2.846  0.1663 -0.3119 -0.8899
13657SOL     OW45817   3.271   4.393   3.307 -0.1963  0.2110  0.3974
13657SOL    HW145818   3.278   4.299   3.324 -0.7160  0.1721  0.4240
13657SOL    HW245819   3.245   4.430   3.391 -0.1605  0.3559  0.3442
13658SOL     OW45820   5.049   5.086   2.939  0.0379 -0.2746  0.1243
13658SOL    HW145821   5.071   5.000   2.903 -0.3504  0.0261 -0.8539
13658SOL    HW245822   4.954   5.089   2.935  0.0682  0.3072 -0.0812
13659SOL     OW45823   5.598   3.001   3.250  0.3711  0.1687  1.2501
13659SOL    HW145824   5.550   3.016   3.332 -0.9884 -3.1977  1.1538
13659SOL    HW245825   5.533   3.017   3.182  0.1837 -1.5124  1.0179
13660SOL     OW45826   5.496   5.249   1.548 -0.6451  0.1979  0.2899
13660SOL    HW145827   5.565   5.197   1.507 -0.6242 -0.3852  1.0451
13660SOL    HW245828   5.424   5.188   1.562 -0.6959  0.4112  1.0061
13661SOL     OW45829   4.954   5.030   1.114  0.7342 -0.0202  0.1090
13661SOL    HW145830   4.868   5.013   1.152  1.7912 -2.0650  1.6839
13661SOL    HW245831   4.973   4.953   1.061  1.6348  0.3765 -0.1563
13662SOL     OW45832   5.568   5.648   1.983  0.3232  0.5317  0.4910
13662SOL    HW145833   5.663   5.651   1.999  0.3268  0.8674  0.4072
13662SOL    HW245834   5.559   5.588   1.909  0.5415  1.1198 -0.0208
13663SOL     OW45835   4.107   2.942   1.429 -0.6477  0.0533  0.0743
13663SOL    HW145836   4.109   3.017   1.369 -1.2181 -0.3362 -0.4495
13663SOL    HW245837   4.015   2.917   1.431 -0.2847 -1.4022 -0.7354
13664SOL     OW45838   4.806   7.129   3.205  0.6154  0.1231  0.1318
13664SOL    HW145839   4.803   7.148   3.111  0.3435 -0.5258  0.0054
13664SOL    HW245840   4.898   7.134   3.228  0.7818 -0.5953 -0.3605
13665SOL     OW45841   4.603   4.226   1.329  0.0562  0.1654 -0.4073
13665SOL    HW145842   4.573   4.299   1.382  1.8478 -0.6686  1.8229
13665SOL    HW245843   4.680   4.260   1.283  0.2815 -0.0029 -0.1568
13666SOL     OW45844   3.305   3.202   1.402 -0.4826  0.6404 -0.3327
13666SOL    HW145845   3.280   3.224   1.492  2.4113 -0.3515  0.7782
13666SOL    HW245846   3.354   3.278   1.372  3.5058 -1.2613  1.0385
13667SOL     OW45847   3.697   3.929   1.139 -0.1391 -0.5955 -0.1296
13667SOL    HW145848   3.637   3.893   1.204 -0.1676 -1.9448 -0.8872
13667SOL    HW245849   3.738   3.852   1.099  0.4096  0.2438 -1.1978
13668SOL     OW45850   6.596   4.926   1.061 -0.1823  0.0812 -0.8005
13668SOL    HW145851   6.684   4.894   1.042 -0.2584 -1.8556  1.8957
13668SOL    HW245852   6.539   4.876   1.003  0.0599 -2.2062  0.8875
13669SOL     OW45853   3.068   6.093   3.775 -0.9952 -0.6859  0.4252
13669SOL    HW145854   3.155   6.105   3.814  0.1392 -1.4926 -1.7842
13669SOL    HW245855   3.058   5.998   3.768 -1.3032 -0.5652 -0.9133
13670SOL     OW45856   4.913   3.632   0.367  0.5570 -0.0468 -0.2602
13670SOL    HW145857   4.851   3.609   0.298 -2.4534  0.3289  2.1959
13670SOL    HW245858   4.967   3.554   0.378 -1.9144 -1.7807 -0.0036
13671SOL     OW45859   5.898   5.277   1.702 -0.3794 -0.1204  0.5761
13671SOL    HW145860   5.943   5.235   1.775  0.4483  2.0000  1.3460
13671SOL    HW245861   5.950   5.253   1.625  0.8228  0.5184  1.1764
13672SOL     OW45862   5.098   3.529   2.177  0.0465  0.0381  0.0724
13672SOL    HW145863   5.169   3.465   2.180 -0.2736 -0.4324 -1.6032
13672SOL    HW245864   5.025   3.483   2.136 -0.4408  1.2300 -0.4431
13673SOL     OW45865   5.672   5.209   2.390  0.0988  0.2644 -0.1185
13673SOL    HW145866   5.637   5.121   2.405 -0.7542  0.7492  0.8006
13673SOL    HW245867   5.646   5.231   2.300 -1.5843  0.4299  0.3818
13674SOL     OW45868   3.100   5.253   2.917  0.6508 -0.0759  0.5847
13674SOL    HW145869   3.136   5.314   2.853 -1.9590  3.1302  2.0097
13674SOL    HW245870   3.033   5.204   2.869  0.0060  1.0033  0.3689
13675SOL     OW45871   2.708   3.723   1.079  0.0575  0.1770  0.0896
13675SOL    HW145872   2.618   3.710   1.111  0.2054  0.9907  0.8540
13675SOL    HW245873   2.699   3.724   0.983 -0.6240 -0.6011  0.1365
13676SOL     OW45874   3.020   4.272   2.349 -0.2791 -0.6415 -0.0628
13676SOL    HW145875   3.041   4.182   2.323 -0.0830 -0.6574  0.1522
13676SOL    HW245876   3.057   4.281   2.437  0.9919  0.1150 -0.6555
13677SOL     OW45877   4.259   2.420   2.573  0.3158 -0.2351 -0.1105
13677SOL    HW145878   4.200   2.354   2.610  0.5571 -0.1173  0.4849
13677SOL    HW245879   4.211   2.456   2.499  0.2147 -1.1458 -0.5020
13678SOL     OW45880   4.977   6.562   2.476  0.3671 -0.0777 -0.2616
13678SOL    HW145881   5.068   6.570   2.507  0.2730  1.4765 -0.3621
13678SOL    HW245882   4.985   6.519   2.391  0.9504 -0.4987 -0.0053
13679SOL     OW45883   6.168   4.330   3.055  0.1992 -0.1632 -0.0091
13679SOL    HW145884   6.140   4.352   3.144 -0.9159 -0.2439 -0.3320
13679SOL    HW245885   6.237   4.394   3.036 -0.3731  0.6142  0.4798
13680SOL     OW45886   3.522   4.338   1.327 -0.0596 -0.4854  0.2291
13680SOL    HW145887   3.617   4.341   1.318  0.0318 -1.9906  0.5465
13680SOL    HW245888   3.489   4.344   1.238  0.2405  2.2444  0.2620
13681SOL     OW45889   4.678   6.658   1.253  0.0609 -0.4090 -0.1454
13681SOL    HW145890   4.585   6.680   1.249 -0.2139 -1.0286  2.1137
13681SOL    HW245891   4.694   6.607   1.174 -1.1877  0.8551 -1.2437
13682SOL     OW45892   4.363   3.631   3.286 -0.1273  0.1658  0.6342
13682SOL    HW145893   4.290   3.571   3.303  0.0638  0.3543  2.1240
13682SOL    HW245894   4.408   3.592   3.211 -1.4950 -0.1847 -0.0183
13683SOL     OW45895   3.305   4.825   3.146 -0.3208 -0.3955  0.4166
13683SOL    HW145896   3.318   4.757   3.079  1.1376  1.6535 -1.4723
13683SOL    HW245897   3.210   4.829   3.157 -0.7392  0.3332 -2.8088
13684SOL     OW45898   6.198   5.929   0.984 -0.4812 -0.0185  0.3729
13684SOL    HW145899   6.244   5.939   1.067 -0.7134  1.0444  0.3848
13684SOL    HW245900   6.193   6.018   0.949  2.9467 -0.8540 -2.5658
13685SOL     OW45901   4.058   2.130   1.371 -0.5776  0.7036 -0.1006
13685SOL    HW145902   3.997   2.204   1.370 -0.2179  1.0297  1.3768
13685SOL    HW245903   4.015   2.065   1.426  0.2506  0.8089  0.6874
13686SOL     OW45904   4.621   3.659   1.283  0.9361 -0.1898  0.3693
13686SOL    HW145905   4.714   3.679   1.294  1.0980 -0.6949 -0.0629
13686SOL    HW245906   4.576   3.725   1.335  1.4459  1.5358 -1.3226
13687SOL     OW45907   5.121   3.422   0.448 -0.1198  0.2095  0.4542
13687SOL    HW145908   5.145   3.461   0.532  2.1078  0.5436 -0.3127
13687SOL    HW245909   5.204   3.398   0.408 -1.3443 -4.4909  0.4605
13688SOL     OW45910   4.722   3.594   2.236  0.6617 -0.0482 -0.0946
13688SOL    HW145911   4.660   3.526   2.208  1.3231 -1.0304  0.8107
13688SOL    HW245912   4.774   3.613   2.157 -0.2072  0.1598 -0.6229
13689SOL     OW45913   4.016   3.123   1.048 -0.2957  0.5416 -0.6177
13689SOL    HW145914   4.066   3.133   1.129 -0.2711 -0.0251 -0.5602
13689SOL    HW245915   4.064   3.057   0.998 -2.0121 -1.4153  0.2497
13690SOL     OW45916   4.960   8.684   3.876  0.4569  0.0779  0.4581
13690SOL    HW145917   4.943   8.759   3.819 -3.1560 -1.0950 -0.1682
13690SOL    HW245918   4.939   8.716   3.964  0.5697  0.3216  0.3945
13691SOL     OW45919   4.564   3.961   0.629 -0.8396  0.3507 -0.0208
13691SOL    HW145920   4.509   3.893   0.668 -0.0144 -0.1604  0.2636
13691SOL    HW245921   4.599   4.009   0.704  0.3177 -0.2921 -0.1387
13692SOL     OW45922   4.283   4.507   1.294  0.4239 -0.6786 -0.2286
13692SOL    HW145923   4.336   4.577   1.257 -2.1526  1.3419 -0.2645
13692SOL    HW245924   4.237   4.469   1.219  0.6789 -1.4068 -0.0190
13693SOL     OW45925   5.874   5.761   1.962  0.0377  0.2812 -0.1512
13693SOL    HW145926   5.837   5.810   2.036  1.3510  0.3746  0.4448
13693SOL    HW245927   5.866   5.821   1.888 -0.8470  0.3669 -0.0028
13694SOL     OW45928   5.091   2.718   0.441 -0.7766 -0.6179 -0.2410
13694SOL    HW145929   5.176   2.674   0.434 -0.8266 -0.6362 -0.7863
13694SOL    HW245930   5.059   2.694   0.528  0.7331  1.1331  0.8442
13695SOL     OW45931   4.707   2.915   1.786  0.3160 -0.6182  0.2438
13695SOL    HW145932   4.731   3.008   1.791  0.3457 -0.6915  1.7499
13695SOL    HW245933   4.634   2.912   1.725 -0.8983  0.6539  1.5946
13696SOL     OW45934   1.933   4.849   3.253  0.4117  0.5622  0.4406
13696SOL    HW145935   1.973   4.916   3.198  0.4893 -1.3847 -2.0231
13696SOL    HW245936   1.845   4.882   3.272  0.0919  0.9467 -1.5717
13697SOL     OW45937   4.114   3.707   1.988  0.6430 -0.5708  0.2971
13697SOL    HW145938   4.197   3.695   1.943 -0.3478 -1.6311 -1.2950
13697SOL    HW245939   4.115   3.798   2.016  1.8433 -0.2480 -0.7477
13698SOL     OW45940   6.019   6.866   0.971  0.2744  0.3830  0.0498
13698SOL    HW145941   5.990   6.896   0.885  1.0308  0.1615 -0.2842
13698SOL    HW245942   6.030   6.947   1.022  1.5833  0.6316 -0.6164
13699SOL     OW45943   3.954   5.285   0.712 -0.2765 -0.3265 -0.7776
13699SOL    HW145944   4.026   5.280   0.649 -0.4723  1.9981 -1.2191
13699SOL    HW245945   3.979   5.355   0.771 -1.3798 -0.6808  0.1242
13700SOL     OW45946   5.803   3.935   2.512  0.6993  0.7347 -0.1159
13700SOL    HW145947   5.857   3.864   2.545 -0.8903 -0.8962 -0.9838
13700SOL    HW245948   5.839   3.955   2.425  1.2576  1.1355  0.2023
13701SOL     OW45949   4.318   5.010   2.487  1.1562  0.6709  0.5262
13701SOL    HW145950   4.252   5.019   2.555  0.5451  1.1159 -0.1178
13701SOL    HW245951   4.356   5.098   2.478  0.1056  1.0056 -0.8286
13702SOL     OW45952   4.698   6.508   1.740 -0.1872  0.2750  0.1094
13702SOL    HW145953   4.649   6.582   1.705 -1.0006 -0.8386 -1.1414
13702SOL    HW245954   4.646   6.480   1.816 -0.2713  0.5251  0.1456
13703SOL     OW45955   3.230   3.153   2.380  0.3513 -0.7629 -0.4997
13703SOL    HW145956   3.148   3.125   2.419 -0.0983  0.5360 -0.5205
13703SOL    HW245957   3.293   3.085   2.406 -0.6150 -1.5212 -0.1185
13704SOL     OW45958   5.761   5.727   1.062 -0.4447 -0.2007  0.1196
13704SOL    HW145959   5.753   5.810   1.014 -0.9812 -0.5181 -0.3544
13704SOL    HW245960   5.851   5.726   1.093 -1.0897  1.6841  2.1989
13705SOL     OW45961   2.986   5.555   2.073  0.0935  0.4666 -0.1984
13705SOL    HW145962   2.897   5.589   2.069 -0.2397 -0.2677  0.8279
13705SOL    HW245963   3.011   5.563   2.165  0.9794  0.3810 -0.4222
13706SOL     OW45964   3.640   7.396   3.502 -0.0164 -0.4799 -0.4825
13706SOL    HW145965   3.638   7.390   3.598  0.7462  1.1345 -0.3518
13706SOL    HW245966   3.656   7.489   3.484 -0.1996 -0.7655 -2.1808
13707SOL     OW45967   4.252   4.732   2.007 -0.1460 -0.1224 -0.0353
13707SOL    HW145968   4.336   4.688   1.991 -1.4008 -3.0579  1.0923
13707SOL    HW245969   4.270   4.790   2.082  1.0593 -0.1011 -0.3248
13708SOL     OW45970   4.644   3.358   2.076 -1.2256  0.3590 -0.0566
13708SOL    HW145971   4.638   3.426   2.008  0.7479 -1.9165 -2.6020
13708SOL    HW245972   4.737   3.341   2.084 -1.6380 -1.3021  1.3581
13709SOL     OW45973   4.692   3.837   2.927 -0.1941  0.0708 -0.4330
13709SOL    HW145974   4.783   3.836   2.956  0.1060 -1.4361 -1.3500
13709SOL    HW245975   4.696   3.875   2.839 -0.2073 -1.5669 -1.1605
13710SOL     OW45976   3.212   2.418   1.876  0.4869 -0.1207  0.5045
13710SOL    HW145977   3.285   2.438   1.817 -0.7868 -0.8285 -1.4012
13710SOL    HW245978   3.152   2.492   1.865  0.4335 -0.0615  1.2294
13711SOL     OW45979   4.115   6.970   2.144 -0.4791  0.2068 -0.6235
13711SOL    HW145980   4.058   6.991   2.071 -0.9918 -0.2789 -0.3696
13711SOL    HW245981   4.155   7.053   2.169 -1.2885  0.6018 -0.6219
13712SOL     OW45982   4.235   5.376   2.690 -0.3970 -0.7885 -0.0615
13712SOL    HW145983   4.262   5.349   2.778 -1.2648  0.7130  0.6774
13712SOL    HW245984   4.302   5.340   2.633 -0.2382 -2.4616  1.1241
13713SOL     OW45985   5.135   1.549   3.110 -0.4410  0.4330 -0.5425
13713SOL    HW145986   5.056   1.600   3.127 -0.9326 -0.6930  0.5961
13713SOL    HW245987   5.114   1.461   3.140  1.3136  0.1583 -0.0530
13714SOL     OW45988   5.891   5.710   0.579  0.0471 -0.5111  0.7299
13714SOL    HW145989   5.960   5.754   0.629 -0.3845  2.8077 -1.4345
13714SOL    HW245990   5.811   5.755   0.604 -0.9726 -2.4928  1.1226
13715SOL     OW45991   4.491   4.596   2.020  0.1050  0.4521 -0.1225
13715SOL    HW145992   4.575   4.637   2.041  0.3376  0.6011 -1.3458
13715SOL    HW245993   4.505   4.553   1.936 -0.5826 -0.8876  0.4252
13716SOL     OW45994   3.814   3.993   2.886  0.1187  0.3820  0.3706
13716SOL    HW145995   3.742   4.056   2.876 -0.1464  0.0793  0.3310
13716SOL    HW245996   3.773   3.908   2.867  0.2318  0.0835  1.4178
13717SOL     OW45997   5.168   5.306   3.065  0.1428  0.6966  0.2087
13717SOL    HW145998   5.218   5.280   3.142 -3.4138 -0.4336  2.2911
13717SOL    HW245999   5.134   5.224   3.029 -1.4241  1.5190 -0.2407
13718SOL     OW46000   3.037   3.893   1.132  0.2489  0.3144 -0.4566
13718SOL    HW146001   2.977   3.819   1.146 -2.9979  3.0251  0.6921
13718SOL    HW246002   3.021   3.919   1.042 -0.0349  0.7595 -0.2824
13719SOL     OW46003   3.890   3.605   1.832 -0.3924  0.7749  0.0225
13719SOL    HW146004   3.907   3.601   1.738  0.6555 -1.6767  0.2727
13719SOL    HW246005   3.976   3.617   1.872 -0.7623  1.2366  0.6940
13720SOL     OW46006   6.113   3.702   1.876 -0.0167  0.6230 -0.2549
13720SOL    HW146007   6.034   3.664   1.913 -1.2130  2.8717 -0.4516
13720SOL    HW246008   6.097   3.706   1.782  0.6998  0.2952 -0.4014
13721SOL     OW46009   4.563   5.236   2.082 -0.1651  0.3695  0.4950
13721SOL    HW146010   4.530   5.292   2.152  1.8985  0.1939  1.6379
13721SOL    HW246011   4.505   5.160   2.083 -0.8270  0.8778  1.2801
13722SOL     OW46012   3.088   4.577   2.710  0.1320 -0.2411 -0.1125
13722SOL    HW146013   2.995   4.592   2.728  0.6847  0.4383  2.3414
13722SOL    HW246014   3.091   4.492   2.667 -1.6949  0.1205 -1.0030
13723SOL     OW46015   4.868   3.116   1.117  0.7199  0.2081  0.0089
13723SOL    HW146016   4.875   3.195   1.171  2.0956  0.7199 -0.8802
13723SOL    HW246017   4.851   3.046   1.180 -1.6246  1.3589  0.6958
13724SOL     OW46018   4.068   4.826   0.852 -0.3397  0.0695  0.3459
13724SOL    HW146019   4.154   4.861   0.878  0.0053  0.4061 -1.1808
13724SOL    HW246020   4.062   4.844   0.759 -1.9068 -0.3441  0.3476
13725SOL     OW46021   3.183   3.734   2.529  0.6243  0.4010 -0.4235
13725SOL    HW146022   3.226   3.670   2.586  0.7514  0.2210 -0.7169
13725SOL    HW246023   3.093   3.703   2.521  0.5224  0.6073 -0.0555
13726SOL     OW46024   3.673   2.677   2.506  0.4569 -0.3234  0.2622
13726SOL    HW146025   3.709   2.592   2.531 -0.3572 -0.8726 -0.3945
13726SOL    HW246026   3.609   2.697   2.575  0.0814 -0.6194  0.0031
13727SOL     OW46027   5.636   4.289   0.711 -0.3613  0.0977 -0.1265
13727SOL    HW146028   5.728   4.275   0.735 -0.3291  0.1492 -0.2187
13727SOL    HW246029   5.639   4.315   0.619 -0.4597  0.1939 -0.1036
13728SOL     OW46030   4.231   4.042   1.658 -0.2211 -0.3879 -0.5291
13728SOL    HW146031   4.325   4.040   1.639 -0.0600 -1.2613  0.3671
13728SOL    HW246032   4.221   4.110   1.724 -0.2769 -0.0540 -0.8747
13729SOL     OW46033   4.418   4.248   3.063  0.1548 -0.0269  0.1223
13729SOL    HW146034   4.371   4.189   3.003 -0.4238  0.9770 -0.4162
13729SOL    HW246035   4.409   4.206   3.149 -1.3138 -0.0997 -0.0541
13730SOL     OW46036   6.225   3.954   3.143 -0.3468  0.2805 -0.0032
13730SOL    HW146037   6.139   3.984   3.113  0.2055 -0.3708 -2.4009
13730SOL    HW246038   6.217   3.949   3.238 -2.9247  0.3392 -0.1696
13731SOL     OW46039   3.661   4.312   2.106  0.2351  0.4492  0.4060
13731SOL    HW146040   3.582   4.260   2.122  0.0852  0.2355 -0.9696
13731SOL    HW246041   3.661   4.328   2.012  1.4422  1.0884  0.4984
13732SOL     OW46042   6.239   2.791   2.475  0.2306  0.1269 -0.5595
13732SOL    HW146043   6.267   2.875   2.439  2.3641 -0.0510  0.5814
13732SOL    HW246044   6.259   2.728   2.406 -1.1704  0.5105 -1.3317
13733SOL     OW46045   5.996   7.040   3.719 -0.2362 -0.0496  0.4779
13733SOL    HW146046   5.973   7.059   3.809  0.6448  4.0562 -0.0594
13733SOL    HW246047   6.091   7.051   3.716 -0.2606 -0.1234 -0.9360
13734SOL     OW46048   4.380   1.402   2.515 -0.0228  0.8339  0.1752
13734SOL    HW146049   4.376   1.476   2.454  2.6863  0.3061 -0.6862
13734SOL    HW246050   4.470   1.403   2.548 -0.1590 -1.6457  0.6885
13735SOL     OW46051   6.546   5.698   2.765  0.0315  0.0693  0.2699
13735SOL    HW146052   6.522   5.739   2.682 -0.5165  1.7822  1.2466
13735SOL    HW246053   6.474   5.639   2.785 -0.0388 -0.0240 -0.2364
13736SOL     OW46054   5.364   4.086   2.161  0.0825 -0.0775 -0.0656
13736SOL    HW146055   5.327   4.174   2.156 -0.6656 -0.3353  0.8127
13736SOL    HW246056   5.376   4.060   2.070 -2.8640 -0.3608 -0.4295
13737SOL     OW46057   7.774   4.470   3.498  0.0826  0.1668  0.4009
13737SOL    HW146058   7.817   4.421   3.567 -0.0334  1.2814  1.2852
13737SOL    HW246059   7.723   4.405   3.449  1.8734 -0.9762  0.0230
13738SOL     OW46060   5.951   6.545   1.914  0.0726 -0.6793 -0.6574
13738SOL    HW146061   5.912   6.627   1.884 -0.5836 -0.8680 -0.3425
13738SOL    HW246062   5.877   6.485   1.922 -0.0866 -0.1383  3.0075
13739SOL     OW46063   6.402   6.451   2.887  0.4193  0.0340 -0.1729
13739SOL    HW146064   6.451   6.419   2.811 -0.8116 -1.7162 -0.2448
13739SOL    HW246065   6.459   6.432   2.962  1.1674  0.7869 -0.5424
13740SOL     OW46066   3.212   3.537   3.371  0.2775  0.3355 -0.1132
13740SOL    HW146067   3.225   3.456   3.421  0.5843 -0.2889 -1.1992
13740SOL    HW246068   3.132   3.575   3.408  1.0380  0.3887  1.5185
13741SOL     OW46069   3.751   3.742   2.047  0.3031  0.6245  0.5953
13741SOL    HW146070   3.655   3.733   2.052  0.0688  2.5162 -0.0323
13741SOL    HW246071   3.775   3.692   1.969 -0.0254 -0.7229  1.3298
13742SOL     OW46072   2.871   2.489   0.019 -0.0673  0.4183  0.1170
13742SOL    HW146073   2.939   2.426   0.043 -1.5707 -2.0990 -1.9860
13742SOL    HW246074   2.811   2.490   0.094  0.5564  0.1917  0.6250
13743SOL     OW46075   3.210   5.072   0.585 -0.2132 -0.0128  0.4404
13743SOL    HW146076   3.293   5.061   0.538 -0.4871 -1.0389  0.1838
13743SOL    HW246077   3.171   5.151   0.547  1.0468  0.9651  1.1697
13744SOL     OW46078   2.721   4.194   2.226 -0.0690  0.0726  0.1736
13744SOL    HW146079   2.783   4.251   2.180 -0.5279  2.4480  2.3768
13744SOL    HW246080   2.743   4.105   2.197 -0.3554  1.4419 -4.5907
13745SOL     OW46081   3.715   8.611   2.917 -0.0139  0.1395 -0.3348
13745SOL    HW146082   3.715   8.519   2.892  1.1606 -0.1844  0.8442
13745SOL    HW246083   3.633   8.623   2.964 -0.8170  0.0393 -1.6627
13746SOL     OW46084   2.756   4.931   2.944  0.4534  0.2033 -0.2472
13746SOL    HW146085   2.843   4.897   2.964  0.0282 -0.1681  1.0339
13746SOL    HW246086   2.735   4.893   2.858  1.4015  0.0042 -0.3978
13747SOL     OW46087   3.095   4.328   2.626 -0.0081 -0.2466  0.3127
13747SOL    HW146088   3.049   4.291   2.701 -2.3659  0.1233 -0.9117
13747SOL    HW246089   3.188   4.322   2.649 -0.5295 -3.0368  1.9200
13748SOL     OW46090   4.620   4.057   2.404 -0.1613  0.1591 -0.6001
13748SOL    HW146091   4.605   4.111   2.327 -0.8006 -0.4597 -0.9201
13748SOL    HW246092   4.703   4.013   2.386  0.3823  1.0604 -0.3164
13749SOL     OW46093   4.399   5.137   0.901  0.1587  0.0398  0.1555
13749SOL    HW146094   4.402   5.188   0.821  2.8946 -0.6494 -0.2202
13749SOL    HW246095   4.433   5.195   0.969 -2.0671  0.5930  0.8519
13750SOL     OW46096   5.943   3.965   3.065  0.0724  0.7788 -0.7618
13750SOL    HW146097   5.877   3.940   3.130 -0.2139  1.2487 -0.8699
13750SOL    HW246098   5.917   3.918   2.986  0.6891 -0.1622 -0.4105
13751SOL     OW46099   2.778   5.698   3.708  0.6453  0.3501 -0.1698
13751SOL    HW146100   2.727   5.627   3.747  1.3746 -2.4309 -3.9555
13751SOL    HW246101   2.736   5.778   3.739 -2.5200 -1.7671  1.2619
13752SOL     OW46102   7.379   6.303   0.987  0.8838 -0.0141 -0.2641
13752SOL    HW146103   7.366   6.279   0.896  0.4021 -0.9616  0.0539
13752SOL    HW246104   7.451   6.248   1.017  1.0100  0.2615 -0.0505
13753SOL     OW46105   5.317   6.629   1.636 -0.0252 -0.5731  0.3037
13753SOL    HW146106   5.365   6.572   1.576  0.1639  0.0894 -0.1738
13753SOL    HW246107   5.385   6.674   1.686 -0.1553 -0.1252  0.0815
13754SOL     OW46108   5.550   3.033   2.414 -0.4199  0.6905 -0.2978
13754SOL    HW146109   5.542   3.092   2.489 -3.0373  2.2704 -1.6885
13754SOL    HW246110   5.468   3.047   2.365 -0.1517 -2.5853 -1.7887
13755SOL     OW46111   2.652   4.360   1.907 -0.3575 -0.1987  0.4925
13755SOL    HW146112   2.588   4.340   1.839  0.4572 -0.5411 -0.1868
13755SOL    HW246113   2.621   4.441   1.947  0.0245  0.8670 -1.3601
13756SOL     OW46114   5.030   4.729   3.007 -0.8297 -0.4287  0.2584
13756SOL    HW146115   4.977   4.736   2.928 -0.6902  0.0893  0.2107
13756SOL    HW246116   4.972   4.759   3.077 -0.4974  0.4682  0.1608
13757SOL     OW46117   5.548   2.125   2.275  0.0197 -0.1620  0.2125
13757SOL    HW146118   5.505   2.166   2.350 -1.4793 -0.7321 -0.3097
13757SOL    HW246119   5.622   2.078   2.312 -0.7508 -0.4961  1.3491
13758SOL     OW46120   4.630   3.085   2.213 -0.2008 -0.0772 -0.1762
13758SOL    HW146121   4.598   3.086   2.303  2.2749 -0.8757  0.7581
13758SOL    HW246122   4.723   3.062   2.221  0.6074  2.0451 -2.7477
13759SOL     OW46123   4.107   4.417   1.857  0.1056 -0.2666  0.0350
13759SOL    HW146124   4.041   4.476   1.895  0.4951  0.8476 -0.9759
13759SOL    HW246125   4.180   4.421   1.919 -0.1311 -0.2078  0.3153
13760SOL     OW46126   5.542   5.536   3.215  0.1445 -0.0138 -0.1192
13760SOL    HW146127   5.513   5.609   3.161 -1.6207 -0.2767  0.4493
13760SOL    HW246128   5.461   5.500   3.253  1.0722 -1.6551  0.3633
13761SOL     OW46129   4.293   2.713   3.491  0.3163 -0.3652 -0.5343
13761SOL    HW146130   4.231   2.677   3.555  0.7285 -1.0468 -0.5104
13761SOL    HW246131   4.338   2.783   3.538  0.8398 -1.0707  0.0396
13762SOL     OW46132   7.339   6.762   3.083 -0.1777 -0.0638  0.0269
13762SOL    HW146133   7.336   6.748   3.178 -0.3888 -0.3604 -0.0240
13762SOL    HW246134   7.423   6.805   3.068  0.1320 -0.5821  0.2733
13763SOL     OW46135   3.178   2.535   2.816 -0.0123 -0.0972 -0.0409
13763SOL    HW146136   3.259   2.490   2.793 -0.5419 -1.0434 -0.1195
13763SOL    HW246137   3.192   2.568   2.904  0.7538  0.4539 -0.3664
13764SOL     OW46138   5.693   4.070   1.993  0.5459  0.1834 -0.6115
13764SOL    HW146139   5.610   4.033   1.962 -0.4327  2.3840 -0.6966
13764SOL    HW246140   5.760   4.019   1.948 -0.7746 -1.0519 -1.2218
13765SOL     OW46141   5.817   2.520   2.975 -0.5177  0.3262 -0.1908
13765SOL    HW146142   5.745   2.499   2.916 -0.6525  2.4201 -0.8053
13765SOL    HW246143   5.839   2.611   2.955  0.7938  0.4264  1.5716
13766SOL     OW46144   6.440   5.107   3.158 -0.2940  0.3395 -0.2124
13766SOL    HW146145   6.508   5.174   3.174 -0.4494  0.1888  1.1637
13766SOL    HW246146   6.490   5.028   3.136  0.0012  0.2073  0.8761
13767SOL     OW46147   8.298   4.900   4.918 -0.6017  0.3256 -0.2283
13767SOL    HW146148   8.321   4.809   4.935  0.0603  0.6235  0.5266
13767SOL    HW246149   8.360   4.929   4.852  0.4445  0.7800  0.9328
13768SOL     OW46150   6.241   7.272   1.009  0.3115  0.0185  0.2716
13768SOL    HW146151   6.312   7.335   1.016  0.5364 -0.2487  0.4428
13768SOL    HW246152   6.223   7.266   0.915  1.3088 -0.7769  0.1172
13769SOL     OW46153   4.579   2.990   2.510  0.5037  0.0846 -0.1150
13769SOL    HW146154   4.612   3.064   2.562 -0.1284 -0.8906  1.7434
13769SOL    HW246155   4.650   2.926   2.511  1.1083  0.7219 -1.8503
13770SOL     OW46156   4.631   5.792   2.169  0.0734  0.0330  0.2616
13770SOL    HW146157   4.675   5.819   2.089 -1.4714  0.8379 -0.3430
13770SOL    HW246158   4.659   5.856   2.235  0.0991  0.3207 -0.0282
13771SOL     OW46159   5.091   4.882   2.668  0.2966 -0.2576 -0.3187
13771SOL    HW146160   5.038   4.957   2.642  1.3129  0.5056 -0.2230
13771SOL    HW246161   5.125   4.846   2.586  1.7592  0.8500 -0.2121
13772SOL     OW46162   3.447   3.689   3.320  0.0989  0.1939  0.5488
13772SOL    HW146163   3.490   3.647   3.245  1.0325  0.5041  0.9017
13772SOL    HW246164   3.372   3.633   3.340  0.0213 -0.0542 -0.4277
13773SOL     OW46165   3.704   3.989   1.851  0.4395  0.4934  0.0604
13773SOL    HW146166   3.671   4.078   1.863  0.8447  0.6199  0.2675
13773SOL    HW246167   3.717   3.957   1.940  0.4992  0.3075 -0.0158
13774SOL     OW46168   6.040   4.022   1.713  0.0620  0.2422 -0.2606
13774SOL    HW146169   5.997   4.106   1.699 -0.4351  0.3325  1.6902
13774SOL    HW246170   6.131   4.037   1.686 -0.0019  1.4384  0.1419
13775SOL     OW46171   3.959   4.575   2.020 -0.1527 -0.2236  0.1451
13775SOL    HW146172   3.960   4.525   2.101 -2.0173 -0.4612  0.0459
13775SOL    HW246173   3.975   4.666   2.047 -3.2000  0.1001  1.1376
13776SOL     OW46174   2.869   6.134   1.709  0.2502  0.2518 -0.4527
13776SOL    HW146175   2.874   6.043   1.739  0.8003  1.0157  1.8463
13776SOL    HW246176   2.792   6.170   1.754 -0.0480  0.8907 -1.4595
13777SOL     OW46177   4.171   5.418   3.041 -0.0685  0.3912 -0.1520
13777SOL    HW146178   4.099   5.417   2.978  0.2686 -1.0811 -0.5285
13777SOL    HW246179   4.149   5.489   3.101 -2.3093 -0.6097  0.2681
13778SOL     OW46180   2.451   4.261   1.740 -0.2506  0.3086  0.5423
13778SOL    HW146181   2.385   4.317   1.699 -1.9580 -1.5199  0.7397
13778SOL    HW246182   2.440   4.176   1.699 -0.1320 -0.8401  2.8038
13779SOL     OW46183   3.983   2.856   2.073  0.2773  0.3434 -0.0894
13779SOL    HW146184   3.960   2.832   2.162  1.5189  1.5844  0.5883
13779SOL    HW246185   4.025   2.778   2.037 -0.0199 -0.0783  0.4783
13780SOL     OW46186   3.882   2.202   2.216  0.1763 -0.2326  0.3147
13780SOL    HW146187   3.937   2.164   2.148  0.2189 -0.7690  0.6474
13780SOL    HW246188   3.815   2.136   2.232  0.0527 -0.0242  0.6601
13781SOL     OW46189   3.445   3.905   3.524 -0.0314  0.1354  0.8061
13781SOL    HW146190   3.521   3.939   3.477  1.0687  0.2602  2.6510
13781SOL    HW246191   3.414   3.832   3.469  1.8626 -0.3914  0.4062
13782SOL     OW46192   5.076   5.218   2.055 -0.0723 -0.2672 -0.3404
13782SOL    HW146193   5.036   5.241   1.971 -0.0498 -0.4493 -0.4019
13782SOL    HW246194   5.006   5.174   2.103 -0.1701  0.0919 -0.1520
13783SOL     OW46195   3.546   4.108   1.502 -0.2868 -0.0438 -0.5972
13783SOL    HW146196   3.548   4.188   1.449 -2.3349 -0.9606 -2.1353
13783SOL    HW246197   3.519   4.137   1.589  0.6000  1.1389 -0.6943
13784SOL     OW46198   4.701   5.078   1.529 -0.2609 -0.5202  0.7001
13784SOL    HW146199   4.746   5.149   1.483  0.5125 -0.1510  2.0116
13784SOL    HW246200   4.656   5.121   1.602 -1.6557 -1.0766  0.1751
13785SOL     OW46201   1.913   4.247   3.377  0.4406  0.0099  0.0779
13785SOL    HW146202   1.837   4.190   3.390  0.0104  0.6838  0.5273
13785SOL    HW246203   1.901   4.284   3.290  0.8896 -0.8352 -0.3489
13786SOL     OW46204   2.630   5.601   1.861  0.5000 -0.2345 -0.2098
13786SOL    HW146205   2.675   5.621   1.943 -0.0177 -1.4654  0.3809
13786SOL    HW246206   2.577   5.679   1.843  0.4542 -0.0477  0.7341
13787SOL     OW46207   6.576   4.600   3.046  0.4359  0.0261  0.1027
13787SOL    HW146208   6.515   4.541   3.091 -0.9760 -0.4985 -2.4333
13787SOL    HW246209   6.646   4.542   3.015  1.0914  0.3014  1.0325
13788SOL     OW46210   4.109   5.089   2.039  0.2208 -0.0895  0.3903
13788SOL    HW146211   4.102   5.027   1.967 -0.8131  0.1403  0.2821
13788SOL    HW246212   4.020   5.096   2.074 -0.4375  3.8217 -1.7436
13789SOL     OW46213   2.720   3.943   2.113  0.4880  0.0226  0.1369
13789SOL    HW146214   2.684   3.855   2.104 -0.5443  0.3759  0.7520
13789SOL    HW246215   2.728   3.975   2.023 -0.1539 -0.2945 -0.0365
13790SOL     OW46216   4.903   3.553   2.933 -1.1485 -0.0051  0.2627
13790SOL    HW146217   4.824   3.501   2.947  0.2804 -2.1552  0.4517
13790SOL    HW246218   4.959   3.533   3.009  1.2334 -1.6459 -1.8383
13791SOL     OW46219   4.968   4.458   0.455 -0.1859  0.7617  0.2015
13791SOL    HW146220   5.057   4.492   0.467  0.3101 -0.0451 -1.1063
13791SOL    HW246221   4.979   4.365   0.438 -1.4113  0.3120  1.7582
13792SOL     OW46222   5.894   7.578   1.588 -0.2031  0.1064  0.1830
13792SOL    HW146223   5.930   7.549   1.504 -0.3368  0.7537 -0.1010
13792SOL    HW246224   5.799   7.566   1.579 -0.2135  0.1375  0.2491
13793SOL     OW46225   2.844   5.174   1.780 -0.1834 -0.5234  0.6458
13793SOL    HW146226   2.818   5.117   1.852 -2.1313 -1.3812 -0.7014
13793SOL    HW246227   2.905   5.122   1.728 -0.9348 -0.9163  0.1496
13794SOL     OW46228   3.251   5.817   2.283 -0.5825 -0.9041 -0.6073
13794SOL    HW146229   3.204   5.839   2.202 -2.4737  1.2717  0.9998
13794SOL    HW246230   3.187   5.835   2.353  0.7804 -3.3424  1.3565
13795SOL     OW46231   5.522   4.531   1.966  0.4315 -0.0842  0.3926
13795SOL    HW146232   5.596   4.587   1.943 -2.1444  2.4872 -1.9182
13795SOL    HW246233   5.520   4.464   1.899  0.7105 -0.2001  0.5007
13796SOL     OW46234   5.637   2.418   2.798  0.0537  0.1220  0.2541
13796SOL    HW146235   5.572   2.347   2.801  1.6393 -1.3031  1.6032
13796SOL    HW246236   5.679   2.408   2.712  0.0932 -0.4147  0.3345
13797SOL     OW46237   4.906   6.054   2.187 -0.1440  0.6185  0.1068
13797SOL    HW146238   4.913   6.117   2.116 -0.1547  2.0336  1.3343
13797SOL    HW246239   4.835   6.088   2.242 -0.0211 -0.3579  0.8777
13798SOL     OW46240   3.453   2.667   4.010 -0.5627  0.2148 -0.1863
13798SOL    HW146241   3.496   2.583   4.024 -0.9314  0.2568  1.2691
13798SOL    HW246242   3.427   2.696   4.097 -3.1040  0.4180 -0.9658
13799SOL     OW46243   4.195   5.809   1.767 -0.3108  0.1104  0.0849
13799SOL    HW146244   4.139   5.879   1.734  0.6469  0.6850 -0.3365
13799SOL    HW246245   4.169   5.798   1.858 -1.3337  0.1461 -0.1980
13800SOL     OW46246   2.948   5.626   3.349  0.4902  0.3096  0.2357
13800SOL    HW146247   2.919   5.659   3.264 -0.4104  0.4604  0.5929
13800SOL    HW246248   3.000   5.549   3.328 -0.3600 -0.0957 -0.4166
13801SOL     OW46249   5.606   5.769   2.681 -0.0240  0.5954 -0.0440
13801SOL    HW146250   5.657   5.742   2.757 -0.2514 -0.3427 -0.2126
13801SOL    HW246251   5.557   5.846   2.711 -1.1387 -0.5758  1.1824
13802SOL     OW46252   3.314   4.313   1.529  0.0281  0.5824 -0.3639
13802SOL    HW146253   3.269   4.232   1.504 -0.3451  0.7562 -0.2498
13802SOL    HW246254   3.327   4.360   1.447  0.1424  0.4650 -0.4152
13803SOL     OW46255   5.718   1.842   3.754  0.5060 -0.3500  0.6461
13803SOL    HW146256   5.787   1.840   3.820  1.3280  2.7137 -0.0059
13803SOL    HW246257   5.749   1.784   3.685  2.1123  0.4002  0.7124
13804SOL     OW46258   3.913   3.345   1.540 -0.1168  0.1834  0.1023
13804SOL    HW146259   3.853   3.409   1.580 -0.7102  0.2413 -0.8614
13804SOL    HW246260   3.955   3.393   1.469 -0.7154 -0.5461 -0.7535
13805SOL     OW46261   3.937   8.100   1.789 -0.0885 -0.3127  0.3691
13805SOL    HW146262   3.966   8.044   1.717  0.5844  1.1088 -0.5082
13805SOL    HW246263   4.012   8.105   1.848  0.3676  0.7648 -0.2708
13806SOL     OW46264   5.422   5.843   2.138 -0.2990  0.6913 -0.5007
13806SOL    HW146265   5.487   5.792   2.089 -1.5747  0.9759 -2.5276
13806SOL    HW246266   5.467   5.926   2.158  0.3274  0.4706 -0.9749
13807SOL     OW46267   4.870   3.525   9.589 -0.1868  0.0720 -0.2673
13807SOL    HW146268   4.886   3.608   9.545  0.2150 -0.0387 -0.3285
13807SOL    HW246269   4.917   3.531   9.672 -1.2971  0.4507  0.3452
13808SOL     OW46270   6.389   4.752   0.995  0.2616  0.2002 -0.2389
13808SOL    HW146271   6.349   4.831   0.957  0.8471  0.6679  0.1044
13808SOL    HW246272   6.350   4.680   0.946  0.1427  0.7347 -0.9471
13809SOL     OW46273   4.679   3.660   1.670 -0.2842 -0.3976  0.1509
13809SOL    HW146274   4.765   3.630   1.642  0.0771 -0.5648  1.3956
13809SOL    HW246275   4.659   3.733   1.613  0.6626 -0.3981 -0.1852
13810SOL     OW46276   7.517   5.734   1.667 -0.0241  0.1876  0.5585
13810SOL    HW146277   7.553   5.685   1.593  0.5954 -0.8939  1.5593
13810SOL    HW246278   7.428   5.758   1.639 -0.5385 -1.9772  0.2330
13811SOL     OW46279   2.850   3.626   2.095 -0.0105 -0.2262 -0.4130
13811SOL    HW146280   2.837   3.639   2.001  1.1056 -0.8767 -0.6630
13811SOL    HW246281   2.870   3.533   2.105 -0.5606 -0.2609  0.5274
13812SOL     OW46282   3.575   3.966   3.079  0.1067 -0.3182 -0.3705
13812SOL    HW146283   3.647   3.904   3.092 -0.0264 -0.4020 -0.0360
13812SOL    HW246284   3.533   3.972   3.164  1.1896  1.5769  0.0472
13813SOL     OW46285   4.796   3.646   3.506  0.0726  0.0535  0.0549
13813SOL    HW146286   4.799   3.556   3.538 -1.2278  0.7231  2.1835
13813SOL    HW246287   4.718   3.684   3.546 -1.3437  1.1711 -3.5203
13814SOL     OW46288   2.973   6.644   1.435 -0.2055  0.5751  0.4326
13814SOL    HW146289   2.905   6.586   1.469 -1.0025  1.5959  0.6043
13814SOL    HW246290   3.034   6.585   1.389 -1.2477 -0.3393  0.1876
13815SOL     OW46291   3.168   5.948   2.024  0.0106  0.2888  0.7344
13815SOL    HW146292   3.105   6.020   2.032 -1.5732 -0.8985 -0.9436
13815SOL    HW246293   3.227   5.975   1.954  0.1589  0.4719  0.9261
13816SOL     OW46294   4.173   3.899   2.485 -0.0956 -0.2329 -0.3096
13816SOL    HW146295   4.084   3.869   2.502  0.7315 -1.0494  2.7989
13816SOL    HW246296   4.173   3.991   2.513 -0.0939 -0.0483 -0.8958
13817SOL     OW46297   2.252   3.246   0.955  0.3369 -0.1805  0.2567
13817SOL    HW146298   2.322   3.311   0.946 -1.6410  2.1062  0.8067
13817SOL    HW246299   2.240   3.211   0.866  3.4975 -2.0952  0.5246
13818SOL     OW46300   4.201   3.966   1.397 -0.0530 -0.6021 -0.3595
13818SOL    HW146301   4.261   4.035   1.367 -0.1848 -0.6645 -0.7659
13818SOL    HW246302   4.170   3.997   1.482 -0.6389  0.1639 -0.8440
13819SOL     OW46303   3.276   2.891   2.082 -0.4782  0.4539 -0.1459
13819SOL    HW146304   3.354   2.893   2.139 -0.8440 -1.3108  0.4654
13819SOL    HW246305   3.285   2.809   2.033 -1.2730  0.9132 -1.0709
13820SOL     OW46306   5.501   6.527   2.362  0.2726 -0.2223  0.3495
13820SOL    HW146307   5.535   6.525   2.272 -0.2646 -0.1514  0.1445
13820SOL    HW246308   5.545   6.602   2.402  1.3163 -0.8861  0.4675
13821SOL     OW46309   3.479   4.659   2.344 -0.2658 -0.2824 -0.4961
13821SOL    HW146310   3.556   4.605   2.360  0.5076  0.2190 -2.3982
13821SOL    HW246311   3.472   4.664   2.249 -1.7147  1.0079 -0.3493
13822SOL     OW46312   4.807   6.789   1.832  0.1437 -0.3485  0.1823
13822SOL    HW146313   4.884   6.733   1.843  1.0630  0.8997  0.2836
13822SOL    HW246314   4.819   6.830   1.747 -0.3439 -0.0555  0.2530
13823SOL     OW46315   3.900   3.826   2.499 -0.2829 -0.4635  0.5789
13823SOL    HW146316   3.863   3.791   2.418  0.4610 -1.3277  0.6109
13823SOL    HW246317   3.878   3.761   2.566  0.5700 -0.5782  0.7499
13824SOL     OW46318   6.302   5.603   2.087  0.3068 -0.2383  0.5452
13824SOL    HW146319   6.293   5.509   2.103  1.3258 -0.3694  0.3579
13824SOL    HW246320   6.251   5.618   2.007 -0.2746 -0.5381  0.8537
13825SOL     OW46321   3.910   7.287   3.576  0.6767  0.3737  0.0115
13825SOL    HW146322   3.983   7.281   3.515  0.4672  1.1626 -0.3252
13825SOL    HW246323   3.833   7.298   3.519  0.4839  1.1265  0.4262
13826SOL     OW46324   4.257   3.956   0.432 -0.4333 -0.0895  0.2360
13826SOL    HW146325   4.174   3.926   0.395 -0.1581  0.4103 -0.7897
13826SOL    HW246326   4.270   3.901   0.509 -2.0919  0.3139  0.8417
13827SOL     OW46327   5.141   3.966   2.691  0.0548 -0.1272 -0.0293
13827SOL    HW146328   5.094   4.000   2.615  0.9675 -0.7834 -0.8907
13827SOL    HW246329   5.098   3.883   2.711 -0.5419  0.3068  0.5241
13828SOL     OW46330   4.955   3.914   0.425 -0.2455  0.0806 -0.2117
13828SOL    HW146331   5.014   3.926   0.499 -1.0098  0.6322  0.3203
13828SOL    HW246332   4.964   3.821   0.402  0.5150  0.0702  0.1283
13829SOL     OW46333   4.425   4.917   2.863 -0.2398 -0.4704 -0.1282
13829SOL    HW146334   4.388   5.005   2.867  2.6389  0.7965  0.0858
13829SOL    HW246335   4.410   4.880   2.950 -2.1919 -0.5526 -0.4722
13830SOL     OW46336   4.821   5.162   2.146 -0.0677 -0.2952  0.4448
13830SOL    HW146337   4.732   5.197   2.140 -0.0975 -0.2318  1.1824
13830SOL    HW246338   4.811   5.084   2.201  0.4140  0.0190  0.9847
13831SOL     OW46339   2.862   1.787   2.587  0.6126 -0.0538  0.4184
13831SOL    HW146340   2.821   1.728   2.523 -0.1249  1.6277 -0.7024
13831SOL    HW246341   2.930   1.734   2.628 -0.5125 -1.9147 -0.0293
13832SOL     OW46342   3.465   3.914   2.544 -0.3698 -0.2448 -0.3031
13832SOL    HW146343   3.487   3.923   2.636  2.7986  1.1351 -1.1135
13832SOL    HW246344   3.480   3.821   2.525 -0.7401 -0.4671  0.4927
13833SOL     OW46345   3.974   4.585   0.916 -0.0418 -0.5681 -0.2135
13833SOL    HW146346   4.022   4.520   0.864 -1.1988 -0.5670 -1.3006
13833SOL    HW246347   3.993   4.669   0.874  0.4066 -0.3461  0.4159
13834SOL     OW46348   4.100   5.547   2.496 -0.3062  0.0729  0.4507
13834SOL    HW146349   4.140   5.503   2.571 -0.4878  0.8210  0.9929
13834SOL    HW246350   4.127   5.494   2.421 -1.4369 -1.6032  1.1903
13835SOL     OW46351   7.501   4.649   1.152 -0.5335 -0.0371 -0.5521
13835SOL    HW146352   7.570   4.656   1.217 -1.9705  0.0690  0.9900
13835SOL    HW246353   7.509   4.560   1.118 -1.2838 -0.9056  1.5042
13836SOL     OW46354   5.784   3.688   2.244 -0.4041  0.5919  0.1678
13836SOL    HW146355   5.814   3.779   2.248 -0.2280  0.5519 -0.2406
13836SOL    HW246356   5.835   3.643   2.311 -0.5248  0.8038  0.4031
13837SOL     OW46357   5.380   5.450   1.738 -0.3992  0.0053 -0.1970
13837SOL    HW146358   5.414   5.428   1.651  3.4607  0.1529  1.1632
13837SOL    HW246359   5.392   5.369   1.789  3.7616  1.7959  1.9285
13838SOL     OW46360   4.458   4.684   1.183  0.3553 -0.0779  0.6112
13838SOL    HW146361   4.417   4.735   1.113  3.4162 -0.6236 -1.7431
13838SOL    HW246362   4.502   4.749   1.238  2.7072  0.0517 -1.3259
13839SOL     OW46363   6.685   4.101   1.925  0.0501 -0.2239  0.2779
13839SOL    HW146364   6.773   4.077   1.896  0.6589  0.6788  1.3489
13839SOL    HW246365   6.647   4.019   1.957  1.0136 -0.3595  1.1197
13840SOL     OW46366   4.209   3.547   1.681 -0.5741  0.1776 -0.0747
13840SOL    HW146367   4.164   3.575   1.601 -1.3133 -1.8777 -0.4174
13840SOL    HW246368   4.275   3.614   1.696 -1.5757  1.5053 -1.4358
13841SOL     OW46369   6.421   6.623   1.736 -0.4581 -0.5975  0.0431
13841SOL    HW146370   6.407   6.717   1.728  0.0419 -0.5607 -0.3984
13841SOL    HW246371   6.495   6.604   1.679  0.4883 -0.9958  1.3596
13842SOL     OW46372   5.047   2.998   2.618 -0.0211 -0.0467  0.1023
13842SOL    HW146373   5.142   3.000   2.607  0.1520 -0.0042  1.5760
13842SOL    HW246374   5.024   2.905   2.615 -0.0618 -0.0090 -1.2008
13843SOL     OW46375   3.167   3.636   1.991  0.3772 -0.0993 -0.3436
13843SOL    HW146376   3.172   3.566   2.056  0.0057  0.4482  0.2743
13843SOL    HW246377   3.164   3.717   2.042  0.4273  0.3502 -1.0462
13844SOL     OW46378   3.187   2.921   3.029 -0.1439 -0.5604  0.4560
13844SOL    HW146379   3.137   2.973   2.966  1.6504 -1.5330 -1.8293
13844SOL    HW246380   3.263   2.976   3.051  1.2168 -1.7368 -1.1790
13845SOL     OW46381   3.206   3.522   2.734  0.4163 -0.5135 -0.0737
13845SOL    HW146382   3.179   3.446   2.683  1.1137 -0.8152 -0.0005
13845SOL    HW246383   3.126   3.549   2.780  0.5261 -2.1915  1.1511
13846SOL     OW46384   3.490   4.904   1.684 -0.4325 -0.0794  0.3538
13846SOL    HW146385   3.423   4.962   1.719 -0.7789 -0.3049  0.0743
13846SOL    HW246386   3.492   4.923   1.590 -0.3394 -0.3021  0.3096
13847SOL     OW46387   3.326   4.448   3.599  0.0463  0.0948  0.5832
13847SOL    HW146388   3.328   4.418   3.690 -0.7753  0.8590  0.8632
13847SOL    HW246389   3.394   4.515   3.594 -0.3321  0.4965  0.7974
13848SOL     OW46390   5.492   0.888   1.503  0.0531  0.9151 -0.3544
13848SOL    HW146391   5.418   0.839   1.468  1.9540 -1.5780 -1.1080
13848SOL    HW246392   5.468   0.980   1.493 -2.3595  0.1606 -1.7954
13849SOL     OW46393   5.375   2.122   1.711 -1.0662 -0.3318 -0.1158
13849SOL    HW146394   5.417   2.208   1.718 -1.3359 -0.2729  0.8495
13849SOL    HW246395   5.309   2.133   1.643 -0.1569 -0.1655 -0.9853
13850SOL     OW46396   6.124   4.179   2.415 -0.3126  0.1974  0.6531
13850SOL    HW146397   6.055   4.205   2.354 -1.8317  1.7225  2.9350
13850SOL    HW246398   6.113   4.085   2.425 -1.1120  0.2007 -0.1317
13851SOL     OW46399   3.505   3.347   2.770 -0.5447  0.2983 -0.4539
13851SOL    HW146400   3.552   3.359   2.687 -1.1037 -1.5762 -1.0632
13851SOL    HW246401   3.417   3.319   2.744 -0.3325 -1.6231  0.7571
13852SOL     OW46402   3.033   3.997   2.276 -0.4316 -0.6616  0.5770
13852SOL    HW146403   3.092   3.976   2.348  0.0695 -1.2918 -0.0075
13852SOL    HW246404   2.948   3.967   2.305 -0.4628  0.1870  1.3998
13853SOL     OW46405   2.558   5.954   2.574  0.2871 -0.0830  0.0645
13853SOL    HW146406   2.505   6.033   2.581  0.1274 -0.2658  0.9279
13853SOL    HW246407   2.501   5.890   2.533 -0.2398 -0.3441  1.1897
13854SOL     OW46408   5.312   4.557   2.863 -0.2944 -0.2526  0.7721
13854SOL    HW146409   5.402   4.526   2.872  0.2509  1.3275  0.9771
13854SOL    HW246410   5.271   4.537   2.947  0.1347 -0.1489  1.0087
13855SOL     OW46411   4.209   4.137   2.631 -0.4669  0.0285  0.4990
13855SOL    HW146412   4.219   4.096   2.717 -0.4445 -1.0314 -0.0002
13855SOL    HW246413   4.296   4.132   2.591 -1.0482 -1.7899 -0.5922
13856SOL     OW46414   6.656   5.296   3.111  0.2961  0.2106 -0.4154
13856SOL    HW146415   6.691   5.262   3.029 -0.3999 -0.3185 -0.4966
13856SOL    HW246416   6.660   5.391   3.101 -0.6344  0.1511 -1.4354
13857SOL     OW46417   4.116   2.797   2.675  0.7583  0.2219 -0.0513
13857SOL    HW146418   4.113   2.892   2.678 -0.6350  0.2050 -0.5004
13857SOL    HW246419   4.205   2.774   2.702  1.0705  1.6419  0.1227
13858SOL     OW46420   6.609   4.742   2.786 -0.6673 -0.5424  0.3977
13858SOL    HW146421   6.670   4.815   2.796 -0.8112 -0.1922 -1.1985
13858SOL    HW246422   6.645   4.674   2.844  0.4919  0.1276  0.4937
13859SOL     OW46423   2.965   3.137   5.223 -0.3523 -0.1600  0.0911
13859SOL    HW146424   2.951   3.231   5.230  0.1996 -0.1981  2.1383
13859SOL    HW246425   3.059   3.126   5.239 -0.4129 -1.0484 -0.1344
13860SOL     OW46426   5.343   5.706   3.180 -0.1340 -0.4483  0.2454
13860SOL    HW146427   5.322   5.787   3.227 -1.2334 -1.3090  1.2903
13860SOL    HW246428   5.273   5.697   3.115  0.1730 -0.3957 -0.0970
13861SOL     OW46429   5.702   3.071   3.743  0.1597 -0.5608 -0.1812
13861SOL    HW146430   5.769   3.004   3.758 -0.5976 -1.8103 -2.1892
13861SOL    HW246431   5.619   3.023   3.748 -0.4666  0.5198 -0.1477
13862SOL     OW46432   3.124   4.763   3.655  0.1749 -0.0386 -0.6482
13862SOL    HW146433   3.156   4.783   3.567 -0.6752  0.6338 -0.8087
13862SOL    HW246434   3.090   4.846   3.688 -0.0091 -0.4078  0.1042
13863SOL     OW46435   2.577   3.369   3.467 -0.8278 -0.5511  0.7768
13863SOL    HW146436   2.647   3.409   3.519 -0.3960  1.7211 -1.4404
13863SOL    HW246437   2.621   3.335   3.389 -1.9273 -0.7802  0.2438
13864SOL     OW46438   7.720   4.574   5.532  0.1062 -0.5549 -0.1426
13864SOL    HW146439   7.814   4.592   5.531 -0.1180  0.6144 -1.9985
13864SOL    HW246440   7.698   4.568   5.625  2.1781 -1.7529  0.2969
13865SOL     OW46441   4.619   3.158   3.745  0.0695  0.5696 -0.4426
13865SOL    HW146442   4.665   3.129   3.667  1.3043  0.8317  0.1789
13865SOL    HW246443   4.564   3.231   3.715  1.4176  1.4382 -0.8402
13866SOL     OW46444   5.350   4.179   2.728  0.3447  0.4878 -0.4137
13866SOL    HW146445   5.305   4.095   2.719 -1.1459  1.4440 -2.2547
13866SOL    HW246446   5.439   4.163   2.695 -0.2393 -0.1151 -1.7074
13867SOL     OW46447   4.236   4.681   2.297  0.3049  0.2535 -0.2285
13867SOL    HW146448   4.244   4.586   2.294  1.4786  0.3382  0.0600
13867SOL    HW246449   4.144   4.698   2.277  0.5879 -0.8164 -2.5684
13868SOL     OW46450   3.055   5.284   2.441 -0.2376  0.2292  0.3323
13868SOL    HW146451   3.072   5.216   2.507  1.6853  0.4553  0.0834
13868SOL    HW246452   3.034   5.235   2.362 -0.4750 -0.0510  0.5625
13869SOL     OW46453   4.324   2.691   4.998 -0.2586 -0.4622  0.1311
13869SOL    HW146454   4.282   2.662   4.917  1.8550  1.2711 -1.6383
13869SOL    HW246455   4.403   2.636   5.005 -0.4894 -0.6819  1.0971
13870SOL     OW46456   3.938   4.259   1.719  0.1860 -0.1391 -0.6276
13870SOL    HW146457   4.013   4.298   1.764  1.3631  0.9753 -3.4568
13870SOL    HW246458   3.976   4.213   1.644 -1.6803 -2.3967 -0.2479
13871SOL     OW46459   5.504   4.969   2.324  0.3004 -0.3782  0.2507
13871SOL    HW146460   5.482   4.905   2.391  1.4522 -0.5525  0.4764
13871SOL    HW246461   5.424   4.981   2.274 -0.3453 -0.8455  1.1653
13872SOL     OW46462   7.392   4.167   5.364 -0.0836  0.0139  0.2443
13872SOL    HW146463   7.435   4.252   5.374  0.5530 -0.3758  0.8851
13872SOL    HW246464   7.445   4.121   5.299 -1.2726  0.6491 -1.1816
13873SOL     OW46465   5.009   2.429   1.766 -0.6266 -0.4034 -0.0199
13873SOL    HW146466   4.939   2.396   1.709 -0.2258 -0.4598 -0.4850
13873SOL    HW246467   5.050   2.499   1.715  0.0911 -0.8258 -0.0396
13874SOL     OW46468   7.282   7.094   1.889  0.1875  0.0627 -0.1319
13874SOL    HW146469   7.296   7.113   1.981  1.4819 -0.7388 -0.1425
13874SOL    HW246470   7.336   7.159   1.843 -0.3783  0.4005 -0.3168
13875SOL     OW46471   2.179   4.695   3.882 -0.3671 -0.2282  0.6625
13875SOL    HW146472   2.188   4.790   3.891  1.7318 -0.4445  1.0786
13875SOL    HW246473   2.183   4.680   3.788  0.3801  0.0250  0.6430
13876SOL     OW46474   8.453   6.166   5.821 -0.2865 -0.3650  0.3949
13876SOL    HW146475   8.530   6.123   5.858 -0.7248  0.7756  2.7311
13876SOL    HW246476   8.459   6.150   5.727  2.0323 -1.5020  0.7095
13877SOL     OW46477   6.128   4.106   3.693  0.1034  0.0415 -0.2543
13877SOL    HW146478   6.098   4.041   3.756 -1.5567  0.3884 -0.6619
13877SOL    HW246479   6.182   4.167   3.744  2.2714 -2.0276 -0.0115
13878SOL     OW46480   4.574   4.920   2.277  0.1276  0.0402  0.6097
13878SOL    HW146481   4.566   4.964   2.362  1.8445  3.8301 -1.1069
13878SOL    HW246482   4.485   4.923   2.240 -0.2506 -0.0595  1.4947
13879SOL     OW46483   5.546   4.018   2.951 -0.0075  0.1460 -0.4308
13879SOL    HW146484   5.637   4.038   2.927  0.2155  0.0192  0.3257
13879SOL    HW246485   5.521   3.946   2.892  0.8683 -0.8365  0.3915
13880SOL     OW46486   4.178   3.094   2.906  0.2682 -0.3041  0.7556
13880SOL    HW146487   4.094   3.136   2.919  0.9323  2.1028 -2.2840
13880SOL    HW246488   4.161   3.001   2.921 -2.3243  0.4399  2.6918
13881SOL     OW46489   3.042   2.930   3.749  0.2996  0.5972 -0.1590
13881SOL    HW146490   3.124   2.881   3.755  0.7266  1.3460  0.2267
13881SOL    HW246491   2.982   2.885   3.808  0.8899  0.9341  0.7034
13882SOL     OW46492   7.295   5.249   2.905 -0.5586  0.2649 -0.0563
13882SOL    HW146493   7.202   5.247   2.928 -0.8060  2.9362 -0.6601
13882SOL    HW246494   7.313   5.340   2.882  2.0172 -0.3689 -0.8243
13883SOL     OW46495   4.667   3.551   3.907 -0.4029 -0.1511 -0.3707
13883SOL    HW146496   4.618   3.521   3.983  0.1174 -0.3654 -0.1168
13883SOL    HW246497   4.633   3.639   3.891  0.5445  0.5083  1.0574
13884SOL     OW46498   3.016   4.541   5.388  0.8100  0.1690  0.4978
13884SOL    HW146499   2.937   4.547   5.335 -0.8726  0.0441  2.8830
13884SOL    HW246500   3.073   4.611   5.355  0.5855 -1.0148 -2.5668
13885SOL     OW46501   6.823   4.686   3.515 -0.3071 -0.3302  0.4489
13885SOL    HW146502   6.886   4.645   3.575  1.8476  1.0342 -0.8238
13885SOL    HW246503   6.824   4.779   3.539 -0.0463  0.0906 -1.1509
13886SOL     OW46504   6.243   4.149   3.436  0.1945 -0.3516 -0.1693
13886SOL    HW146505   6.170   4.118   3.488 -0.8791  0.1322 -1.3465
13886SOL    HW246506   6.319   4.103   3.470 -0.5849 -0.4910  1.3945
13887SOL     OW46507   2.441   4.946   4.105 -0.2458 -0.0153  0.1886
13887SOL    HW146508   2.429   4.984   4.018  0.0975 -0.0921  0.1087
13887SOL    HW246509   2.398   5.008   4.164  0.8795  0.8282  0.1328
13888SOL     OW46510   3.463   3.208   4.686  0.0992  0.3125 -0.0804
13888SOL    HW146511   3.416   3.132   4.722  1.9893 -1.5839 -1.4695
13888SOL    HW246512   3.555   3.183   4.690  0.7524  2.5476 -0.6005
13889SOL     OW46513   6.793   4.494   2.926 -0.0734  0.5815  0.5012
13889SOL    HW146514   6.832   4.419   2.881 -1.1208 -0.7931  1.8253
13889SOL    HW246515   6.868   4.546   2.954  0.6301  0.6459 -1.4340
13890SOL     OW46516   4.184   1.750   5.831 -0.1694  0.4217 -0.5517
13890SOL    HW146517   4.095   1.760   5.864  0.2569  0.6177  0.5564
13890SOL    HW246518   4.240   1.770   5.906  0.8063  0.0003 -1.1579
13891SOL     OW46519   5.299   3.133   4.379 -0.1008 -0.1504  0.3579
13891SOL    HW146520   5.245   3.067   4.337 -2.1555  1.4554  0.3603
13891SOL    HW246521   5.378   3.087   4.406 -0.2933 -1.9682 -2.0620
13892SOL     OW46522   4.545   3.010   6.282  0.5594  0.1921 -0.0232
13892SOL    HW146523   4.565   3.088   6.334  0.2760  0.2265  0.0327
13892SOL    HW246524   4.495   2.953   6.340  0.4593  0.1227 -0.1753
13893SOL     OW46525   4.027   2.768   5.188  0.1195  0.8595  0.7266
13893SOL    HW146526   3.985   2.753   5.103  1.2122  0.2040  0.2893
13893SOL    HW246527   3.955   2.763   5.251 -0.1929 -2.5502  0.2161
13894SOL     OW46528   6.897   3.099   2.868 -0.4029  0.0558  0.1425
13894SOL    HW146529   6.841   3.141   2.934  0.1211 -0.4187  0.8989
13894SOL    HW246530   6.926   3.018   2.910  0.2540 -0.0552 -0.5258
13895SOL     OW46531   3.581   3.756   3.781  0.1089 -0.2374 -0.4560
13895SOL    HW146532   3.509   3.695   3.771 -0.3611  0.3524 -0.7103
13895SOL    HW246533   3.573   3.816   3.706  0.8749 -0.1871 -0.5062
13896SOL     OW46534   2.959   5.053   4.101  0.8741 -0.0313 -0.1113
13896SOL    HW146535   2.886   5.102   4.065  0.7039 -0.1128  0.1242
13896SOL    HW246536   2.919   4.986   4.157  1.1191 -0.1915 -0.1243
13897SOL     OW46537   3.748   6.276   2.442  0.1566  0.1738 -0.0525
13897SOL    HW146538   3.704   6.246   2.362  0.3570 -1.0979  0.3034
13897SOL    HW246539   3.819   6.214   2.455  1.1902  1.3851  0.1750
13898SOL     OW46540   7.134   5.123   5.022 -0.4670 -0.2291 -0.4250
13898SOL    HW146541   7.223   5.093   5.004 -1.0869 -1.4981 -1.4128
13898SOL    HW246542   7.120   5.196   4.962  0.2194  0.5799  0.3756
13899SOL     OW46543   4.179   5.419   0.853  0.8879  0.3993 -0.5184
13899SOL    HW146544   4.181   5.402   0.947 -0.1483  1.5930 -0.2676
13899SOL    HW246545   4.261   5.383   0.820  0.7634 -1.0429  0.6643
13900SOL     OW46546   4.282   3.798   4.060 -0.3986 -0.1938  0.0630
13900SOL    HW146547   4.317   3.784   4.148 -1.1427  0.1766  0.4210
13900SOL    HW246548   4.241   3.714   4.038 -0.5041 -0.1831  0.2113
13901SOL     OW46549   4.320   5.179   1.832  0.1734  0.5787 -0.1648
13901SOL    HW146550   4.277   5.147   1.752  1.6766 -2.7800  0.2771
13901SOL    HW246551   4.251   5.177   1.899 -0.4119  0.8498 -0.7508
13902SOL     OW46552   4.024   3.652   3.106 -0.3637 -0.2162  0.0102
13902SOL    HW146553   4.100   3.603   3.072  0.5789  1.4229 -0.2836
13902SOL    HW246554   4.045   3.666   3.198  0.1081  1.0011 -0.2778
13903SOL     OW46555   7.062   4.973   5.657 -0.2658 -0.5484  0.1814
13903SOL    HW146556   7.129   4.906   5.639  1.9760  1.4521  0.8707
13903SOL    HW246557   7.072   4.992   5.750  1.2213  2.9055 -0.5997
13904SOL     OW46558   4.247   4.451   3.150  0.1791  0.2660  0.3176
13904SOL    HW146559   4.286   4.365   3.162  2.2522  1.2116  0.4912
13904SOL    HW246560   4.159   4.433   3.117  1.0452 -1.8716 -0.8867
13905SOL     OW46561   5.995   7.058   1.744  0.5350 -0.3302  0.1970
13905SOL    HW146562   6.082   7.086   1.713  0.4458 -1.5676 -1.2120
13905SOL    HW246563   5.987   7.097   1.831  1.1540  2.4918 -0.9727
13906SOL     OW46564   6.746   5.146   3.335  0.1279 -0.0759  0.0369
13906SOL    HW146565   6.724   5.221   3.391 -2.1867 -0.3241 -0.4898
13906SOL    HW246566   6.735   5.180   3.245  0.6054 -0.6152 -0.2278
13907SOL     OW46567   3.910   6.351   3.179  0.3343  0.1196  0.7061
13907SOL    HW146568   3.994   6.398   3.179 -0.8387  2.2702 -0.4472
13907SOL    HW246569   3.899   6.322   3.270  0.9274  2.4139  1.5511
13908SOL     OW46570   7.459   4.939   6.181  0.2683  0.5178 -0.3380
13908SOL    HW146571   7.552   4.936   6.201  0.3746  0.3474 -0.8521
13908SOL    HW246572   7.417   4.898   6.257  0.7718 -1.5033 -1.0934
13909SOL     OW46573   3.739   1.914   5.266 -0.0250 -0.0822  0.4977
13909SOL    HW146574   3.762   1.872   5.348  0.1413 -0.4114  0.2862
13909SOL    HW246575   3.801   1.878   5.202  0.4919  0.8978  0.4233
13910SOL     OW46576   4.517   4.536   3.081 -0.2047  0.0591 -0.2488
13910SOL    HW146577   4.517   4.631   3.093  0.7227  0.0832 -0.3613
13910SOL    HW246578   4.427   4.509   3.099 -0.3013  0.8651  0.5032
13911SOL     OW46579   3.520   3.642   2.571  0.2945 -0.3527 -0.2457
13911SOL    HW146580   3.578   3.624   2.497 -0.6738  1.3903 -1.4766
13911SOL    HW246581   3.461   3.567   2.574 -0.3940  0.0894 -2.0079
13912SOL     OW46582   5.805   3.897   1.804 -0.5079  0.2357  0.4292
13912SOL    HW146583   5.888   3.939   1.782 -1.0560  1.0839 -0.0624
13912SOL    HW246584   5.787   3.838   1.730 -0.3290  0.0245  0.5535
13913SOL     OW46585   3.053   5.102   2.653  0.2027  0.4483  0.1703
13913SOL    HW146586   2.997   5.031   2.621 -0.5749 -0.0843  2.6538
13913SOL    HW246587   3.138   5.061   2.669 -0.5607 -0.2291  2.7020
13914SOL     OW46588   7.098   5.003   2.755  0.0315 -0.4705  0.1800
13914SOL    HW146589   7.187   4.991   2.787 -0.1143  0.1324  0.8224
13914SOL    HW246590   7.089   5.097   2.740 -0.2614 -0.6142 -0.5886
13915SOL     OW46591   4.501   3.372   3.611  0.0361 -0.2678  0.1505
13915SOL    HW146592   4.439   3.440   3.639  0.7478  0.6452 -0.4399
13915SOL    HW246593   4.482   3.360   3.518  0.5098 -0.2333  0.0490
13916SOL     OW46594   5.757   3.543   3.111  0.2892 -0.0641  0.2320
13916SOL    HW146595   5.702   3.521   3.186  0.8082  0.5048  0.7865
13916SOL    HW246596   5.786   3.633   3.128  2.4217 -0.7779  0.6127
13917SOL     OW46597   5.719   3.586   2.849 -0.3745 -0.9822 -0.0913
13917SOL    HW146598   5.709   3.580   2.944  0.0324 -0.1630  0.0029
13917SOL    HW246599   5.645   3.639   2.820  1.2902  1.5303  0.1404
13918SOL     OW46600   5.729   2.504   7.066  0.0696 -0.1849  0.6387
13918SOL    HW146601   5.635   2.513   7.084 -0.0542  1.3353 -0.6074
13918SOL    HW246602   5.772   2.538   7.144 -0.4160 -1.1824  1.3481
13919SOL     OW46603   5.240   3.298   3.475  0.3434 -0.6646 -0.4031
13919SOL    HW146604   5.305   3.358   3.512 -1.1683  1.7127 -1.4440
13919SOL    HW246605   5.179   3.282   3.547 -0.0446  0.2418 -0.5200
13920SOL     OW46606   4.132   3.478   2.224 -0.6083  0.3171  0.3724
13920SOL    HW146607   4.067   3.418   2.185  0.0083 -0.5037  0.5858
13920SOL    HW246608   4.125   3.558   2.171 -0.9106 -0.2106 -0.4065
13921SOL     OW46609   4.914   3.465   3.825  0.0517 -0.1990 -0.2043
13921SOL    HW146610   4.843   3.507   3.873  1.3630 -0.6725  2.2026
13921SOL    HW246611   4.876   3.446   3.739 -1.7578  2.3873 -0.0427
13922SOL     OW46612   3.904   4.329   3.648  0.5883  0.3492 -0.7528
13922SOL    HW146613   3.836   4.395   3.656  1.7357  1.5311 -0.4999
13922SOL    HW246614   3.895   4.295   3.559  0.5354  1.4648 -1.1781
13923SOL     OW46615   5.026   2.718   1.910 -0.7804  0.6153 -0.3272
13923SOL    HW146616   5.117   2.724   1.939 -0.9258 -0.7444  0.4172
13923SOL    HW246617   4.978   2.775   1.971 -0.8622 -1.0283  1.1663
13924SOL     OW46618   5.324   5.653   2.707  0.5105  0.7272  0.1965
13924SOL    HW146619   5.409   5.690   2.683 -0.0873  1.4864 -0.8556
13924SOL    HW246620   5.267   5.730   2.716 -0.6908  0.1197 -1.7471
13925SOL     OW46621   5.352   2.437   2.317  0.2045 -0.3703 -0.3863
13925SOL    HW146622   5.308   2.410   2.398 -0.2645 -0.2257 -0.5875
13925SOL    HW246623   5.445   2.443   2.341 -0.3193  3.3419  1.1958
13926SOL     OW46624   5.024   3.290   2.719  0.0581  0.1356 -0.1363
13926SOL    HW146625   5.116   3.282   2.745 -0.0068  0.4594  0.1900
13926SOL    HW246626   5.006   3.209   2.670  0.5160  0.0726 -0.2020
13927SOL     OW46627   5.013   3.732   2.767 -0.5588 -0.0503 -0.0697
13927SOL    HW146628   4.987   3.707   2.855 -2.4659 -0.6860 -0.8026
13927SOL    HW246629   4.971   3.668   2.709  0.8767  0.1916 -1.4338
13928SOL     OW46630   6.509   3.716   4.562 -0.1845  0.3434 -0.2240
13928SOL    HW146631   6.497   3.694   4.470 -1.0893 -0.1209 -0.0061
13928SOL    HW246632   6.493   3.810   4.566 -0.2571  0.3433 -0.5219
13929SOL     OW46633   2.493   3.900   3.867 -0.4221 -0.5950  0.4258
13929SOL    HW146634   2.582   3.920   3.896 -0.4128  2.8408 -1.5793
13929SOL    HW246635   2.437   3.927   3.940  0.0320  0.7632  0.2984
13930SOL     OW46636   4.464   5.252   2.547 -0.0887  0.3587 -0.6756
13930SOL    HW146637   4.482   5.286   2.460  2.1332  0.7171 -0.0947
13930SOL    HW246638   4.545   5.265   2.596 -1.1635 -0.2264  1.3285
13931SOL     OW46639   6.165   3.458   2.003  0.3218  0.2265  0.3373
13931SOL    HW146640   6.249   3.501   2.025  0.8222 -0.3659 -0.4092
13931SOL    HW246641   6.099   3.524   2.024  1.0711  1.2782 -0.5163
13932SOL     OW46642   2.136   2.163   3.965  0.0957 -0.0636 -0.2064
13932SOL    HW146643   2.202   2.093   3.959 -0.5726 -1.0086  2.6746
13932SOL    HW246644   2.097   2.166   3.878  0.6389 -2.8108 -0.5945
13933SOL     OW46645   3.693   3.095   4.183 -0.2808 -0.1560  0.5928
13933SOL    HW146646   3.644   3.143   4.115  0.8116 -1.1575 -0.9328
13933SOL    HW246647   3.745   3.163   4.227 -0.6286  0.4349  0.1095
13934SOL     OW46648   4.300   1.569   4.945 -0.3473 -0.5408 -0.1445
13934SOL    HW146649   4.350   1.649   4.933 -0.3828 -0.2888  1.2399
13934SOL    HW246650   4.304   1.524   4.861  1.9916 -0.4106 -0.1293
13935SOL     OW46651   6.758   3.494   3.683  0.1143 -0.3433 -0.4717
13935SOL    HW146652   6.801   3.456   3.607  2.5745  3.0695 -0.9140
13935SOL    HW246653   6.771   3.430   3.753  2.7585 -1.0070 -1.5355
13936SOL     OW46654   6.786   5.954   6.183 -0.0317  0.0588  0.5004
13936SOL    HW146655   6.708   6.003   6.157  1.0834  0.4822 -2.2962
13936SOL    HW246656   6.856   5.992   6.130  1.7056 -1.6175  1.5363
13937SOL     OW46657   5.599   5.128   2.759  0.5099  0.8323  0.3452
13937SOL    HW146658   5.511   5.103   2.786  0.5263  1.2868  0.8321
13937SOL    HW246659   5.589   5.218   2.726  0.7177  0.7375  0.0190
13938SOL     OW46660   6.329   5.298   2.117  0.0655  0.2833  0.1713
13938SOL    HW146661   6.240   5.330   2.103 -1.1725 -2.5400  1.0834
13938SOL    HW246662   6.320   5.202   2.115  3.2908 -0.0535 -0.8913
13939SOL     OW46663   3.862   2.732   2.741 -0.1796 -0.3340  0.1198
13939SOL    HW146664   3.860   2.654   2.797  0.9415 -0.7665 -0.4447
13939SOL    HW246665   3.955   2.751   2.729 -0.4436  0.9759  0.0820
13940SOL     OW46666   7.313   5.515   2.870  0.5421 -0.1271 -0.0167
13940SOL    HW146667   7.270   5.560   2.797 -0.6664  1.5881  1.6938
13940SOL    HW246668   7.370   5.582   2.908  0.9350 -0.9229  0.7914
13941SOL     OW46669   3.897   2.913   0.821 -0.2483 -0.1927  0.2596
13941SOL    HW146670   3.896   2.817   0.824  0.9489 -0.1954  0.8487
13941SOL    HW246671   3.807   2.937   0.800 -0.3577 -1.4761 -0.8346
13942SOL     OW46672   5.815   5.907   2.189  0.0669  0.2651 -0.3976
13942SOL    HW146673   5.896   5.958   2.190  0.1581  0.3139 -3.4579
13942SOL    HW246674   5.747   5.970   2.211  0.4659  1.1822 -1.6811
13943SOL     OW46675   6.406   6.623   7.729  0.3918  0.5172 -0.1070
13943SOL    HW146676   6.383   6.621   7.822 -0.5268  0.9570 -0.3144
13943SOL    HW246677   6.500   6.608   7.727  0.5462  1.2774  0.9421
13944SOL     OW46678   4.207   5.691   2.734 -0.0114 -0.2874 -0.1091
13944SOL    HW146679   4.297   5.661   2.721  0.1748  0.6375 -1.0847
13944SOL    HW246680   4.163   5.619   2.778  0.6195 -1.6643 -1.6806
13945SOL     OW46681   7.724   7.858   5.171 -0.2161  0.0905 -0.2720
13945SOL    HW146682   7.701   7.869   5.263 -0.4759 -0.3956 -0.2777
13945SOL    HW246683   7.640   7.850   5.125 -0.0515 -2.6309 -0.1721
13946SOL     OW46684   3.728   4.899   1.867  0.1399 -0.0291  0.2524
13946SOL    HW146685   3.648   4.900   1.814  0.2212  0.6648  0.1302
13946SOL    HW246686   3.734   4.989   1.901  0.1418 -0.4441  1.3578
13947SOL     OW46687   7.638   4.403   5.321 -0.3993  0.0319  0.1164
13947SOL    HW146688   7.634   4.473   5.387 -0.8435 -2.0254  2.3430
13947SOL    HW246689   7.730   4.381   5.314 -0.2797  0.6736 -0.4486
13948SOL     OW46690   2.546   3.799   7.740  0.4205  0.1178 -0.2298
13948SOL    HW146691   2.496   3.778   7.819  2.7887 -1.8961  0.7997
13948SOL    HW246692   2.490   3.770   7.668 -0.3358 -1.1847  0.8565
13949SOL     OW46693   6.594   3.184   7.142  0.1716  0.5743  0.1689
13949SOL    HW146694   6.682   3.165   7.174  0.7652 -0.6395 -2.0205
13949SOL    HW246695   6.571   3.107   7.090 -3.5940 -0.6501  3.4490
13950SOL     OW46696   6.452   5.598   1.757 -0.2792 -0.5926  0.2738
13950SOL    HW146697   6.481   5.507   1.771 -0.5945 -0.4685  1.7834
13950SOL    HW246698   6.365   5.589   1.717 -0.8831 -0.9781  1.6266
13951SOL     OW46699   2.360   4.122   4.692  0.3780 -0.1961  0.2135
13951SOL    HW146700   2.272   4.088   4.675 -0.0427  0.8439  0.2897
13951SOL    HW246701   2.404   4.050   4.738 -1.2557  0.2031  2.5039
13952SOL     OW46702   4.117   4.213   3.835  0.3175  0.1426 -0.0821
13952SOL    HW146703   4.090   4.139   3.889 -0.0088 -0.7190 -1.4146
13952SOL    HW246704   4.043   4.228   3.777  1.4862 -0.2734 -1.7089
13953SOL     OW46705   3.675   4.826   2.538 -0.1469 -0.2649 -0.0490
13953SOL    HW146706   3.582   4.808   2.526 -0.0520  0.2275 -1.5128
13953SOL    HW246707   3.688   4.914   2.504  1.2441 -1.1117 -1.8379
13954SOL     OW46708   6.250   7.177   2.335  0.2349 -0.8900 -0.2978
13954SOL    HW146709   6.228   7.267   2.357  0.4707 -0.6824 -0.9041
13954SOL    HW246710   6.331   7.160   2.384  1.2533 -0.1342 -1.6606
13955SOL     OW46711   7.449   5.404   4.804 -0.5388 -0.7105 -0.6653
13955SOL    HW146712   7.532   5.356   4.799 -0.3279 -0.2996 -1.1178
13955SOL    HW246713   7.382   5.338   4.787 -0.2246 -0.7518 -1.7520
13956SOL     OW46714   6.751   2.985   2.354 -0.0515  0.3473  0.3949
13956SOL    HW146715   6.811   3.055   2.379  0.5727 -0.7591  2.0367
13956SOL    HW246716   6.680   2.990   2.418 -0.0365 -0.4953  0.4734
13957SOL     OW46717   7.938   5.082   7.800  0.1754  0.0694  0.1604
13957SOL    HW146718   8.022   5.111   7.836  0.1726 -0.0425  0.2583
13957SOL    HW246719   7.924   4.996   7.839  0.6986 -0.5313 -0.9775
13958SOL     OW46720   7.676   5.380   3.030  0.0730  0.1415 -0.0652
13958SOL    HW146721   7.645   5.463   2.994 -0.5940  0.5712  1.4304
13958SOL    HW246722   7.653   5.315   2.964 -2.3357  0.7199  0.1394
13959SOL     OW46723   3.465   4.122   3.892  0.8699 -0.2266  0.1798
13959SOL    HW146724   3.392   4.131   3.831 -0.1567  0.3780  1.4782
13959SOL    HW246725   3.425   4.092   3.974  2.0225  0.4251  1.0055
13960SOL     OW46726   2.174   2.362   6.921 -0.3618 -0.1900 -0.0650
13960SOL    HW146727   2.119   2.405   6.988 -0.4788  0.1094 -0.3514
13960SOL    HW246728   2.219   2.292   6.969 -0.9418 -0.3918  0.1879
13961SOL     OW46729   8.034   5.242   6.601  0.5686 -0.6149 -0.2777
13961SOL    HW146730   7.988   5.161   6.580  0.6398 -0.3561 -1.4604
13961SOL    HW246731   8.057   5.280   6.516  0.6325  0.5896  0.2592
13962SOL     OW46732   5.246   3.027   4.958 -0.8611 -0.2156  0.4598
13962SOL    HW146733   5.327   3.024   5.009  0.3254 -1.5583 -1.4537
13962SOL    HW246734   5.186   2.969   5.004  0.6724 -2.5539 -0.3856
13963SOL     OW46735   3.350   3.283   3.478  0.0993 -0.0011  0.1053
13963SOL    HW146736   3.331   3.199   3.437 -0.4837 -0.4048  1.1850
13963SOL    HW246737   3.445   3.293   3.469  0.3707 -1.4510  1.2670
13964SOL     OW46738   3.078   2.979   4.986 -0.0029 -0.7047  0.4995
13964SOL    HW146739   3.051   3.061   5.027 -0.2900  0.5994 -2.1485
13964SOL    HW246740   2.997   2.941   4.953  0.2555 -1.5725  0.8551
13965SOL     OW46741   4.532   4.804   3.259  0.0410  0.5489 -0.2519
13965SOL    HW146742   4.460   4.852   3.219  0.0622  0.1742 -0.7308
13965SOL    HW246743   4.528   4.828   3.352  0.0928  1.5281 -0.4987
13966SOL     OW46744   4.856   2.918   4.119 -0.0494  0.1929  0.0522
13966SOL    HW146745   4.767   2.939   4.091  0.6047  0.5328 -1.8504
13966SOL    HW246746   4.899   2.886   4.040  1.5551  0.0987  0.9380
13967SOL     OW46747   2.581   3.815   4.488 -0.0801 -0.2491 -0.0851
13967SOL    HW146748   2.642   3.868   4.539  1.1078 -0.2505 -1.4821
13967SOL    HW246749   2.505   3.805   4.545 -0.0748  2.4221  0.4556
13968SOL     OW46750   5.530   3.373   3.344 -0.2022 -0.6091  0.1659
13968SOL    HW146751   5.546   3.343   3.433 -0.9382 -2.6732 -0.3651
13968SOL    HW246752   5.470   3.307   3.307 -0.0432  0.3089 -1.7778
13969SOL     OW46753   7.607   6.180   7.394 -0.1042 -0.2773 -0.3792
13969SOL    HW146754   7.597   6.259   7.340  1.2029 -1.1618 -2.0039
13969SOL    HW246755   7.627   6.212   7.481 -1.8503  1.2096 -0.5198
13970SOL     OW46756   3.119   3.977   3.494  0.2817  0.2886 -0.2996
13970SOL    HW146757   3.031   3.974   3.455  1.0394  2.0709 -2.2520
13970SOL    HW246758   3.132   3.890   3.530 -0.8481 -1.1842 -3.2635
13971SOL     OW46759   5.170   4.881   1.960  0.3421  0.3628  0.7070
13971SOL    HW146760   5.264   4.884   1.944 -0.0585 -0.1604 -1.9539
13971SOL    HW246761   5.131   4.889   1.873 -2.0105 -2.5700  1.4106
13972SOL     OW46762   6.002   3.963   3.889 -0.5334 -0.1709  0.1037
13972SOL    HW146763   6.023   4.000   3.975  2.3483 -1.5745  0.0580
13972SOL    HW246764   5.948   3.887   3.908  0.6403 -0.8536  0.7291
13973SOL     OW46765   3.415   3.778   4.408 -0.3408  0.3248  0.8321
13973SOL    HW146766   3.392   3.762   4.499 -3.0881  1.0505  0.3181
13973SOL    HW246767   3.334   3.809   4.368  0.6574 -0.6000 -2.0231
13974SOL     OW46768   7.099   6.412   5.628 -0.4596  0.2954  0.5195
13974SOL    HW146769   7.037   6.441   5.561 -0.5638 -1.8957 -0.3836
13974SOL    HW246770   7.162   6.358   5.581 -0.1098 -0.6854  2.0576
13975SOL     OW46771   2.727   4.754   5.813 -0.5830  0.0391 -0.1018
13975SOL    HW146772   2.794   4.720   5.754 -1.0373  1.9307 -1.7892
13975SOL    HW246773   2.644   4.731   5.770 -0.9363  0.5147  0.3170
13976SOL     OW46774   7.597   3.664   2.795  0.4657  0.0427  0.3138
13976SOL    HW146775   7.508   3.640   2.770  0.2476 -0.0888  1.2013
13976SOL    HW246776   7.648   3.653   2.715 -0.2102 -0.4248 -0.0595
13977SOL     OW46777   6.418   4.705   2.604  0.2894 -0.2963 -0.3897
13977SOL    HW146778   6.466   4.729   2.683 -1.5224 -1.2343  1.0394
13977SOL    HW246779   6.486   4.673   2.543  2.0530  3.2200 -0.3690
13978SOL     OW46780   6.489   5.335   2.361  0.0778 -0.3398 -0.6598
13978SOL    HW146781   6.576   5.349   2.323 -0.3697 -0.4496 -1.7493
13978SOL    HW246782   6.432   5.321   2.286 -0.7456 -1.0468  0.0811
13979SOL     OW46783   6.529   5.186   2.637  0.2064  0.4231 -0.0520
13979SOL    HW146784   6.468   5.113   2.650 -0.7175  1.2142  0.1368
13979SOL    HW246785   6.483   5.245   2.577  1.9323 -0.2915 -2.1666
13980SOL     OW46786   2.654   4.074   3.623 -0.0634  0.4361 -0.5199
13980SOL    HW146787   2.611   4.154   3.595 -0.3412  0.5874  0.3276
13980SOL    HW246788   2.589   4.029   3.677 -0.5188 -1.1782 -2.3409
13981SOL     OW46789   7.923   4.600   5.234 -0.2080  0.1161 -0.0741
13981SOL    HW146790   8.008   4.643   5.247  0.9514 -1.3387 -2.4411
13981SOL    HW246791   7.930   4.518   5.283 -0.9801  0.8453  1.2820
13982SOL     OW46792   3.387   2.764   2.923 -0.5707 -0.0466 -0.0468
13982SOL    HW146793   3.309   2.819   2.933 -1.6215 -1.2684 -1.3349
13982SOL    HW246794   3.389   2.712   3.003  1.7910  3.4521  2.3213
13983SOL     OW46795   4.758   4.485   2.646 -0.1728 -0.0360 -0.2417
13983SOL    HW146796   4.787   4.494   2.555 -1.5103 -0.3734 -0.7181
13983SOL    HW246797   4.805   4.553   2.694  2.5310 -1.5280 -0.7099
13984SOL     OW46798   2.707   5.302   4.284 -0.4145  0.4004  0.3685
13984SOL    HW146799   2.628   5.337   4.243  0.0193  0.1011 -0.7651
13984SOL    HW246800   2.697   5.207   4.277  0.0731  0.3644  0.1608
13985SOL     OW46801   4.793   3.197   1.471  0.4879  0.3539 -0.0132
13985SOL    HW146802   4.762   3.201   1.561  2.4359 -1.1273  0.7532
13985SOL    HW246803   4.743   3.126   1.431 -0.6368  1.2483 -0.2365
13986SOL     OW46804   3.459   2.330   5.000  0.3841  0.1807 -0.2263
13986SOL    HW146805   3.374   2.297   5.031  0.0133 -1.0536 -2.4843
13986SOL    HW246806   3.437   2.384   4.924  1.3101  2.9742  1.4126
13987SOL     OW46807   2.454   1.294   6.112  0.2054  0.2572  0.0630
13987SOL    HW146808   2.451   1.364   6.178 -0.2915  0.8587 -0.5846
13987SOL    HW246809   2.439   1.214   6.162 -2.0960  0.8671  0.4478
13988SOL     OW46810   2.901   4.415   4.323  0.1723  0.6746  0.0061
13988SOL    HW146811   2.989   4.434   4.290  1.3351 -0.6108  2.2488
13988SOL    HW246812   2.886   4.323   4.298  0.0774  0.4433  0.9044
13989SOL     OW46813   7.459   5.459   7.605 -0.3507  0.0490  0.0157
13989SOL    HW146814   7.546   5.486   7.575  0.0123 -1.5244 -0.3834
13989SOL    HW246815   7.449   5.501   7.691 -0.8931  3.5894 -1.6777
13990SOL     OW46816   5.134   4.369   3.372 -0.0292 -0.3612 -0.5154
13990SOL    HW146817   5.103   4.305   3.308  1.1584 -1.6047  0.1159
13990SOL    HW246818   5.205   4.324   3.419  2.6103  2.2768 -1.7588
13991SOL     OW46819   7.500   5.658   4.858  0.0060  0.3247 -0.5197
13991SOL    HW146820   7.460   5.574   4.836  1.0304 -0.3575  0.1487
13991SOL    HW246821   7.594   5.644   4.844  0.5445  0.3356  2.6669
13992SOL     OW46822   1.789   5.920   4.306  0.1176  0.2678 -0.3583
13992SOL    HW146823   1.862   5.981   4.319  0.5802 -0.1972 -0.7429
13992SOL    HW246824   1.740   5.923   4.388  0.2724  0.9767 -0.2848
13993SOL     OW46825   2.824   3.377   4.596 -0.5645  0.2079 -0.3464
13993SOL    HW146826   2.853   3.323   4.522 -0.0646  1.1713 -0.8757
13993SOL    HW246827   2.749   3.426   4.561  0.4332  1.5852 -0.6324
13994SOL     OW46828   5.304   3.329   4.084  0.4232  0.4809  0.1223
13994SOL    HW146829   5.242   3.259   4.103  0.3936  0.5373  0.2342
13994SOL    HW246830   5.312   3.377   4.167 -0.7573  1.5547 -0.3591
13995SOL     OW46831   3.229   3.082   6.216  0.4733  0.2056  0.5298
13995SOL    HW146832   3.259   3.169   6.240  0.4135 -0.0145  1.4383
13995SOL    HW246833   3.144   3.073   6.260 -0.0927  0.1539 -0.5559
13996SOL     OW46834   7.554   5.295   4.456 -0.0421 -0.0652  0.6467
13996SOL    HW146835   7.514   5.216   4.491  0.4394 -0.8473 -0.5519
13996SOL    HW246836   7.495   5.366   4.483 -0.4097 -0.8130  1.8201
13997SOL     OW46837   3.328   5.338   1.419  0.4769  0.2202 -0.2818
13997SOL    HW146838   3.321   5.311   1.327  0.1699  0.9483 -0.4755
13997SOL    HW246839   3.362   5.427   1.415 -0.4317  0.5913  0.2775
13998SOL     OW46840   7.164   6.735   5.297  0.2261  0.3179  0.0737
13998SOL    HW146841   7.204   6.651   5.319 -3.1492 -0.7771  2.3515
13998SOL    HW246842   7.174   6.788   5.375 -0.1966  1.0523 -0.3645
13999SOL     OW46843   7.718   5.545   5.379 -0.0424 -0.0688  0.6312
13999SOL    HW146844   7.654   5.478   5.402  1.6697 -2.5008 -1.4070
13999SOL    HW246845   7.787   5.536   5.445 -0.3925  0.5736  1.0961
14000SOL     OW46846   5.659   2.955   4.384 -0.3748  0.2249  0.3835
14000SOL    HW146847   5.631   2.887   4.446  1.1933 -0.7613  0.0579
14000SOL    HW246848   5.592   2.954   4.315 -0.7594 -0.4897  0.7601
14001SOL     OW46849   3.120   2.481   5.048 -0.4158  0.1857  0.1539
14001SOL    HW146850   3.144   2.538   4.975  1.6781 -0.8569 -0.0001
14001SOL    HW246851   3.180   2.505   5.118 -0.5196 -0.8118  0.5839
14002SOL     OW46852   6.544   3.502   3.126  0.0767 -0.1693 -0.1619
14002SOL    HW146853   6.595   3.485   3.205  0.7250  0.0772 -0.5226
14002SOL    HW246854   6.590   3.574   3.083 -1.5896  1.2644  0.4025
14003SOL     OW46855   5.343   3.676   1.253 -0.1608 -0.4161  0.0211
14003SOL    HW146856   5.335   3.585   1.282 -1.0352 -0.0818  0.8739
14003SOL    HW246857   5.307   3.727   1.325 -0.1842  0.5781 -0.6862
14004SOL     OW46858   3.799   2.531   4.975 -0.0661  0.0588 -0.5115
14004SOL    HW146859   3.740   2.506   5.046  1.3525 -0.8220  0.3843
14004SOL    HW246860   3.877   2.477   4.988  1.3732  1.9461 -1.0262
14005SOL     OW46861   5.103   4.133   2.919  0.5858  0.0165 -0.3394
14005SOL    HW146862   5.068   4.189   2.850  1.8378  1.3550  0.0678
14005SOL    HW246863   5.147   4.062   2.873 -0.5555 -0.3418 -0.8797
14006SOL     OW46864   6.654   2.943   3.711 -0.2383  0.1082  0.6120
14006SOL    HW146865   6.724   3.005   3.689  0.2424 -0.5622  0.2167
14006SOL    HW246866   6.595   2.992   3.767  0.3752  0.7919  0.6676
14007SOL     OW46867   5.907   4.244   2.991  0.0007  0.0682  0.5571
14007SOL    HW146868   5.931   4.157   3.023 -1.4937 -0.0889  1.2910
14007SOL    HW246869   5.988   4.294   2.994  0.8023 -1.2077  0.4432
14008SOL     OW46870   6.866   4.046   8.677 -0.6982 -0.2653  0.5518
14008SOL    HW146871   6.872   3.976   8.742  0.0587 -0.3021  0.4479
14008SOL    HW246872   6.857   4.126   8.730 -1.3765 -0.4119  0.6735
14009SOL     OW46873   6.308   3.402   5.285  0.0322 -0.1232 -0.0934
14009SOL    HW146874   6.326   3.407   5.191 -1.2842  2.3497 -0.2518
14009SOL    HW246875   6.235   3.341   5.293  0.6516 -0.9426 -0.5713
14010SOL     OW46876   3.987   5.207   1.538  0.0439 -0.0029 -0.5022
14010SOL    HW146877   3.903   5.161   1.526 -1.0853  1.6386  0.8603
14010SOL    HW246878   4.053   5.140   1.519 -1.5605 -1.4644 -1.1486
14011SOL     OW46879   5.280   4.331   1.868 -0.1452  0.3031  0.2192
14011SOL    HW146880   5.372   4.326   1.842 -0.4366 -0.6497 -0.6853
14011SOL    HW246881   5.232   4.330   1.785 -0.9138  2.9516  0.5816
14012SOL     OW46882   2.717   3.599   5.412  1.0587 -0.0811  0.1145
14012SOL    HW146883   2.771   3.609   5.334 -1.4765 -1.8963 -1.9642
14012SOL    HW246884   2.706   3.504   5.422 -2.3010  0.2497  0.0383
14013SOL     OW46885   3.472   3.679   2.146  0.3225  0.0065  0.3164
14013SOL    HW146886   3.502   3.621   2.076  1.7236  1.5521 -0.3891
14013SOL    HW246887   3.380   3.655   2.159  0.6438 -1.7965 -0.5190
14014SOL     OW46888   3.204   4.851   2.758  0.6335 -0.1157  0.6112
14014SOL    HW146889   3.133   4.882   2.814  1.8704  0.3570  1.9388
14014SOL    HW246890   3.189   4.756   2.751  0.1172 -0.0834  1.2379
14015SOL     OW46891   3.913   2.721   4.625  0.6958 -0.0402  0.2830
14015SOL    HW146892   3.883   2.631   4.633  2.6923 -0.6478  1.0461
14015SOL    HW246893   3.834   2.771   4.604 -1.0411 -1.4431  3.2416
14016SOL     OW46894   7.338   4.290   3.326  0.0573 -0.0717 -0.0363
14016SOL    HW146895   7.285   4.211   3.320  1.2436 -1.1995  3.0844
14016SOL    HW246896   7.428   4.259   3.333  0.6889  1.6122 -0.4275
14017SOL     OW46897   7.180   4.786   2.549  0.7231 -0.2399  0.4443
14017SOL    HW146898   7.158   4.820   2.463 -0.6718 -0.3168  0.7579
14017SOL    HW246899   7.219   4.860   2.595  1.6805 -0.2626 -0.3208
14018SOL     OW46900   4.928   3.943   3.026  0.6368  0.3368 -0.0312
14018SOL    HW146901   4.942   3.958   3.120 -0.8148  3.1547 -0.2191
14018SOL    HW246902   4.997   3.995   2.984 -0.0770  0.8596 -0.5603
14019SOL     OW46903   3.518   4.216   3.541  0.2082 -0.0978 -0.3865
14019SOL    HW146904   3.598   4.239   3.588  0.2250 -0.1840 -0.3726
14019SOL    HW246905   3.474   4.153   3.598 -0.3776  0.7288  0.0811
14020SOL     OW46906   4.012   4.989   2.433 -0.2718  0.2031  0.6291
14020SOL    HW146907   4.094   4.971   2.479 -0.1998  0.7618  0.7212
14020SOL    HW246908   3.951   5.016   2.503 -1.0689 -1.9855  0.8187
14021SOL     OW46909   3.399   3.966   2.112 -0.2571  0.1745  0.0181
14021SOL    HW146910   3.442   3.893   2.156  1.0209  1.3278  0.7111
14021SOL    HW246911   3.313   3.932   2.088  0.2548 -1.4946  0.5015
14022SOL     OW46912   4.208   3.789   3.515  0.5149 -0.2841  0.0768
14022SOL    HW146913   4.117   3.784   3.486  0.9146  0.6022 -1.3747
14022SOL    HW246914   4.258   3.810   3.436  1.8788  0.2133  1.0397
14023SOL     OW46915   4.458   3.212   5.072  0.1351  0.1379  0.0988
14023SOL    HW146916   4.493   3.251   4.992  0.4631 -0.0827  0.1322
14023SOL    HW246917   4.503   3.128   5.079  1.0104  0.6900  1.1757
14024SOL     OW46918   2.809   3.298   2.779  0.3470  0.0132  0.1420
14024SOL    HW146919   2.845   3.327   2.862  0.8061 -1.0015  0.3012
14024SOL    HW246920   2.716   3.282   2.797 -0.1169  2.1966 -0.1641
14025SOL     OW46921   4.714   2.363   1.984 -0.0411 -0.0558  0.1266
14025SOL    HW146922   4.730   2.290   2.044  1.5107 -1.9119 -2.3710
14025SOL    HW246923   4.632   2.401   2.013 -0.3883 -2.1989  2.1294
14026SOL     OW46924   3.064   3.434   5.392 -0.2276 -0.5126 -0.4713
14026SOL    HW146925   3.041   3.397   5.477  0.3793 -1.9183 -0.9062
14026SOL    HW246926   3.157   3.456   5.399 -0.1737 -0.6362 -0.7661
14027SOL     OW46927   6.628   3.568   2.555 -0.1368  0.0608  0.5404
14027SOL    HW146928   6.670   3.492   2.514  0.5931  0.0490  1.3045
14027SOL    HW246929   6.650   3.561   2.648 -0.3703  1.0074  0.6753
14028SOL     OW46930   5.044   2.330   6.092  0.0930  0.5125  0.2905
14028SOL    HW146931   5.116   2.290   6.044 -0.4964 -0.4034  0.1649
14028SOL    HW246932   5.052   2.295   6.181 -0.2879  0.2886  0.2371
14029SOL     OW46933   7.963   6.356   5.198  0.4272  0.6407 -0.6333
14029SOL    HW146934   7.928   6.393   5.117  0.7441  0.6485 -0.7668
14029SOL    HW246935   8.057   6.352   5.184  0.2686 -1.8866 -1.3173
14030SOL     OW46936   2.873   3.337   6.165 -0.2629 -0.1817  0.1499
14030SOL    HW146937   2.779   3.352   6.171 -0.3475  0.0394 -1.6740
14030SOL    HW246938   2.913   3.422   6.181 -0.4353  0.1065 -0.9611
14031SOL     OW46939   5.089   3.796   2.066  0.1327  0.5234 -0.4726
14031SOL    HW146940   5.096   3.701   2.077  0.1071  0.6491  0.6812
14031SOL    HW246941   5.133   3.832   2.143  0.2054  1.4473 -0.9499
14032SOL     OW46942   2.941   4.711   5.069  0.5338 -0.0566  0.2548
14032SOL    HW146943   3.016   4.746   5.020  1.2086  0.1057  1.3947
14032SOL    HW246944   2.953   4.616   5.066 -1.3498 -0.2767 -2.9231
14033SOL     OW46945   6.739   5.224   2.843 -0.0421  0.8496  0.2303
14033SOL    HW146946   6.701   5.241   2.757 -1.6173  1.9790  1.1077
14033SOL    HW246947   6.747   5.129   2.848 -2.6579  0.5852 -0.0516
14034SOL     OW46948   4.479   4.250   2.262  0.2608 -0.4383  0.3639
14034SOL    HW146949   4.460   4.284   2.349 -2.3469  1.2641 -0.8085
14034SOL    HW246950   4.560   4.295   2.236 -0.3099  0.9657  0.9341
14035SOL     OW46951   4.683   4.931   1.069  0.3128  0.0578 -0.4348
14035SOL    HW146952   4.653   4.877   1.142 -0.5002  0.0615 -0.7628
14035SOL    HW246953   4.655   5.020   1.092  2.5558  0.5272  0.5979
14036SOL     OW46954   5.656   2.447   4.106  0.1622 -0.3270 -0.1123
14036SOL    HW146955   5.674   2.451   4.200 -2.6220  1.6085  0.3701
14036SOL    HW246956   5.616   2.361   4.092  0.7129 -0.6734  0.4119
14037SOL     OW46957   5.538   2.764   2.695 -0.1244 -0.5849 -0.3757
14037SOL    HW146958   5.453   2.784   2.657 -0.1239  2.6420  1.1929
14037SOL    HW246959   5.520   2.698   2.762 -1.1012 -1.1560 -1.1823
14038SOL     OW46960   4.468   5.425   2.288 -0.6628  0.2221  0.8312
14038SOL    HW146961   4.390   5.424   2.233  0.2329  0.4156 -0.4550
14038SOL    HW246962   4.444   5.479   2.363 -1.4698  1.0050  0.0141
14039SOL     OW46963   7.107   5.126   3.269 -0.4511 -0.7785  0.9470
14039SOL    HW146964   7.069   5.090   3.188 -0.9168 -1.8404  1.6266
14039SOL    HW246965   7.197   5.095   3.270  0.0090  0.4983  0.0826
14040SOL     OW46966   4.329   4.344   3.947 -0.1704  0.5043 -0.6079
14040SOL    HW146967   4.349   4.328   4.040  1.6609 -2.0788 -1.3980
14040SOL    HW246968   4.266   4.277   3.925  0.8067 -0.0613 -1.7073
14041SOL     OW46969   6.513   2.974   3.452 -0.2613  0.0374  0.0241
14041SOL    HW146970   6.517   2.948   3.545 -1.7464  1.5874  0.5478
14041SOL    HW246971   6.476   2.898   3.407 -2.5303  0.3999  1.2041
14042SOL     OW46972   7.322   3.822   3.260  0.2799  0.0358  0.2258
14042SOL    HW146973   7.399   3.858   3.216  0.5990 -1.4677 -0.4884
14042SOL    HW246974   7.358   3.765   3.328 -0.1447 -2.6651 -1.7513
14043SOL     OW46975   3.019   4.242   3.281  0.4050  0.4669  0.0619
14043SOL    HW146976   2.994   4.154   3.311  1.4909  0.2241  0.2650
14043SOL    HW246977   3.046   4.288   3.360  0.2229  0.8541 -0.0999
14044SOL     OW46978   5.238   2.877   4.166 -0.1461 -0.2941 -0.4653
14044SOL    HW146979   5.249   2.785   4.191 -2.0697  0.0238  1.6690
14044SOL    HW246980   5.198   2.873   4.079  2.2994 -1.4389 -1.5795
14045SOL     OW46981   3.441   5.002   2.994 -0.3417  0.4980 -0.9531
14045SOL    HW146982   3.389   4.927   3.022  2.8621 -1.6267 -0.4635
14045SOL    HW246983   3.412   5.073   3.051 -0.7536 -1.3451  1.2219
14046SOL     OW46984   6.159   1.967   5.379  0.4037 -0.3875 -0.1675
14046SOL    HW146985   6.066   1.985   5.397  0.0045 -2.4573 -0.0382
14046SOL    HW246986   6.157   1.909   5.302  1.6213 -0.0344 -0.4677
14047SOL     OW46987   5.195   4.212   3.163  0.8002  0.3988  0.3478
14047SOL    HW146988   5.274   4.156   3.165  1.6009  1.4632 -1.0387
14047SOL    HW246989   5.185   4.235   3.071 -1.3005  0.0773  0.4868
14048SOL     OW46990   7.096   4.581   4.345  0.4339 -0.3513 -0.4968
14048SOL    HW146991   7.179   4.564   4.301 -0.1072 -0.2554 -1.5689
14048SOL    HW246992   7.087   4.677   4.343 -0.5652 -0.4597 -2.0197
14049SOL     OW46993   5.790   1.934   5.094 -0.1792 -0.7868  0.1251
14049SOL    HW146994   5.806   1.843   5.118  0.0147 -0.5552  0.8773
14049SOL    HW246995   5.741   1.971   5.168  0.5885 -0.0207  0.2633
14050SOL     OW46996   2.916   3.836   4.870  0.2160 -0.1116  0.0743
14050SOL    HW146997   2.954   3.834   4.958 -1.7661 -1.4608  0.9292
14050SOL    HW246998   2.980   3.789   4.815  0.5131 -1.0289  1.1943
14051SOL     OW46999   4.469   2.473   3.805 -0.1426 -0.0544 -0.1605
14051SOL    HW147000   4.557   2.443   3.783  0.2802  0.2811  1.0282
14051SOL    HW247001   4.412   2.398   3.785  0.2731  0.0731 -1.8893
14052SOL     OW47002   4.605   3.005   5.046 -0.4079  0.4618  0.1879
14052SOL    HW147003   4.641   3.015   5.134 -2.7850  1.1790  1.1170
14052SOL    HW247004   4.612   2.911   5.028  1.5436  0.5272  0.4741
14053SOL     OW47005   3.414   5.002   2.719  0.9056  0.1406 -0.0691
14053SOL    HW147006   3.424   5.050   2.801  0.2394  2.8228 -1.4637
14053SOL    HW247007   3.337   4.947   2.732  1.5310 -0.3744  1.5084
14054SOL     OW47008   3.797   4.914   2.229  0.1513 -0.3013  0.6455
14054SOL    HW147009   3.867   4.942   2.288 -0.6030 -0.1497  1.4829
14054SOL    HW247010   3.760   4.995   2.194 -2.1681 -0.1691  3.2281
14055SOL     OW47011   6.368   1.484   4.498  0.0854 -0.2805  0.1613
14055SOL    HW147012   6.440   1.483   4.435  0.2970  0.9612  0.3827
14055SOL    HW247013   6.296   1.526   4.452  0.1549  0.3782  0.6429
14056SOL     OW47014   4.945   4.040   3.271 -0.5680  0.2229 -0.2722
14056SOL    HW147015   5.026   4.090   3.257 -0.1295 -0.8445 -1.6704
14056SOL    HW247016   4.925   4.053   3.364 -0.2193  2.6157 -0.4822
14057SOL     OW47017   6.517   2.189   4.154 -0.3232 -0.0195 -0.3444
14057SOL    HW147018   6.465   2.182   4.233  0.5591 -0.7691  0.1673
14057SOL    HW247019   6.607   2.180   4.183 -0.0662 -1.6963 -1.6097
14058SOL     OW47020   4.894   4.694   2.739 -0.3034 -0.3774 -0.5958
14058SOL    HW147021   4.980   4.725   2.710  2.0224 -1.9844  4.1162
14058SOL    HW247022   4.844   4.774   2.754  1.3299  0.7144 -0.7667
14059SOL     OW47023   6.612   4.599   3.707 -0.2443  0.1279  0.3895
14059SOL    HW147024   6.673   4.616   3.636  0.3965  1.0872  1.1510
14059SOL    HW247025   6.599   4.685   3.748 -2.1905 -0.0492  0.1595
14060SOL     OW47026   2.221   4.451   4.906  0.5514  0.1426 -0.0829
14060SOL    HW147027   2.133   4.428   4.933  1.0967 -2.2063 -0.2036
14060SOL    HW247028   2.262   4.488   4.985  0.4658 -1.7584  0.8585
14061SOL     OW47029   2.630   3.528   6.965  0.4713 -0.1161  0.5866
14061SOL    HW147030   2.675   3.613   6.956  0.6008 -0.0882  1.5088
14061SOL    HW247031   2.628   3.494   6.876  0.4837  0.8270  0.2102
14062SOL     OW47032   2.156   3.042   6.135  0.1744 -0.5362 -0.1501
14062SOL    HW147033   2.233   3.037   6.191  1.4606 -0.6249 -1.8711
14062SOL    HW247034   2.191   3.064   6.048 -1.6446 -1.5215 -1.1624
14063SOL     OW47035   5.247   7.125   7.153 -0.3742 -0.1862 -0.1196
14063SOL    HW147036   5.332   7.160   7.127  0.3946 -1.0254  1.2119
14063SOL    HW247037   5.230   7.164   7.239 -0.4304 -1.5346  0.4854
14064SOL     OW47038   6.704   6.075   7.501 -0.7145  0.3150 -0.2418
14064SOL    HW147039   6.612   6.051   7.494 -0.8873  1.0022 -0.3824
14064SOL    HW247040   6.743   6.006   7.554 -0.8619 -1.1421 -1.9935
14065SOL     OW47041   6.644   4.139   8.388  0.0272 -0.1158  0.1168
14065SOL    HW147042   6.574   4.198   8.358  0.8547  0.2369 -1.1809
14065SOL    HW247043   6.696   4.193   8.448  1.6767  1.0284 -2.2360
14066SOL     OW47044   6.240   6.425   7.712 -0.1874 -0.0822 -0.4068
14066SOL    HW147045   6.290   6.506   7.712  0.9043 -0.7379 -1.0113
14066SOL    HW247046   6.149   6.452   7.707  0.0615  1.1546  1.2761
14067SOL     OW47047   4.125   6.647   8.622  0.1808 -0.4222  0.1636
14067SOL    HW147048   4.037   6.680   8.639  0.0806 -0.7086  0.1943
14067SOL    HW247049   4.112   6.558   8.590  0.5061 -0.8479  1.1832
14068SOL     OW47050   3.753   1.915   6.843  0.1079 -0.5319  0.2313
14068SOL    HW147051   3.823   1.974   6.871 -0.6681 -0.2829  1.7104
14068SOL    HW247052   3.793   1.861   6.774  1.4103  0.3658  0.2632
14069SOL     OW47053   6.904   4.388   7.579  0.6958  0.0561 -0.0446
14069SOL    HW147054   6.829   4.381   7.638 -0.4154 -0.3019 -1.4819
14069SOL    HW247055   6.923   4.482   7.575  1.3438  0.0117  1.5490
14070SOL     OW47056   4.082   8.012   7.429 -0.3244  0.3723 -0.2471
14070SOL    HW147057   3.996   8.044   7.401 -0.2254  1.9322  1.2379
14070SOL    HW247058   4.065   7.964   7.510  0.0863 -0.0926 -0.4296
14071SOL     OW47059   5.658   7.506   8.548  0.4963 -0.0877  0.0007
14071SOL    HW147060   5.693   7.560   8.477  0.5158 -0.4546 -0.2716
14071SOL    HW247061   5.730   7.446   8.570  0.6494  0.3265  0.6446
14072SOL     OW47062   2.901   4.061   7.443  0.3613  0.4266 -0.0172
14072SOL    HW147063   2.830   4.124   7.443  1.0552  1.2245  0.9949
14072SOL    HW247064   2.889   4.010   7.523  1.2413  0.9285  0.4372
14073SOL     OW47065   7.097   3.529   6.467 -0.2293 -0.5790 -0.6221
14073SOL    HW147066   7.156   3.460   6.437 -1.5820 -1.4788 -1.2974
14073SOL    HW247067   7.139   3.611   6.438  0.4482 -1.2292 -1.5086
14074SOL     OW47068   6.622   6.696   5.751 -0.3034  0.5365 -0.0129
14074SOL    HW147069   6.677   6.772   5.774 -0.2261  0.0967  1.2538
14074SOL    HW247070   6.611   6.704   5.656  1.1461  1.1810 -0.1549
14075SOL     OW47071   7.860   5.398   8.445 -0.3066 -0.0447  0.2848
14075SOL    HW147072   7.939   5.451   8.451  0.9475 -1.7399 -0.7283
14075SOL    HW247073   7.796   5.455   8.402  0.0404  1.6662  1.9775
14076SOL     OW47074   2.405   4.042   7.228 -0.6649  0.3112  0.7195
14076SOL    HW147075   2.328   4.077   7.271 -2.2420 -2.0016 -0.0919
14076SOL    HW247076   2.374   4.015   7.142  0.6474 -2.0788  0.9448
14077SOL     OW47077   2.894   3.156   6.871 -0.0862  0.3069  0.4634
14077SOL    HW147078   2.870   3.070   6.904  0.8058 -0.8478 -1.7972
14077SOL    HW247079   2.840   3.168   6.794  1.6204  0.6468 -0.7095
14078SOL     OW47080   3.033   4.429   9.058  0.4653 -0.3489  0.4220
14078SOL    HW147081   2.943   4.456   9.078  0.1091 -0.1731 -1.3841
14078SOL    HW247082   3.043   4.345   9.102 -0.3245 -0.0070  1.2660
14079SOL     OW47083   3.233   3.380   5.954 -0.7146 -0.3562 -0.8605
14079SOL    HW147084   3.234   3.436   6.032  0.1139  0.1676 -1.2326
14079SOL    HW247085   3.151   3.332   5.960 -0.8643  0.0028  0.1104
14080SOL     OW47086   7.866   3.462   6.715 -0.6312 -0.1938  0.1173
14080SOL    HW147087   7.809   3.388   6.737  0.2655 -0.6932  0.7823
14080SOL    HW247088   7.916   3.432   6.639  0.1431 -0.4936  0.7401
14081SOL     OW47089   2.718   3.493   6.695 -0.3529  0.4784  0.4340
14081SOL    HW147090   2.764   3.419   6.655 -2.3169 -0.3374 -0.3761
14081SOL    HW247091   2.763   3.571   6.662  0.0247 -0.2800 -0.8449
14082SOL     OW47092   7.000   7.035   8.116  0.3039 -0.3721 -0.7238
14082SOL    HW147093   7.000   7.010   8.209  1.0449  1.0110 -0.3417
14082SOL    HW247094   6.910   7.022   8.088 -0.1637  0.2018  0.4728
14083SOL     OW47095   1.458   4.048   4.898  0.1353  0.4645 -0.4174
14083SOL    HW147096   1.407   4.068   4.819  0.0491  0.7107 -0.2987
14083SOL    HW247097   1.392   4.031   4.965  0.2098  0.5559 -0.3211
14084SOL     OW47098   7.415   3.544   5.147 -0.0420 -0.6197 -0.0834
14084SOL    HW147099   7.385   3.580   5.064 -1.0821 -0.5497  0.3139
14084SOL    HW247100   7.384   3.607   5.213  0.4083 -0.8928  0.3932
14085SOL     OW47101   6.190   2.595   5.767  0.5842  1.4928  0.4711
14085SOL    HW147102   6.147   2.654   5.705 -0.5851  0.1284 -0.0377
14085SOL    HW247103   6.153   2.618   5.852  0.7996  2.0862  0.4091
14086SOL     OW47104   3.880   2.895   6.306 -0.6411  0.6095  0.7555
14086SOL    HW147105   3.827   2.936   6.238 -1.4289  0.3523  1.2085
14086SOL    HW247106   3.859   2.945   6.385  1.0059  1.5337  0.6231
14087SOL     OW47107   6.307   2.828   3.968  0.0224 -0.4026  0.5755
14087SOL    HW147108   6.264   2.884   4.032  1.3459  1.4308 -0.0895
14087SOL    HW247109   6.383   2.792   4.014  1.0593  1.0362  0.0115
14088SOL     OW47110   7.870   6.005   7.963 -0.8713 -0.0008 -0.3804
14088SOL    HW147111   7.786   6.037   7.996 -0.4532  0.5832  0.1264
14088SOL    HW247112   7.936   6.046   8.020 -0.1180  1.2906 -2.1160
14089SOL     OW47113   4.424   2.219   4.065  0.1072  0.2181 -1.0571
14089SOL    HW147114   4.411   2.126   4.047  2.9413 -0.0286 -2.0481
14089SOL    HW247115   4.356   2.263   4.014  0.7852 -1.1354 -3.1770
14090SOL     OW47116   2.868   3.200   4.101 -0.2746  0.3216 -0.2933
14090SOL    HW147117   2.839   3.117   4.137  0.0865  0.5695  0.5824
14090SOL    HW247118   2.790   3.256   4.104 -0.4625  0.0841 -0.6883
14091SOL     OW47119   7.067   6.112   7.399  0.2945  0.1602  0.1525
14091SOL    HW147120   7.150   6.155   7.379  1.1140 -0.3156  2.3576
14091SOL    HW247121   7.090   6.020   7.412 -1.0181 -0.4814 -1.8738
14092SOL     OW47122   4.760   6.851   9.434 -0.2069 -0.8308  0.6847
14092SOL    HW147123   4.680   6.799   9.431 -1.8629  1.6698 -0.6264
14092SOL    HW247124   4.737   6.928   9.485  1.1970  0.1686 -0.1359
14093SOL     OW47125   3.474   5.780   9.050  0.0055 -0.4396 -0.7623
14093SOL    HW147126   3.410   5.852   9.050  1.3472  0.7934  1.1234
14093SOL    HW247127   3.549   5.814   9.003 -0.2419 -1.4565 -1.9081
14094SOL     OW47128   7.713   5.555   7.051 -0.3225 -0.1024 -0.6366
14094SOL    HW147129   7.659   5.579   6.976  0.2807 -0.1693 -1.0972
14094SOL    HW247130   7.718   5.635   7.104  0.2971  0.3038 -1.3103
14095SOL     OW47131   5.073   8.352   4.813  0.2256  0.0047  0.2508
14095SOL    HW147132   5.160   8.348   4.853  0.0083  0.1938  0.7510
14095SOL    HW247133   5.037   8.265   4.826 -0.2538  0.3608  1.4167
14096SOL     OW47134   2.439   2.484   7.956  0.2608 -0.3602  0.2345
14096SOL    HW147135   2.344   2.490   7.952  0.0633 -2.3779  1.4254
14096SOL    HW247136   2.468   2.508   7.868 -1.5098 -2.2980 -0.9297
14097SOL     OW47137   3.356   3.601   4.148 -0.4894  0.1708 -0.1758
14097SOL    HW147138   3.423   3.644   4.202 -0.2163 -0.3223 -0.1186
14097SOL    HW247139   3.327   3.669   4.087 -0.6613  0.6742  0.4668
14098SOL     OW47140   7.939   4.571   7.900 -0.9398  0.3658 -0.5963
14098SOL    HW147141   7.850   4.537   7.902  0.0506 -2.2900  0.2341
14098SOL    HW247142   7.953   4.596   7.809 -2.4615  0.6546 -0.7629
14099SOL     OW47143   3.737   3.635   7.387 -1.0040 -0.3778  0.0375
14099SOL    HW147144   3.787   3.710   7.421 -0.9601  0.0177 -0.8956
14099SOL    HW247145   3.788   3.603   7.313  0.2730 -2.9062  1.9335
14100SOL     OW47146   7.012   5.288   7.868  0.3645 -0.0176  0.0682
14100SOL    HW147147   7.002   5.244   7.953  0.7984  0.0121  0.1340
14100SOL    HW247148   7.061   5.225   7.815  0.2236  0.0266 -0.1146
14101SOL     OW47149   4.235   2.765   7.542  0.2163  0.2879 -0.3590
14101SOL    HW147150   4.251   2.835   7.604 -0.1771  0.8394 -0.8802
14101SOL    HW247151   4.249   2.685   7.593  2.1414  0.7309 -0.1501
14102SOL     OW47152   8.454   4.262   7.613  0.4077 -0.3038 -0.1669
14102SOL    HW147153   8.399   4.189   7.585 -0.0676  0.3554 -0.9807
14102SOL    HW247154   8.482   4.304   7.531  0.8221  0.3090  0.2828
14103SOL     OW47155   7.200   4.354   9.351 -0.1719 -0.0121 -1.1038
14103SOL    HW147156   7.237   4.294   9.286  2.0913  0.4444 -0.2636
14103SOL    HW247157   7.228   4.441   9.323 -0.7380  0.3560 -0.5410
14104SOL     OW47158   2.337   2.412   6.315 -0.1906  0.3577 -0.3618
14104SOL    HW147159   2.311   2.335   6.365 -0.6715  0.6053 -0.2251
14104SOL    HW247160   2.329   2.385   6.223 -1.1562  0.5045 -0.3216
14105SOL     OW47161   2.083   5.786   8.113  0.1511  1.3431 -0.3793
14105SOL    HW147162   2.017   5.853   8.131  0.1803  0.8682  1.5317
14105SOL    HW247163   2.057   5.750   8.028 -0.4956  2.9953 -0.9152
14106SOL     OW47164   4.274   3.029   5.170  0.2491  0.1591 -0.2355
14106SOL    HW147165   4.319   3.107   5.138 -0.2086 -0.0517 -1.4180
14106SOL    HW247166   4.254   3.048   5.262 -0.5026  1.7220 -0.7138
14107SOL     OW47167   7.513   5.295   8.636  0.3516  0.7481  0.1666
14107SOL    HW147168   7.421   5.277   8.617  0.0106  2.2138  0.4089
14107SOL    HW247169   7.517   5.389   8.650  1.3253  0.2752  3.3215
14108SOL     OW47170   7.776   5.166   5.573 -0.0860  0.8045 -0.3992
14108SOL    HW147171   7.806   5.216   5.649 -1.2174 -0.3991  0.8551
14108SOL    HW247172   7.770   5.076   5.604 -0.0557  0.2058 -2.0680
14109SOL     OW47173   5.446   2.745   6.301  0.5940 -0.1721 -0.0141
14109SOL    HW147174   5.385   2.683   6.262  0.3811 -0.1558  0.2905
14109SOL    HW247175   5.397   2.827   6.306  0.3828 -0.3574  0.9450
14110SOL     OW47176   7.235   7.324   7.607 -0.3366  0.1249  0.0120
14110SOL    HW147177   7.199   7.401   7.651  1.4799  1.4845 -0.7685
14110SOL    HW247178   7.327   7.347   7.592 -0.3297 -1.2775 -2.2710
14111SOL     OW47179   6.455   2.172   4.743 -0.3397  0.1222 -0.2650
14111SOL    HW147180   6.465   2.145   4.834  1.1038 -0.9784 -0.7334
14111SOL    HW247181   6.380   2.231   4.743 -1.0222 -0.7266  1.4683
14112SOL     OW47182   1.952   3.714   7.639 -0.4118 -0.0984  0.1550
14112SOL    HW147183   1.917   3.717   7.728 -0.9236  0.8452 -0.0792
14112SOL    HW247184   1.971   3.621   7.624 -0.7729 -0.3222  1.0687
14113SOL     OW47185   1.975   5.109   5.053 -0.7071 -0.5365 -0.1272
14113SOL    HW147186   1.895   5.066   5.085 -0.5664 -0.4523  0.3294
14113SOL    HW247187   1.984   5.077   4.963 -2.3182  0.9113 -0.8469
14114SOL     OW47188   5.779   4.952   9.087 -0.1818  0.5597  0.4269
14114SOL    HW147189   5.794   5.024   9.148  0.5375  1.4187 -0.7408
14114SOL    HW247190   5.823   4.877   9.126  2.4310  1.7039 -0.2604
14115SOL     OW47191   4.813   4.825   0.408 -0.3499 -0.5511  0.0674
14115SOL    HW147192   4.897   4.779   0.413  0.3487  0.7612  0.5020
14115SOL    HW247193   4.780   4.806   0.319  1.0317  0.0084 -0.5766
14116SOL     OW47194   8.120   5.004   5.939 -0.0235 -0.5731 -0.0536
14116SOL    HW147195   8.187   4.990   5.872 -0.7095  0.3529 -0.9351
14116SOL    HW247196   8.131   4.930   5.999  0.0668 -1.8458 -1.6130
14117SOL     OW47197   3.402   3.134   7.168  0.7684 -0.0694 -0.3727
14117SOL    HW147198   3.496   3.120   7.177  0.7500 -0.1023 -0.2332
14117SOL    HW247199   3.368   3.132   7.257  0.7098  0.5030 -0.3803
14118SOL     OW47200   3.972   2.267   4.870  0.2291  0.2291  0.4043
14118SOL    HW147201   3.972   2.172   4.874 -2.4353  0.0935 -1.5066
14118SOL    HW247202   4.021   2.295   4.947  1.1673 -2.6651  0.9023
14119SOL     OW47203   4.028   1.780   6.359 -0.2918  0.6354  0.5016
14119SOL    HW147204   4.121   1.758   6.370  0.0411 -0.0347 -2.9999
14119SOL    HW247205   4.028   1.846   6.290 -2.3197  2.2083  1.9451
14120SOL     OW47206   6.001   1.534   5.250  0.3844  1.2057 -0.6223
14120SOL    HW147207   6.064   1.573   5.310  0.8715 -0.8500  0.2386
14120SOL    HW247208   6.054   1.489   5.185 -0.1788  1.8862 -1.5776
14121SOL     OW47209   4.928   7.061   7.272 -0.3125 -0.4842 -0.0603
14121SOL    HW147210   4.964   7.011   7.345  1.9348  0.8124 -0.2261
14121SOL    HW247211   4.842   7.089   7.302  0.8001  0.4935  2.3223
14122SOL     OW47212   3.196   7.455   8.035  0.5423  0.1684 -0.3454
14122SOL    HW147213   3.266   7.488   8.092 -0.2342 -0.0681  0.7515
14122SOL    HW247214   3.154   7.533   8.000 -0.8167  0.3719  1.6661
14123SOL     OW47215   2.896   3.918   4.415 -0.1299 -0.9179 -0.0102
14123SOL    HW147216   2.922   3.857   4.346 -0.4979 -1.5239  0.3826
14123SOL    HW247217   2.869   3.997   4.368  0.9633 -0.8246 -0.4895
14124SOL     OW47218   3.489   3.814   7.137 -0.6767 -0.3624 -0.6055
14124SOL    HW147219   3.438   3.893   7.119 -0.4537 -0.2274 -0.6473
14124SOL    HW247220   3.536   3.835   7.218 -0.1327 -0.2202 -0.9608
14125SOL     OW47221   4.939   3.664   9.026 -0.2260  0.4760 -0.1746
14125SOL    HW147222   5.035   3.656   9.026 -0.3079 -0.6028  0.9859
14125SOL    HW247223   4.920   3.712   9.107 -0.7915 -0.8282  0.4639
14126SOL     OW47224   6.911   7.293   7.019 -0.5301 -0.2321 -0.8207
14126SOL    HW147225   6.843   7.342   7.066 -0.2345 -0.2757 -0.3371
14126SOL    HW247226   6.989   7.348   7.028 -0.4618 -0.2676 -1.2220
14127SOL     OW47227   6.726   2.799   6.904 -0.0217 -0.0178 -0.2157
14127SOL    HW147228   6.655   2.816   6.966  1.1238  2.6925  0.4445
14127SOL    HW247229   6.700   2.844   6.823 -0.5534 -1.7857 -1.0400
14128SOL     OW47230   6.702   5.623   7.602  0.0846  0.4564 -0.0413
14128SOL    HW147231   6.770   5.560   7.625  1.5464  2.1623  0.4267
14128SOL    HW247232   6.663   5.589   7.522  0.4414 -1.3390  0.5268
14129SOL     OW47233   4.903   2.272   7.555  0.1825 -0.9258  0.3491
14129SOL    HW147234   4.874   2.239   7.470 -0.1786 -0.0144  0.1174
14129SOL    HW247235   4.886   2.199   7.616 -2.2241 -0.5815  0.1466
14130SOL     OW47236   3.666   2.998   5.868  0.4709  0.0071 -0.1725
14130SOL    HW147237   3.610   3.074   5.855  1.9592  0.9191 -1.2722
14130SOL    HW247238   3.609   2.923   5.849 -0.1352  0.9518 -2.1467
14131SOL     OW47239   7.117   5.484   5.738 -0.3830 -0.1772 -0.1955
14131SOL    HW147240   7.127   5.512   5.829 -0.6872  1.2825 -0.5993
14131SOL    HW247241   7.206   5.470   5.707 -0.0583  2.5436 -0.6359
14132SOL     OW47242   2.931   4.033   6.814 -0.4559 -0.3037  0.7635
14132SOL    HW147243   2.883   4.072   6.741  0.2334 -2.7910 -1.1023
14132SOL    HW247244   3.020   4.067   6.804 -0.7661  0.7427  1.5137
14133SOL     OW47245   6.386   2.654   2.662 -0.4160  0.4060 -0.1665
14133SOL    HW147246   6.343   2.718   2.606 -1.0642 -0.6638 -0.8973
14133SOL    HW247247   6.466   2.629   2.614 -0.8579 -0.3412 -0.5307
14134SOL     OW47248   6.560   2.813   4.817 -0.3839  0.0931 -0.6688
14134SOL    HW147249   6.554   2.744   4.751  2.0727  1.7555 -2.6900
14134SOL    HW247250   6.635   2.788   4.871 -1.1698 -0.2190  0.2951
14135SOL     OW47251   7.104   6.116   7.750  0.7813  0.9125 -0.1421
14135SOL    HW147252   7.174   6.180   7.735  2.7711 -1.3019 -0.5491
14135SOL    HW247253   7.149   6.032   7.758 -1.6520 -0.2843  1.8525
14136SOL     OW47254   5.987   6.905   7.755 -0.3182 -0.8093  0.6844
14136SOL    HW147255   5.977   6.967   7.683  0.1032 -2.2113 -0.6050
14136SOL    HW247256   5.979   6.959   7.834 -0.0193  0.8695 -0.4007
14137SOL     OW47257   4.002   6.971   7.875 -0.6021 -0.1546  0.5869
14137SOL    HW147258   3.990   7.000   7.785 -0.5784 -0.3900  0.5083
14137SOL    HW247259   4.097   6.968   7.887 -0.5747 -1.7357  0.0949
14138SOL     OW47260   6.291   2.881   5.993  0.4288 -0.2237  0.6813
14138SOL    HW147261   6.266   2.892   5.902 -0.4172  0.3498  0.9715
14138SOL    HW247262   6.321   2.791   6.000 -0.1916 -0.4821 -0.0072
14139SOL     OW47263   2.213   3.653   5.881  0.0547  0.1395 -0.7511
14139SOL    HW147264   2.181   3.741   5.900  1.7458  0.4223  0.8938
14139SOL    HW247265   2.149   3.594   5.921 -1.4588  0.5880 -2.4675
14140SOL     OW47266   3.621   2.720   7.068 -0.1871  0.3671  0.3511
14140SOL    HW147267   3.550   2.720   7.132 -1.4424 -0.3111 -1.0286
14140SOL    HW247268   3.668   2.802   7.086 -0.1171 -0.1154  2.5494
14141SOL     OW47269   6.471   3.720   6.418 -0.2111  0.7107  0.5070
14141SOL    HW147270   6.520   3.797   6.388 -0.5312  1.3023  1.4915
14141SOL    HW247271   6.504   3.703   6.506  0.0567 -0.4535  0.1860
14142SOL     OW47272   6.113   2.504   3.210 -0.0248 -0.0785 -0.2163
14142SOL    HW147273   6.198   2.468   3.237 -0.7873 -2.3564 -0.7374
14142SOL    HW247274   6.134   2.588   3.170  2.1155 -1.0636 -1.2519
14143SOL     OW47275   7.099   5.612   6.001 -0.1180 -0.1029  0.4581
14143SOL    HW147276   7.004   5.612   6.015 -0.0858  1.4281  0.7419
14143SOL    HW247277   7.135   5.578   6.082 -0.3800  0.2645  0.7309
14144SOL     OW47278   6.982   5.073   6.680  0.0051 -0.9192  0.3171
14144SOL    HW147279   6.924   5.096   6.753 -1.6721 -4.1047  0.1114
14144SOL    HW247280   7.021   4.989   6.707  2.1096 -0.3734 -0.9408
14145SOL     OW47281   6.031   5.818   8.298  0.2076 -0.4039 -0.2788
14145SOL    HW147282   5.944   5.811   8.259 -0.3277  0.7259  0.6722
14145SOL    HW247283   6.058   5.908   8.280  0.4178 -0.2065  0.9695
14146SOL     OW47284   6.613   3.923   4.945 -0.5376 -0.1766 -0.0745
14146SOL    HW147285   6.553   3.940   4.872 -1.5711 -1.5427  0.4254
14146SOL    HW247286   6.700   3.940   4.910 -1.1631  1.1578 -1.0196
14147SOL     OW47287   6.485   6.288   7.593  0.1246 -0.2954  0.2090
14147SOL    HW147288   6.508   6.348   7.522  1.3691 -0.1553  0.7224
14147SOL    HW247289   6.397   6.315   7.619  0.3357  0.7456 -0.1415
14148SOL     OW47290   7.889   4.694   6.555  0.2533  0.6332 -0.5252
14148SOL    HW147291   7.957   4.681   6.489  1.3317  0.0352  0.6808
14148SOL    HW247292   7.866   4.605   6.583  1.0135  0.9272  1.0949
14149SOL     OW47293   3.475   3.214   5.816  0.2647  0.1686  0.2177
14149SOL    HW147294   3.408   3.234   5.882 -0.5441 -1.2624 -0.1585
14149SOL    HW247295   3.460   3.277   5.746 -0.2229  0.3208  0.4601
14150SOL     OW47296   5.973   3.023   7.350  1.0102 -0.1374 -0.2912
14150SOL    HW147297   5.894   2.989   7.306 -1.0876  2.1568  1.5704
14150SOL    HW247298   5.988   2.962   7.422  1.4147 -1.0255 -1.1198
14151SOL     OW47299   5.603   6.134   8.453  0.0216  0.2434  0.2952
14151SOL    HW147300   5.693   6.125   8.484 -0.5864 -0.1191  2.0547
14151SOL    HW247301   5.592   6.228   8.438  0.1223  0.5340  1.9426
14152SOL     OW47302   8.210   4.028   8.427  0.1560 -0.1261  0.5238
14152SOL    HW147303   8.128   4.074   8.415  0.8752  0.9888 -0.1939
14152SOL    HW247304   8.216   3.968   8.353 -0.8708 -1.5410  1.5610
14153SOL     OW47305   6.071   6.305   8.598  0.0895  0.4084  0.7531
14153SOL    HW147306   6.115   6.220   8.597 -0.9366 -0.1346 -0.1067
14153SOL    HW247307   6.137   6.366   8.565  0.7269 -0.1147  1.0512
14154SOL     OW47308   7.369   6.186   7.859 -0.4062  0.3314 -0.4952
14154SOL    HW147309   7.378   6.282   7.858  0.2860  0.2924 -3.6114
14154SOL    HW247310   7.457   6.154   7.875 -0.6404  0.1864  0.5592
14155SOL     OW47311   6.672   1.622   8.901 -0.2553 -0.0001  0.6172
14155SOL    HW147312   6.648   1.658   8.986 -2.0090  0.0512  0.1012
14155SOL    HW247313   6.710   1.536   8.921  2.1199  1.2534  1.6778
14156SOL     OW47314   4.715   6.681   8.421 -0.4436  0.6162 -0.2189
14156SOL    HW147315   4.784   6.661   8.484 -0.5487 -0.8431 -0.5649
14156SOL    HW247316   4.761   6.697   8.339 -0.5561 -1.1654 -0.6447
14157SOL     OW47317   8.213   6.280   4.652  0.0389 -0.3737  0.0605
14157SOL    HW147318   8.243   6.221   4.721  0.9152 -0.3971 -0.3233
14157SOL    HW247319   8.145   6.333   4.693  0.7545 -0.1956  1.0277
14158SOL     OW47320   3.318   3.314   7.497  0.6869  0.0549  0.5217
14158SOL    HW147321   3.409   3.313   7.470  0.3174 -2.4842 -0.8140
14158SOL    HW247322   3.271   3.354   7.423  0.4275 -1.0769  0.0614
14159SOL     OW47323   7.251   5.409   6.504 -0.3904 -0.3387  0.6750
14159SOL    HW147324   7.283   5.331   6.458 -0.7154 -0.5598  0.8263
14159SOL    HW247325   7.159   5.414   6.481 -0.0127  0.9532 -0.6832
14160SOL     OW47326   4.184   7.491   7.227 -0.2993 -0.7473 -0.4307
14160SOL    HW147327   4.263   7.513   7.177 -0.5277  0.6205 -0.1973
14160SOL    HW247328   4.162   7.571   7.274 -0.0799 -2.0295  1.9051
14161SOL     OW47329   2.553   5.230   6.921  0.5355 -0.1340  0.4554
14161SOL    HW147330   2.467   5.214   6.881  0.6293  0.6335 -0.0714
14161SOL    HW247331   2.596   5.292   6.861  1.7745 -1.1390  0.2808
14162SOL     OW47332   5.874   1.856   4.035 -0.0144 -0.4133 -0.3865
14162SOL    HW147333   5.853   1.948   4.053  1.1693 -0.3743  0.8524
14162SOL    HW247334   5.913   1.857   3.948  0.7989  0.3871 -0.0206
14163SOL     OW47335   3.486   4.741   3.934  0.1296 -0.3061  0.0515
14163SOL    HW147336   3.469   4.835   3.942  1.3265  0.1131 -1.9127
14163SOL    HW247337   3.409   4.699   3.971 -0.4928  1.4570  0.7961
14164SOL     OW47338   5.093   6.154   8.647  0.1888 -0.7705 -0.2164
14164SOL    HW147339   5.107   6.085   8.712  0.7747 -1.0568 -0.6533
14164SOL    HW247340   5.076   6.232   8.700 -2.6198 -1.6492  0.3144
14165SOL     OW47341   5.368   2.061   4.262 -0.0252  0.3196 -0.2145
14165SOL    HW147342   5.272   2.059   4.258 -0.0660 -1.9718  1.2027
14165SOL    HW247343   5.396   2.017   4.182 -0.2091 -1.0293  0.4464
14166SOL     OW47344   4.410   5.941   9.119 -0.1432  0.4716  0.4158
14166SOL    HW147345   4.437   5.850   9.125  0.1543  0.4643 -0.8575
14166SOL    HW247346   4.359   5.957   9.199  0.4799 -0.5692  1.0287
14167SOL     OW47347   3.692   3.062   7.172 -0.4368  0.6686 -0.2989
14167SOL    HW147348   3.747   3.126   7.218  0.0698 -0.1972  0.3170
14167SOL    HW247349   3.743   2.981   7.173 -2.7807 -0.8983  2.6844
14168SOL     OW47350   7.403   5.517   7.142 -0.4961  0.6705  0.2676
14168SOL    HW147351   7.383   5.571   7.066 -0.6161  0.7316  0.3428
14168SOL    HW247352   7.463   5.570   7.194  0.6400  0.1081 -0.4301
14169SOL     OW47353   5.099   2.449   8.669 -0.4985 -0.2433  0.2409
14169SOL    HW147354   5.111   2.366   8.715 -2.3726 -1.0765 -0.7043
14169SOL    HW247355   5.050   2.504   8.731  3.6672  1.4337  2.2050
14170SOL     OW47356   3.539   3.674   7.589  0.3862  0.7615 -0.0386
14170SOL    HW147357   3.518   3.757   7.546  0.3166 -0.0292 -1.5937
14170SOL    HW247358   3.605   3.634   7.532 -0.9837 -1.0929 -0.3646
14171SOL     OW47359   6.353   6.354   8.168  0.5387  0.1481 -0.5127
14171SOL    HW147360   6.398   6.338   8.085  1.1502  0.2824 -0.2079
14171SOL    HW247361   6.381   6.441   8.195 -1.1383  0.8933 -1.1020
14172SOL     OW47362   4.260   2.885   4.642 -0.3724  0.0115  0.5008
14172SOL    HW147363   4.267   2.973   4.605  1.2280 -0.3669 -0.1214
14172SOL    HW247364   4.300   2.893   4.729 -0.0100 -0.1466  0.3505
14173SOL     OW47365   3.737   3.324   4.341  1.0736 -0.0924  0.7608
14173SOL    HW147366   3.641   3.322   4.347  0.9353  0.5914 -0.9910
14173SOL    HW247367   3.761   3.408   4.380  0.9668 -0.3094  1.2955
14174SOL     OW47368   4.557   2.687   7.382  0.6814 -0.0472  0.2073
14174SOL    HW147369   4.470   2.663   7.415  1.2085  0.0207  1.6812
14174SOL    HW247370   4.594   2.604   7.350 -0.8400  0.3285 -2.6559
14175SOL     OW47371   6.612   7.156   7.347  0.6016 -0.3700  0.1836
14175SOL    HW147372   6.639   7.066   7.328  1.2179 -0.9341  3.4124
14175SOL    HW247373   6.694   7.206   7.348  0.4985 -0.2017  0.5070
14176SOL     OW47374   7.224   6.555   8.244 -0.1252  0.3687 -0.1290
14176SOL    HW147375   7.316   6.581   8.251 -0.3650  1.0063  0.9356
14176SOL    HW247376   7.207   6.506   8.325 -0.6074 -0.0908 -0.5086
14177SOL     OW47377   7.899   4.590   7.301 -0.3143  0.1257  0.3911
14177SOL    HW147378   7.823   4.639   7.269  0.6892  1.4400 -0.0338
14177SOL    HW247379   7.948   4.569   7.221  1.2745  1.8637  0.8651
14178SOL     OW47380   3.729   3.782   9.046  0.6447 -0.3980  0.3920
14178SOL    HW147381   3.765   3.837   9.116 -0.0395  0.4518  0.1008
14178SOL    HW247382   3.780   3.702   9.049  0.5021 -0.4464  1.9968
14179SOL     OW47383   5.398   7.050   7.928 -0.3458  0.1604 -0.5700
14179SOL    HW147384   5.358   7.122   7.976  0.6930  0.3631  0.0230
14179SOL    HW247385   5.333   6.980   7.930 -0.6199  0.4388  0.4804
14180SOL     OW47386   3.074   4.172   7.186 -0.4793 -0.4719 -0.1740
14180SOL    HW147387   2.982   4.148   7.193 -0.8804  1.1597  0.3499
14180SOL    HW247388   3.078   4.264   7.214  1.6361 -1.1542  1.9651
14181SOL     OW47389   6.661   6.200   8.024 -0.7418  0.2537 -0.0725
14181SOL    HW147390   6.723   6.143   7.979 -1.7099 -1.1287  0.3142
14181SOL    HW247391   6.616   6.247   7.954 -3.3768 -3.0619 -0.7027
14182SOL     OW47392   7.427   4.470   7.865  0.4999  0.1655 -0.7043
14182SOL    HW147393   7.411   4.390   7.914 -1.5472  0.4665 -0.8151
14182SOL    HW247394   7.519   4.465   7.838  0.6416 -1.6867  0.0821
14183SOL     OW47395   2.133   3.769   7.148 -0.2674 -0.2757 -0.3878
14183SOL    HW147396   2.196   3.703   7.121  0.3293  0.8264 -1.7579
14183SOL    HW247397   2.173   3.811   7.224  0.9180  0.7534 -1.5497
14184SOL     OW47398   6.523   3.380   6.778  0.3208  0.1714 -0.4701
14184SOL    HW147399   6.511   3.291   6.745 -0.4521  1.3492 -3.5390
14184SOL    HW247400   6.502   3.374   6.871 -0.8311 -2.6209 -0.8580
14185SOL     OW47401   7.918   5.379   4.775  0.1447 -0.0850  0.3128
14185SOL    HW147402   7.875   5.324   4.709 -1.3616  1.3975  0.0390
14185SOL    HW247403   7.886   5.345   4.859 -2.6748  1.7995  0.0953
14186SOL     OW47404   5.893   7.386   7.950 -0.2449 -0.5828 -0.0061
14186SOL    HW147405   5.979   7.358   7.981 -0.4805 -1.2722  0.0282
14186SOL    HW247406   5.872   7.462   8.003  1.0836  0.6198 -1.1394
14187SOL     OW47407   3.556   3.510   5.494  0.4029 -0.1161 -0.2014
14187SOL    HW147408   3.532   3.533   5.584  0.8373  1.7550 -0.5527
14187SOL    HW247409   3.568   3.415   5.497 -1.1848 -0.3018  1.3323
14188SOL     OW47410   2.229   2.956   7.126 -0.1351 -0.6611  0.8715
14188SOL    HW147411   2.160   2.925   7.184 -0.0817  0.0881  1.3398
14188SOL    HW247412   2.301   2.978   7.185  0.5445 -1.5257  0.3847
14189SOL     OW47413   7.693   5.627   6.426 -0.0506 -0.2384  0.3777
14189SOL    HW147414   7.606   5.640   6.386  0.5101 -0.8555 -1.0924
14189SOL    HW247415   7.700   5.533   6.437  0.4562 -0.1965  0.4258
14190SOL     OW47416   6.100   2.561   6.021  0.7556 -0.2460  0.2984
14190SOL    HW147417   6.059   2.617   6.086 -0.6364 -2.5479  1.4701
14190SOL    HW247418   6.060   2.475   6.034  0.7089 -0.8637 -3.3493
14191SOL     OW47419   3.025   3.042   5.596  0.0332 -0.2251 -0.4309
14191SOL    HW147420   2.974   2.969   5.633 -0.0101 -1.2697 -2.4682
14191SOL    HW247421   3.110   3.036   5.640 -0.0653 -1.3388 -0.3736
14192SOL     OW47422   2.828   7.143   8.253  0.6297 -0.8321  0.2421
14192SOL    HW147423   2.907   7.197   8.252  0.1388 -0.1096  0.1654
14192SOL    HW247424   2.783   7.165   8.171  0.3210 -1.1923  0.3135
14193SOL     OW47425   5.954   2.137   4.022 -0.1448 -0.4269 -0.6068
14193SOL    HW147426   6.014   2.110   4.092 -1.8661 -0.6486  0.8174
14193SOL    HW247427   5.981   2.086   3.946  1.8815 -0.0415 -0.1734
14194SOL     OW47428   7.203   5.620   7.764 -0.4306 -0.1410 -0.2440
14194SOL    HW147429   7.237   5.538   7.800  0.6162  0.4037  0.0119
14194SOL    HW247430   7.179   5.598   7.674  1.0260 -0.4254 -0.5727
14195SOL     OW47431   2.933   4.623   8.490  0.2970  0.0878 -0.3310
14195SOL    HW147432   2.870   4.571   8.540  0.9609 -1.3291 -0.9366
14195SOL    HW247433   3.013   4.618   8.542  0.2143  0.9396 -0.1297
14196SOL     OW47434   2.156   3.237   7.652 -0.1604  0.1233 -0.6211
14196SOL    HW147435   2.230   3.236   7.592  1.1783  0.0722  1.0102
14196SOL    HW247436   2.139   3.145   7.672 -1.0323  0.0990 -1.3974
14197SOL     OW47437   7.181   3.966   6.509 -0.6809 -0.7962 -0.1237
14197SOL    HW147438   7.247   4.034   6.499  1.0369 -2.4293 -0.1149
14197SOL    HW247439   7.141   3.959   6.422  0.7410 -1.4001 -0.7334
14198SOL     OW47440   7.146   5.368   7.155 -0.3569  0.6405 -0.3312
14198SOL    HW147441   7.228   5.417   7.163 -0.5665  1.0938 -0.8924
14198SOL    HW247442   7.080   5.427   7.190 -0.4259  0.2080  0.2765
14199SOL     OW47443   7.311   3.696   6.451 -0.3821 -0.0752  0.3305
14199SOL    HW147444   7.320   3.734   6.539 -0.8661  1.9032 -0.4436
14199SOL    HW247445   7.275   3.767   6.398 -1.2905 -1.6321 -1.1899
14200SOL     OW47446   2.050   4.349   8.951  0.1882 -0.0125 -0.0642
14200SOL    HW147447   2.051   4.423   9.013  1.8665 -0.6436  0.6887
14200SOL    HW247448   1.988   4.287   8.989  0.7093 -0.1010  0.6583
14201SOL     OW47449   5.091   2.144   6.651  0.2450  0.0557 -0.3330
14201SOL    HW147450   5.131   2.131   6.565  1.0198  1.4833 -0.2064
14201SOL    HW247451   5.062   2.057   6.677  0.7208 -0.5294 -1.6838
14202SOL     OW47452   4.347   7.899   6.649 -0.5472 -0.4595  0.6170
14202SOL    HW147453   4.338   7.808   6.620  1.4723 -0.5110  0.0727
14202SOL    HW247454   4.441   7.914   6.654 -0.8485  1.3962  1.4006
14203SOL     OW47455   3.426   3.629   5.711  0.0753  0.5550  0.2011
14203SOL    HW147456   3.374   3.549   5.703 -1.3256  1.3665  0.9549
14203SOL    HW247457   3.392   3.671   5.789  1.5634  1.3504  0.4277
14204SOL     OW47458   2.985   4.410   6.625 -0.7311  0.0979 -1.2755
14204SOL    HW147459   2.926   4.335   6.618 -0.7686  0.1091 -1.0941
14204SOL    HW247460   2.940   4.470   6.684  1.1349 -1.5116  1.9416
14205SOL     OW47461   3.648   2.721   6.774  0.2409 -0.2373 -0.3688
14205SOL    HW147462   3.603   2.640   6.751  0.5535  0.0296 -1.9996
14205SOL    HW247463   3.727   2.693   6.820  0.4707 -0.8554 -1.1411
14206SOL     OW47464   6.586   7.369   6.228 -0.4674 -0.2611  0.0499
14206SOL    HW147465   6.553   7.425   6.299 -2.1701 -0.2656 -0.7357
14206SOL    HW247466   6.523   7.378   6.158  0.1719 -1.8099 -0.7585
14207SOL     OW47467   5.730   4.789   9.405 -0.2092  0.4475 -0.0243
14207SOL    HW147468   5.745   4.737   9.483  0.2589  0.9172  0.2022
14207SOL    HW247469   5.798   4.762   9.344 -0.6852 -0.0504 -0.3435
14208SOL     OW47470   5.777   2.234   4.593 -0.3087 -0.1152 -0.0461
14208SOL    HW147471   5.731   2.212   4.675 -0.6323  1.0563  0.0885
14208SOL    HW247472   5.724   2.192   4.525  0.6509 -2.1711  0.4191
14209SOL     OW47473   3.788   5.333   9.543  0.2575 -0.4774  0.3273
14209SOL    HW147474   3.730   5.284   9.601  0.1367 -1.0753 -0.2922
14209SOL    HW247475   3.839   5.389   9.602 -2.4359  1.6309  0.7123
14210SOL     OW47476   6.008   1.754   7.401  0.2003  0.1271  0.1191
14210SOL    HW147477   6.029   1.803   7.322  1.5203 -1.3441 -0.4675
14210SOL    HW247478   5.984   1.667   7.369  1.6103 -0.7526  1.3899
14211SOL     OW47479   6.149   7.222   7.446 -0.3154  0.0985 -0.2269
14211SOL    HW147480   6.089   7.276   7.394  1.8724  3.0350  0.1445
14211SOL    HW247481   6.228   7.216   7.392  0.2978 -0.7932  0.7581
14212SOL     OW47482   1.928   4.990   7.856 -0.7411  0.4372 -0.1346
14212SOL    HW147483   1.925   5.076   7.900  0.2461 -0.4091  1.6440
14212SOL    HW247484   1.852   4.944   7.891  0.1505 -0.3077  0.8289
14213SOL     OW47485   6.717   6.263   7.738  0.4218 -0.4521 -0.8187
14213SOL    HW147486   6.783   6.219   7.685  0.6593  0.2595 -1.1065
14213SOL    HW247487   6.639   6.267   7.682 -0.3657 -2.6866  0.0601
14214SOL     OW47488   2.801   5.102   7.312  0.0758 -0.3999  0.3302
14214SOL    HW147489   2.896   5.092   7.313  0.0662 -0.4584  1.0118
14214SOL    HW247490   2.771   5.055   7.390 -0.5013 -0.2887  0.1803
14215SOL     OW47491   2.571   3.883   3.411 -0.0729 -0.0171  0.0789
14215SOL    HW147492   2.644   3.821   3.414  0.0076 -0.0307 -1.7892
14215SOL    HW247493   2.594   3.951   3.475  0.7459 -0.9211  0.7503
14216SOL     OW47494   6.779   6.373   8.308 -0.3324  0.5120 -0.0813
14216SOL    HW147495   6.740   6.436   8.248  1.1818  1.0804 -0.5101
14216SOL    HW247496   6.831   6.427   8.368  1.0680 -0.3205 -0.5215
14217SOL     OW47497   6.476   3.187   5.719 -0.2773 -0.0136 -0.0869
14217SOL    HW147498   6.434   3.250   5.660  0.3808  1.4452  0.9643
14217SOL    HW247499   6.474   3.104   5.671 -0.3487  1.0001 -1.8744
14218SOL     OW47500   6.405   2.619   6.043  0.3239 -0.4327  0.3149
14218SOL    HW147501   6.311   2.599   6.049  0.2009 -0.2156 -0.7772
14218SOL    HW247502   6.446   2.533   6.030  0.1817 -0.4268 -0.1878
14219SOL     OW47503   2.901   3.040   9.578 -0.1004  1.2799  0.1643
14219SOL    HW147504   2.988   3.059   9.613  0.5825 -2.3080  0.5996
14219SOL    HW247505   2.842   3.064   9.649  0.8045  0.6040  1.1786
14220SOL     OW47506   3.445   1.686   4.121 -0.0795  0.0775 -0.4090
14220SOL    HW147507   3.498   1.630   4.064  0.3681  2.2164 -2.1619
14220SOL    HW247508   3.368   1.707   4.069 -0.1751  1.1966  0.1691
14221SOL     OW47509   3.757   3.990   4.483  0.1968  0.5840  0.1644
14221SOL    HW147510   3.840   3.941   4.487  0.8562  1.7488  0.7844
14221SOL    HW247511   3.719   3.980   4.570 -0.1066  0.4345  0.0165
14222SOL     OW47512   5.258   7.093   8.755  0.0481  0.0018 -0.5324
14222SOL    HW147513   5.191   7.159   8.774 -0.5625 -0.5662 -0.6638
14222SOL    HW247514   5.341   7.140   8.759 -0.5127  1.2383 -2.8001
14223SOL     OW47515   7.192   4.430   8.132  0.0987  0.1027 -0.5689
14223SOL    HW147516   7.201   4.390   8.218  1.4576  1.0210 -0.2574
14223SOL    HW247517   7.137   4.370   8.082  0.4821 -1.1418  0.4993
14224SOL     OW47518   7.601   4.705   6.528  0.5794  0.0427 -0.6470
14224SOL    HW147519   7.609   4.713   6.433  1.3674 -1.5467 -0.7206
14224SOL    HW247520   7.689   4.720   6.561  0.5411 -0.6070 -0.2465
14225SOL     OW47521   5.550   5.803   9.686 -0.4690  0.0354  0.0645
14225SOL    HW147522   5.624   5.744   9.675 -1.4564 -1.0420 -0.9891
14225SOL    HW247523   5.516   5.816   9.597 -2.6538 -0.9654  0.7168
14226SOL     OW47524   6.811   6.524   7.091 -0.4961  0.0839 -0.3204
14226SOL    HW147525   6.858   6.483   7.163 -1.0033  0.6002  0.3069
14226SOL    HW247526   6.810   6.457   7.022  1.7383  0.3025 -0.6013
14227SOL     OW47527   4.915   2.505   7.346 -0.2045  0.0808  0.0451
14227SOL    HW147528   4.820   2.492   7.353  0.0068 -1.3283  0.4649
14227SOL    HW247529   4.942   2.448   7.274  0.2168  1.0200 -0.5391
14228SOL     OW47530   3.031   5.546   9.027  0.0858  0.6736 -0.0810
14228SOL    HW147531   3.004   5.612   8.963  0.3020  0.6435 -0.2025
14228SOL    HW247532   3.126   5.547   9.024  0.1008 -1.8839 -2.4340
14229SOL     OW47533   3.934   3.493   7.756 -0.3150 -0.3384  0.4429
14229SOL    HW147534   3.982   3.452   7.683 -1.5628 -0.9371 -0.0590
14229SOL    HW247535   3.943   3.431   7.828 -1.2204 -0.9586  0.0305
14230SOL     OW47536   4.472   4.279   9.549  0.2116  0.8706  0.6565
14230SOL    HW147537   4.491   4.351   9.488 -2.4297  0.1297 -1.1581
14230SOL    HW247538   4.490   4.200   9.498 -1.7780  0.2458  0.8673
14231SOL     OW47539   2.245   3.849   4.427 -0.3130 -0.3233  0.0105
14231SOL    HW147540   2.305   3.806   4.489 -0.1269  0.7524  0.5815
14231SOL    HW247541   2.209   3.776   4.376  0.4675 -1.1138  0.5474
14232SOL     OW47542   6.412   5.660   7.869 -0.0498 -0.1906  0.0889
14232SOL    HW147543   6.325   5.662   7.829 -0.2019 -0.0160  0.4277
14232SOL    HW247544   6.431   5.567   7.880  0.2456 -0.2646 -0.9405
14233SOL     OW47545   2.631   4.664   6.521 -0.0827 -0.6457  0.1866
14233SOL    HW147546   2.711   4.615   6.503  0.0766 -0.5130  0.5307
14233SOL    HW247547   2.561   4.600   6.512  0.1520 -1.0125  0.9636
14234SOL     OW47548   6.387   7.539   7.998 -0.2140  0.4277 -0.9142
14234SOL    HW147549   6.354   7.526   7.909 -0.1213  0.7810 -1.0012
14234SOL    HW247550   6.342   7.618   8.028 -1.4908 -0.6127 -0.0511
14235SOL     OW47551   4.989   3.300   8.354 -0.3101 -0.4431  0.1125
14235SOL    HW147552   5.058   3.243   8.318  0.9638  0.6213  0.8379
14235SOL    HW247553   5.037   3.370   8.398 -1.8754  0.4756  0.3625
14236SOL     OW47554   6.182   8.833   5.772 -0.9232  0.1898  0.6131
14236SOL    HW147555   6.276   8.820   5.776 -0.8290  0.0443 -1.4747
14236SOL    HW247556   6.167   8.919   5.811 -0.1232 -0.4578  2.4079
14237SOL     OW47557   4.018   3.501   8.098 -0.1541 -0.5439 -0.7724
14237SOL    HW147558   3.999   3.561   8.026 -0.5642 -1.4744 -1.4439
14237SOL    HW247559   3.991   3.549   8.177 -0.0614  0.3200 -1.2572
14238SOL     OW47560   5.665   6.576   8.501 -0.2941  0.0508  0.0772
14238SOL    HW147561   5.615   6.657   8.494  1.4177  1.1109 -0.0686
14238SOL    HW247562   5.732   6.595   8.566  0.9109 -0.8497 -0.8921
14239SOL     OW47563   2.609   6.162   9.215 -0.1807  0.4818  0.3697
14239SOL    HW147564   2.561   6.207   9.145  0.2970  1.8453  0.9067
14239SOL    HW247565   2.546   6.158   9.288  0.0160  0.9203  0.5626
14240SOL     OW47566   6.759   7.588   6.896 -0.0528 -0.4200  0.4411
14240SOL    HW147567   6.728   7.675   6.919  2.1629  0.1019  1.6151
14240SOL    HW247568   6.732   7.533   6.970  1.0083 -0.1508  1.0325
14241SOL     OW47569   7.160   4.376   7.236  0.4543  0.0622 -0.6333
14241SOL    HW147570   7.151   4.322   7.314  0.6557 -0.2388 -0.8179
14241SOL    HW247571   7.090   4.345   7.178  1.2208 -0.7121 -1.1541
14242SOL     OW47572   7.087   3.718   3.890 -0.2676  0.3666 -0.8688
14242SOL    HW147573   7.000   3.711   3.852 -0.6189  0.8910 -0.1886
14242SOL    HW247574   7.113   3.809   3.874  0.2238  0.1667 -1.2166
14243SOL     OW47575   6.666   3.710   5.546 -0.4756  0.0787  0.2189
14243SOL    HW147576   6.601   3.689   5.479 -1.0908  4.0872 -0.5731
14243SOL    HW247577   6.750   3.707   5.501 -0.6899  0.6875 -0.2218
14244SOL     OW47578   6.765   2.883   8.087 -0.1066 -0.3464 -0.1879
14244SOL    HW147579   6.845   2.918   8.126 -0.4838  0.3998 -0.0757
14244SOL    HW247580   6.726   2.830   8.157 -0.9445  1.2457  0.5792
14245SOL     OW47581   7.345   7.792   5.974 -0.3928 -0.2396 -0.4760
14245SOL    HW147582   7.298   7.875   5.961 -1.2762 -0.4933  1.0794
14245SOL    HW247583   7.372   7.767   5.885 -1.9355  0.6497 -1.2262
14246SOL     OW47584   3.119   4.754   8.259  0.5067 -0.1707  1.0976
14246SOL    HW147585   3.162   4.669   8.245  1.5081  0.4867  0.0137
14246SOL    HW247586   3.155   4.786   8.341 -0.2161 -0.9990  1.7411
14247SOL     OW47587   5.296   4.151   8.835  0.0187  0.5512  0.2719
14247SOL    HW147588   5.359   4.221   8.850 -0.4644  0.8190  1.0870
14247SOL    HW247589   5.284   4.112   8.922  0.7159 -0.9064 -0.2670
14248SOL     OW47590   3.740   3.585   3.930  0.0407 -0.1121 -0.8560
14248SOL    HW147591   3.748   3.633   4.012 -0.0163  1.2777 -1.6610
14248SOL    HW247592   3.708   3.649   3.867  1.0897 -0.8969 -2.2222
14249SOL     OW47593   6.757   7.143   8.416 -0.2475 -0.3299  0.8539
14249SOL    HW147594   6.778   7.231   8.386  0.6769 -0.2176  1.7921
14249SOL    HW247595   6.733   7.095   8.337  2.3034 -0.0984 -0.0733
14250SOL     OW47596   3.309   5.236   9.034 -0.0630  0.4476 -0.2648
14250SOL    HW147597   3.295   5.265   8.943 -2.6013  0.4337  0.0812
14250SOL    HW247598   3.221   5.214   9.065  1.1075 -2.0611  1.3667
14251SOL     OW47599   3.423   4.989   9.055 -0.3843 -0.2921 -1.1124
14251SOL    HW147600   3.394   5.076   9.029 -3.0933 -0.3067  1.6524
14251SOL    HW247601   3.489   5.004   9.123  1.7412 -0.4141 -3.0477
14252SOL     OW47602   7.119   3.967   6.243  0.6848 -0.8625 -0.0576
14252SOL    HW147603   7.194   3.923   6.204  1.5572 -0.1070  0.7298
14252SOL    HW247604   7.135   4.060   6.228  0.4321 -0.6351  1.0204
14253SOL     OW47605   7.351   3.552   7.300 -0.9393  0.1585 -0.0169
14253SOL    HW147606   7.332   3.458   7.302  1.9397 -0.4869  3.4489
14253SOL    HW247607   7.284   3.592   7.355 -1.3697 -0.0690 -0.3807
14254SOL     OW47608   2.509   2.999   6.512 -0.0676 -0.0957 -0.1030
14254SOL    HW147609   2.546   2.916   6.543  1.0303  0.5825  0.4375
14254SOL    HW247610   2.416   2.994   6.534 -0.6223 -2.3819 -2.6128
14255SOL     OW47611   7.561   4.272   8.319  0.2141  0.1768 -0.4877
14255SOL    HW147612   7.582   4.182   8.342  2.2136  0.4348 -1.2350
14255SOL    HW247613   7.507   4.304   8.391 -0.3132 -1.5285 -0.1100
14256SOL     OW47614   3.207   4.037   6.782 -0.4566 -0.0823 -0.3582
14256SOL    HW147615   3.176   3.996   6.702  0.0255  0.7142 -0.9593
14256SOL    HW247616   3.258   4.112   6.752 -1.3492  0.9658  0.7170
14257SOL     OW47617   5.375   5.604   8.988  0.4479 -0.7012 -0.1610
14257SOL    HW147618   5.347   5.565   8.905  1.3797 -1.6813 -0.0243
14257SOL    HW247619   5.360   5.698   8.976 -0.3050 -0.9301 -1.0923
14258SOL     OW47620   5.708   3.038   6.088 -0.4164 -0.1730 -0.1280
14258SOL    HW147621   5.719   3.034   6.183 -1.5523  0.0087  0.0234
14258SOL    HW247622   5.673   3.126   6.071  1.0429  0.2804 -0.8602
14259SOL     OW47623   6.530   2.393   7.795  0.0420 -0.0615  0.0987
14259SOL    HW147624   6.575   2.368   7.715 -2.3711 -0.4391 -1.1986
14259SOL    HW247625   6.441   2.417   7.766 -0.9055 -0.3059  2.6610
14260SOL     OW47626   6.178   7.603   5.586  0.3217 -0.8969 -0.0977
14260SOL    HW147627   6.113   7.609   5.516 -0.1653 -1.0661  0.3363
14260SOL    HW247628   6.247   7.663   5.560 -1.5077  1.7960  1.0429
14261SOL     OW47629   8.642   4.003   7.619  0.7425 -0.0094 -0.2286
14261SOL    HW147630   8.624   4.082   7.670  1.8113 -0.3045  0.6231
14261SOL    HW247631   8.586   4.011   7.542  1.3990  1.9500 -0.5282
14262SOL     OW47632   6.135   3.009   4.109  0.7633 -0.4406  0.3821
14262SOL    HW147633   6.073   2.940   4.134 -0.4953  0.7229  0.5298
14262SOL    HW247634   6.137   3.068   4.183  1.7244 -0.2364  0.1942
14263SOL     OW47635   6.617   3.269   6.339 -0.4410 -0.0276 -0.1347
14263SOL    HW147636   6.665   3.333   6.391 -0.2065 -1.6477  1.6617
14263SOL    HW247637   6.611   3.309   6.252  3.3030  0.6091 -0.1533
14264SOL     OW47638   4.069   3.084   6.560 -0.2385  0.2146  0.0029
14264SOL    HW147639   4.132   3.081   6.488 -1.9388  0.0470 -1.5230
14264SOL    HW247640   3.991   3.040   6.526 -1.1483  0.2953  1.8903
14265SOL     OW47641   7.531   7.421   6.429  0.5521 -0.0188 -0.4262
14265SOL    HW147642   7.579   7.502   6.409  2.6495 -0.6931  1.6052
14265SOL    HW247643   7.496   7.436   6.517  0.7061 -1.1846 -0.1602
14266SOL     OW47644   1.398   3.406   7.621 -0.1509 -0.6804 -0.3968
14266SOL    HW147645   1.366   3.340   7.560 -1.5527  0.0436 -0.4541
14266SOL    HW247646   1.331   3.474   7.621  0.6803  0.1628  0.6124
14267SOL     OW47647   2.818   2.361   9.532  0.0159  0.7484  0.6582
14267SOL    HW147648   2.750   2.365   9.600 -1.6939 -0.4718 -0.9214
14267SOL    HW247649   2.885   2.304   9.568 -0.7854  0.2675  1.4121
14268SOL     OW47650   4.699   3.142   9.583  0.1192 -0.2841  0.3154
14268SOL    HW147651   4.759   3.076   9.616 -0.7023 -0.7698  0.8683
14268SOL    HW247652   4.626   3.141   9.645  0.4929  1.7596  0.8243
14269SOL     OW47653   2.671   6.552   9.196 -0.0304  0.3633 -0.3711
14269SOL    HW147654   2.722   6.512   9.266 -2.0880 -1.0024  0.3795
14269SOL    HW247655   2.728   6.548   9.119  0.7082 -1.7696  0.2714
14270SOL     OW47656   4.613   5.710   8.768  0.4474 -0.5612 -0.1606
14270SOL    HW147657   4.609   5.802   8.794 -0.6510 -0.4206 -0.7612
14270SOL    HW247658   4.689   5.704   8.710 -0.3098  0.2983 -1.2856
14271SOL     OW47659   7.111   2.693   8.906  0.6471  0.1544  0.0717
14271SOL    HW147660   7.190   2.727   8.864  0.5748  2.1836  1.4633
14271SOL    HW247661   7.140   2.667   8.994 -0.4148  2.2008  1.0876
14272SOL     OW47662   3.585   3.385   8.805 -0.4956  0.3808 -0.2937
14272SOL    HW147663   3.558   3.477   8.811 -1.9849 -0.0230 -0.5663
14272SOL    HW247664   3.541   3.342   8.878 -3.0241 -0.8409 -2.4258
14273SOL     OW47665   5.282   5.608   9.562  0.4238  0.1786 -0.6695
14273SOL    HW147666   5.312   5.646   9.479 -1.0048 -2.8819 -2.7008
14273SOL    HW247667   5.346   5.540   9.581 -1.4165 -1.8216 -1.4384
14274SOL     OW47668   2.723   3.833   8.301  0.1453  0.2156 -0.0745
14274SOL    HW147669   2.761   3.903   8.249  0.7269  0.8556  1.1930
14274SOL    HW247670   2.781   3.758   8.287  0.2239  0.3470 -0.4459
14275SOL     OW47671   2.189   2.559   7.837  0.1706  0.6670  0.6968
14275SOL    HW147672   2.139   2.478   7.843  0.6841  0.2293 -0.8072
14275SOL    HW247673   2.134   2.617   7.784  0.4504  0.7943  0.5464
14276SOL     OW47674   3.910   5.430   0.011  0.4853  0.4180  0.0334
14276SOL    HW147675   3.942   5.345   0.039 -0.8717 -0.2229 -0.2949
14276SOL    HW247676   3.919   5.486   0.088  2.7481  0.3822 -0.1800
14277SOL     OW47677   1.398   5.349   9.884 -0.2357  0.9043 -0.0272
14277SOL    HW147678   1.349   5.311   9.811  2.0768 -0.5765 -0.8557
14277SOL    HW247679   1.363   5.306   9.962  1.4498 -1.9999 -0.8358
14278SOL     OW47680   3.559   3.842   8.310  0.1219 -0.5416  0.7323
14278SOL    HW147681   3.609   3.917   8.344  1.6838 -1.5999  0.8541
14278SOL    HW247682   3.499   3.819   8.381 -1.3572  1.4460  0.1589
14279SOL     OW47683   2.233   3.827   0.065  0.4270  0.4942  0.5805
14279SOL    HW147684   2.189   3.751   0.027  0.2673  0.7352  0.2802
14279SOL    HW247685   2.283   3.864  -0.008  0.2939  0.8310  0.6605
14280SOL     OW47686   7.235   4.166   7.688 -0.3932 -0.1497  0.0587
14280SOL    HW147687   7.281   4.161   7.771 -1.0030 -1.3488  0.3341
14280SOL    HW247688   7.252   4.081   7.646  0.3302  0.6312 -1.2634
14281SOL     OW47689   2.327   5.144   6.745 -0.1012 -0.1858  0.0038
14281SOL    HW147690   2.274   5.101   6.678 -1.1827  0.8842  0.1453
14281SOL    HW247691   2.263   5.171   6.812  0.7431  0.3170  0.6137
14282SOL     OW47692   4.770   4.295   9.311 -0.7383  0.0268 -0.9594
14282SOL    HW147693   4.727   4.251   9.238 -0.5346  0.5876 -1.4193
14282SOL    HW247694   4.750   4.387   9.299  0.7327  0.3219 -1.2720
14283SOL     OW47695   4.374   4.616   9.095  0.1316 -0.3404 -0.2533
14283SOL    HW147696   4.336   4.654   9.016 -0.1515  1.1173  0.5528
14283SOL    HW247697   4.395   4.692   9.150 -0.9700 -1.3866  1.6610
14284SOL     OW47698   3.914   6.117   9.821 -0.0457  0.3685 -0.6145
14284SOL    HW147699   3.888   6.172   9.747 -0.6716 -0.1943 -0.8201
14284SOL    HW247700   3.834   6.070   9.845  0.1941  0.4320  0.3206
14285SOL     OW47701   4.696   7.051   9.626 -0.6999  0.0260 -0.0308
14285SOL    HW147702   4.748   7.131   9.626 -0.8730  0.1542 -1.9452
14285SOL    HW247703   4.613   7.076   9.666 -0.1132  0.3692  0.9788
14286SOL     OW47704   3.947   5.139   9.755  0.4474 -0.2851 -0.7322
14286SOL    HW147705   3.927   5.229   9.779  1.1973  0.2837 -2.1878
14286SOL    HW247706   3.980   5.144   9.665 -0.7130 -2.1580 -1.3088
14287SOL     OW47707   4.410   2.561   0.125 -0.0185 -0.1188  0.2003
14287SOL    HW147708   4.499   2.587   0.099  0.0363 -0.2305  0.2760
14287SOL    HW247709   4.422   2.476   0.168 -0.1836 -0.2222  0.0449
14288SOL     OW47710   3.052   3.286   7.949 -0.1110 -0.5272  0.6421
14288SOL    HW147711   3.043   3.381   7.955  1.1449 -0.3147 -0.6078
14288SOL    HW247712   3.009   3.263   7.867  2.6072 -0.6111 -0.7755
14289SOL     OW47713   6.511   4.652   9.552 -0.1297 -0.0360 -0.2318
14289SOL    HW147714   6.495   4.683   9.641 -1.6185  0.8917 -0.7944
14289SOL    HW247715   6.599   4.684   9.531 -0.2061  0.6818  0.5158
14290SOL     OW47716   3.255   4.594   9.135 -0.1723 -0.0593  0.1210
14290SOL    HW147717   3.169   4.552   9.140 -0.4591  0.4861 -0.2427
14290SOL    HW247718   3.314   4.523   9.109 -0.5861 -0.3349 -0.0741
14291SOL     OW47719   5.575   1.590   8.141  0.1711  0.5995  0.4874
14291SOL    HW147720   5.589   1.641   8.061 -1.5820  2.2805  1.2234
14291SOL    HW247721   5.658   1.596   8.188  1.0348  0.0493 -0.9199
14292SOL     OW47722   7.743   4.308   8.137 -0.3028 -0.1146 -0.6138
14292SOL    HW147723   7.692   4.270   8.208 -0.1229 -1.8735 -1.4002
14292SOL    HW247724   7.797   4.375   8.180 -1.4051  0.0032  0.6222
14293SOL     OW47725   3.884   4.336   9.731 -0.2251  0.1015  0.0485
14293SOL    HW147726   3.896   4.246   9.702  0.6833  0.2090  0.0726
14293SOL    HW247727   3.952   4.385   9.686  0.2165  0.5256  1.1482
14294SOL     OW47728   6.063   6.024   8.904 -0.3473 -0.3655  0.1601
14294SOL    HW147729   6.020   6.013   8.989  0.7550  0.7690  0.8865
14294SOL    HW247730   6.090   6.116   8.903  2.7948 -1.2294  0.0923
14295SOL     OW47731   7.719   4.715   7.746  0.0004 -0.0291  0.6197
14295SOL    HW147732   7.713   4.791   7.688 -0.2004 -0.8238 -0.4067
14295SOL    HW247733   7.751   4.644   7.691 -0.2201 -0.8111  1.4712
14296SOL     OW47734   6.171   2.636   6.505  0.0904  0.0297  0.1305
14296SOL    HW147735   6.165   2.681   6.420  1.3828  2.2716  1.1759
14296SOL    HW247736   6.251   2.671   6.544 -1.1987  0.0414  2.8398
14297SOL     OW47737   2.461   3.558   9.699 -0.9785  0.0729  0.3186
14297SOL    HW147738   2.374   3.523   9.681 -1.0576  0.4625 -0.0573
14297SOL    HW247739   2.458   3.584   9.792 -0.9529 -0.8073  0.5654
14298SOL     OW47740   5.876   3.374   7.874  0.2487  0.4373 -0.5242
14298SOL    HW147741   5.850   3.402   7.786 -1.3904 -1.0690 -0.5444
14298SOL    HW247742   5.872   3.279   7.871 -0.2133  0.3837  1.3171
14299SOL     OW47743   4.449   6.447   9.905  0.4672 -0.2116  0.0370
14299SOL    HW147744   4.445   6.489   9.992  0.2040  1.2383 -0.6608
14299SOL    HW247745   4.428   6.517   9.844  2.6090 -0.7314 -1.3472
14300SOL     OW47746   4.935   2.805   9.946 -0.2980 -0.1959  0.0325
14300SOL    HW147747   4.948   2.744  10.019 -0.5954  0.8736  0.9819
14300SOL    HW247748   4.847   2.841   9.961 -0.5792 -0.3805 -1.1601
14301SOL     OW47749   6.544   5.118   8.234  0.3723 -0.0160  0.6504
14301SOL    HW147750   6.612   5.178   8.204  1.2572 -0.3715  1.8951
14301SOL    HW247751   6.550   5.121   8.330 -1.1228 -0.3270  0.7699
14302SOL     OW47752   4.755   5.888   8.483  0.5998 -0.7945 -0.1917
14302SOL    HW147753   4.733   5.974   8.518 -1.1132 -1.0134 -0.6844
14302SOL    HW247754   4.799   5.906   8.400  0.6586 -0.3861 -0.0730
14303SOL     OW47755   4.354   3.149   7.631 -0.4666 -0.2891  0.1670
14303SOL    HW147756   4.307   3.192   7.703  0.7301 -0.4196  1.0447
14303SOL    HW247757   4.447   3.158   7.654 -0.0890 -0.7651 -1.1207
14304SOL     OW47758   4.513   4.051   9.386 -0.1335 -0.2381 -0.2766
14304SOL    HW147759   4.449   4.024   9.321  0.6866 -1.1778 -0.7120
14304SOL    HW247760   4.584   3.988   9.378  0.6350  0.4960  0.5306
14305SOL     OW47761   4.828   4.673   8.733  0.0082 -0.0430  0.0962
14305SOL    HW147762   4.823   4.603   8.798  0.2942  0.1219  0.2980
14305SOL    HW247763   4.921   4.691   8.723 -0.0479  0.0937 -0.1871
14306SOL     OW47764   3.971   5.882   9.975  0.1403 -0.5511 -0.4584
14306SOL    HW147765   3.985   5.962   9.925 -1.6675 -0.1346 -0.3137
14306SOL    HW247766   3.927   5.911  10.055 -1.6419 -1.8271 -0.9573
14307SOL     OW47767   5.904   4.283   8.941  0.7539 -0.0470 -0.6793
14307SOL    HW147768   5.834   4.313   8.883  0.1505 -0.8080 -0.3492
14307SOL    HW247769   5.863   4.217   8.997  1.4374  0.3575  0.3224
14308SOL     OW47770   4.742   3.549   8.850  0.3368  0.1749 -0.5432
14308SOL    HW147771   4.791   3.562   8.769  2.1787  1.7359  0.7751
14308SOL    HW247772   4.800   3.581   8.919 -0.2894 -3.1529  1.6350
14309SOL     OW47773   5.888   4.220   8.227  0.3386 -0.1732 -0.1508
14309SOL    HW147774   5.883   4.124   8.226 -1.7716 -0.1065 -3.0678
14309SOL    HW247775   5.978   4.240   8.202  0.0383 -1.3951 -2.3043
14310SOL     OW47776   4.484   2.159   8.139 -0.1023  0.7442  0.2676
14310SOL    HW147777   4.450   2.083   8.187  0.7913  0.2139  0.0618
14310SOL    HW247778   4.578   2.144   8.135 -0.1073  1.0980 -1.1290
14311SOL     OW47779   4.074   5.564   9.452  0.6398  0.5602  0.1433
14311SOL    HW147780   4.080   5.639   9.512  1.0024 -0.0590  0.8983
14311SOL    HW247781   4.144   5.578   9.389  0.0189  1.4146 -0.3738
14312SOL     OW47782   3.176   6.830   1.146 -1.1854 -0.1617  0.7845
14312SOL    HW147783   3.230   6.812   1.069  0.2263 -1.0704  1.9543
14312SOL    HW247784   3.157   6.924   1.141 -2.0890 -0.4146 -1.2662
14313SOL     OW47785   2.626   3.024   4.039 -0.1847 -0.4205 -0.3127
14313SOL    HW147786   2.688   2.974   3.985  1.1883 -0.3858  1.1876
14313SOL    HW247787   2.558   3.052   3.978  1.2109 -0.5862 -1.9788
14314SOL     OW47788   6.261   2.502   6.852  0.0294  0.0349  0.4363
14314SOL    HW147789   6.341   2.547   6.826 -0.1163 -0.8001 -1.4572
14314SOL    HW247790   6.209   2.571   6.895  1.3797  0.7692  0.9331
14315SOL     OW47791   7.524   5.597   7.865  0.1542  0.0029 -0.0443
14315SOL    HW147792   7.454   5.652   7.900  1.1391  1.2198  0.0725
14315SOL    HW247793   7.602   5.653   7.868  1.5140 -1.9098  1.5168
14316SOL     OW47794   5.318   2.483   8.169  0.4447  0.0219 -0.1421
14316SOL    HW147795   5.225   2.467   8.181  0.0787  1.6065 -0.6143
14316SOL    HW247796   5.332   2.472   8.075  0.6999 -0.0963 -0.0885
14317SOL     OW47797   5.340   3.984   9.172  0.2495 -0.1179 -0.1740
14317SOL    HW147798   5.329   4.079   9.175  0.0495 -0.1552  0.4496
14317SOL    HW247799   5.432   3.970   9.194 -0.0690 -0.1379  1.1718
14318SOL     OW47800   3.898   4.799   8.938  0.0309 -0.4924 -0.5114
14318SOL    HW147801   3.836   4.727   8.945  0.4005 -0.9070 -1.3676
14318SOL    HW247802   3.848   4.871   8.899 -0.7560  0.2467  1.8181
14319SOL     OW47803   7.900   4.895   8.875 -0.0238 -0.2987 -0.5935
14319SOL    HW147804   7.891   4.801   8.857 -0.8435 -0.4290  0.4364
14319SOL    HW247805   7.935   4.932   8.794  1.0788 -1.6218 -0.7239
14320SOL     OW47806   4.596   4.095   8.762 -0.0204  0.1605  0.3107
14320SOL    HW147807   4.677   4.116   8.716 -0.3028  0.7786  0.0986
14320SOL    HW247808   4.598   3.999   8.770  0.0666  0.0442 -0.9243
14321SOL     OW47809   2.744   3.996   7.792  0.2206  0.2744 -0.3935
14321SOL    HW147810   2.808   3.941   7.838 -0.2505  0.3607  0.3735
14321SOL    HW247811   2.679   3.935   7.758 -0.1812  0.3348  0.2638
14322SOL     OW47812   4.205   4.613   9.573  0.6284 -0.0730 -0.1654
14322SOL    HW147813   4.202   4.593   9.480 -0.6465 -0.9053  0.0531
14322SOL    HW247814   4.185   4.707   9.578  0.7101 -0.0260 -0.7260
14323SOL     OW47815   2.993   3.605   9.983  0.0543  0.4843  0.0400
14323SOL    HW147816   3.009   3.546  10.056  0.4668 -1.2818 -1.4626
14323SOL    HW247817   2.906   3.581   9.951  0.5611  0.1142 -1.0881
14324SOL     OW47818   4.884   6.535   9.832 -0.2836 -0.3416 -0.3822
14324SOL    HW147819   4.850   6.452   9.866 -0.9663 -0.7560 -2.0641
14324SOL    HW247820   4.808   6.593   9.832 -0.1803 -0.2076 -0.7423
14325SOL     OW47821   5.094   4.337   8.800 -0.3273 -0.0543  0.5647
14325SOL    HW147822   5.101   4.425   8.763  1.4387  0.7939  2.8607
14325SOL    HW247823   5.175   4.293   8.774 -0.8175 -0.7348  0.1561
14326SOL     OW47824   4.604   5.269   9.209 -0.1844 -0.3418 -0.3389
14326SOL    HW147825   4.623   5.247   9.118  0.9192 -0.4602 -0.0900
14326SOL    HW247826   4.647   5.353   9.223 -1.1718  0.1460 -0.1998
14327SOL     OW47827   6.813   6.027   8.932 -0.2412  0.5945 -0.1240
14327SOL    HW147828   6.894   6.022   8.984  0.2315 -0.1249 -0.9063
14327SOL    HW247829   6.747   5.987   8.987  0.8013 -2.5820 -1.0784
14328SOL     OW47830   6.385   2.008   6.644  0.5497 -0.3025  0.3013
14328SOL    HW147831   6.321   1.993   6.713  0.4238 -0.0102  0.2473
14328SOL    HW247832   6.349   2.081   6.593  0.3848 -0.8516 -0.3754
14329SOL     OW47833   2.413   4.140   8.367 -0.3364  0.1385 -0.0112
14329SOL    HW147834   2.343   4.156   8.430 -1.6215 -0.9945 -1.0990
14329SOL    HW247835   2.476   4.086   8.415  0.1204  1.6923  1.1712
14330SOL     OW47836   5.113   7.445   8.248 -0.0810 -0.0892 -0.0541
14330SOL    HW147837   5.032   7.430   8.199 -0.3213 -1.9663  0.8595
14330SOL    HW247838   5.102   7.392   8.327  1.9222 -0.1392  0.2029
14331SOL     OW47839   3.586   4.282   8.720 -0.0360 -0.2397  0.0766
14331SOL    HW147840   3.617   4.211   8.776  0.1092  0.6732  1.1802
14331SOL    HW247841   3.664   4.314   8.676 -0.3834 -2.0472 -1.9817
14332SOL     OW47842   5.252   4.423   9.629  0.2334 -0.1690  0.5347
14332SOL    HW147843   5.318   4.455   9.569  0.2183  0.4836  0.8638
14332SOL    HW247844   5.172   4.417   9.577  0.1101  0.8472  0.6085
14333SOL     OW47845   4.742   2.999   8.771  0.1743  0.2188  0.5018
14333SOL    HW147846   4.773   3.031   8.856  0.0684 -0.8344  0.9420
14333SOL    HW247847   4.776   3.063   8.708  0.5486  0.8205  1.2962
14334SOL     OW47848   5.147   4.897   8.979 -0.1758  0.0709  0.2765
14334SOL    HW147849   5.088   4.825   9.000 -2.9758  2.2076  0.1117
14334SOL    HW247850   5.169   4.936   9.064  0.1110 -0.0387  0.2551
14335SOL     OW47851   3.803   5.047   0.044  0.1718 -0.1713 -0.0781
14335SOL    HW147852   3.742   4.993  -0.007 -0.2242 -0.6561  0.8876
14335SOL    HW247853   3.861   4.983   0.087 -0.4490  0.1641  1.2650
14336SOL     OW47854   4.728   4.164   9.075  0.1001 -0.6482  0.1214
14336SOL    HW147855   4.818   4.145   9.049 -0.4181 -2.9387 -0.1038
14336SOL    HW247856   4.675   4.105   9.021 -1.3282 -1.6151  2.5099
14337SOL     OW47857   2.383   6.108   9.392  0.0709  0.3819  0.6598
14337SOL    HW147858   2.413   6.028   9.435 -0.1830  1.7216  3.5065
14337SOL    HW247859   2.287   6.101   9.393 -0.0793  1.8696  3.4520
14338SOL     OW47860   5.047   2.600   8.155 -0.2472 -0.1972 -0.2210
14338SOL    HW147861   4.959   2.636   8.167  0.9076  3.2687 -1.6237
14338SOL    HW247862   5.100   2.644   8.221  0.7246 -1.2845 -0.2597
14339SOL     OW47863   6.181   2.662   4.939 -0.0181  0.3873  0.0926
14339SOL    HW147864   6.237   2.713   4.997 -0.5856  0.9353  0.1608
14339SOL    HW247865   6.098   2.709   4.939 -1.2790 -1.7643  1.9470
14340SOL     OW47866   6.237   4.589   8.838 -0.5991  0.0204  0.0714
14340SOL    HW147867   6.292   4.575   8.915 -2.3418 -2.1288  0.9829
14340SOL    HW247868   6.178   4.660   8.864 -2.6538 -2.1670  1.6158
14341SOL     OW47869   5.465   2.719   6.905 -0.7344 -0.1101 -0.4603
14341SOL    HW147870   5.408   2.736   6.980 -0.6077 -0.5495 -0.2582
14341SOL    HW247871   5.528   2.791   6.906 -1.0729  0.1884 -0.4793
14342SOL     OW47872   4.745   1.630   8.291  0.4433 -0.4062  0.7433
14342SOL    HW147873   4.733   1.695   8.360  1.9441  2.1867 -1.3303
14342SOL    HW247874   4.827   1.586   8.314 -0.6448 -1.7367  2.2219
14343SOL     OW47875   4.777   2.666   8.176  0.4557 -0.7622 -0.6147
14343SOL    HW147876   4.729   2.588   8.205  0.7842 -1.1042 -0.9956
14343SOL    HW247877   4.720   2.739   8.202  0.6252 -1.0705  0.6860
14344SOL     OW47878   4.244   7.178   9.339  0.3515 -0.1841 -0.1185
14344SOL    HW147879   4.295   7.255   9.365 -0.4398  0.1562  0.4910
14344SOL    HW247880   4.189   7.209   9.267 -0.9290  0.2076  0.9982
14345SOL     OW47881   4.073   4.980   0.610  0.1806 -0.1342  0.0491
14345SOL    HW147882   4.112   5.065   0.592  1.9668 -0.3310  2.7480
14345SOL    HW247883   3.987   4.999   0.646  0.5827  0.5243  0.6616
14346SOL     OW47884   4.513   7.094   7.824 -0.0744 -0.0296  0.4465
14346SOL    HW147885   4.439   7.129   7.873 -0.1721  0.0089  0.2731
14346SOL    HW247886   4.545   7.021   7.877  0.8320  1.0249  1.3619
14347SOL     OW47887   7.277   4.574   7.626  0.0752 -0.4526 -0.4215
14347SOL    HW147888   7.305   4.516   7.697  2.3124 -0.8939 -1.6145
14347SOL    HW247889   7.355   4.585   7.571 -1.3276  0.6835 -2.2736
14348SOL     OW47890   1.790   2.452   9.495 -0.3701 -0.2913 -0.0109
14348SOL    HW147891   1.833   2.492   9.419 -1.1725  1.0987  0.2458
14348SOL    HW247892   1.828   2.365   9.502  1.5093  0.4828 -0.5151
14349SOL     OW47893   3.571   3.061   8.587 -0.2367 -0.3429  0.0039
14349SOL    HW147894   3.502   3.005   8.552  1.0636 -1.4114 -0.8852
14349SOL    HW247895   3.557   3.145   8.545 -1.6692 -0.2242  0.6765
14350SOL     OW47896   4.314   2.196   6.999  0.2930  0.1918 -0.3249
14350SOL    HW147897   4.346   2.106   7.004  0.9356  0.4834  1.1113
14350SOL    HW247898   4.302   2.213   6.906  1.7772 -0.8202 -0.7066
14351SOL     OW47899   5.048   3.275   8.070 -0.6061  0.5048  0.2071
14351SOL    HW147900   5.006   3.327   8.138  1.9698  0.9193  1.5394
14351SOL    HW247901   5.127   3.241   8.111  0.1633 -0.5877 -2.0974
14352SOL     OW47902   8.036   3.734   8.513  0.3395  0.1796  0.5553
14352SOL    HW147903   8.105   3.752   8.449 -0.9831 -0.0128 -0.9403
14352SOL    HW247904   8.020   3.818   8.555 -0.7841  0.9496 -1.3813
14353SOL     OW47905   6.638   4.885   8.597 -0.1455  0.2245 -0.9725
14353SOL    HW147906   6.676   4.864   8.683 -0.0696 -0.0350 -1.0711
14353SOL    HW247907   6.625   4.800   8.555 -1.9886  0.2397 -0.4600
14354SOL     OW47908   6.036   2.840   8.373 -0.7804 -0.2712  0.4844
14354SOL    HW147909   6.023   2.745   8.372 -0.0796 -0.3716 -0.7164
14354SOL    HW247910   5.959   2.876   8.331 -0.2663 -0.4314 -0.6156
14355SOL     OW47911   5.345   5.957   9.432 -0.2131 -0.0806 -0.3666
14355SOL    HW147912   5.266   5.943   9.485 -0.8559 -0.2317 -1.3520
14355SOL    HW247913   5.379   5.868   9.416 -0.5122 -0.0944 -0.9405
14356SOL     OW47914   7.108   4.211   9.563 -0.1922  0.4016 -0.5841
14356SOL    HW147915   7.040   4.158   9.521  0.8712 -0.3784 -1.3564
14356SOL    HW247916   7.128   4.279   9.498  1.3281 -0.7018 -1.3008
14357SOL     OW47917   6.119   4.522   8.600 -0.4907  0.1560 -0.1354
14357SOL    HW147918   6.098   4.604   8.555 -1.4537  0.1380  0.2557
14357SOL    HW247919   6.162   4.549   8.681  1.4637  0.1781 -1.1755
14358SOL     OW47920   2.007   3.387   6.608  0.3147  0.1359 -0.5740
14358SOL    HW147921   2.089   3.409   6.564  1.4414 -1.0918  0.8821
14358SOL    HW247922   1.943   3.383   6.537  1.9332 -1.0009 -2.0194
14359SOL     OW47923   4.063   5.769   8.923  0.2462  0.3656  0.7034
14359SOL    HW147924   4.031   5.691   8.968 -0.4813  0.1257 -0.2172
14359SOL    HW247925   4.023   5.843   8.970 -0.9776  0.0979  0.1100
14360SOL     OW47926   4.469   7.214   9.658 -0.3800  0.0719  0.6186
14360SOL    HW147927   4.525   7.286   9.688  1.0747 -0.7071 -0.2073
14360SOL    HW247928   4.412   7.254   9.592  0.2261  0.5239  0.3674
14361SOL     OW47929   4.373   4.948   9.728 -0.2152  0.3505 -0.0414
14361SOL    HW147930   4.412   4.997   9.801 -0.5991 -0.4416  0.7062
14361SOL    HW247931   4.448   4.927   9.672  0.1041  0.8637  0.1831
14362SOL     OW47932   4.188   4.575   9.305  0.0981 -0.0379  0.1592
14362SOL    HW147933   4.252   4.546   9.240 -0.5608 -2.7693  0.6543
14362SOL    HW247934   4.136   4.641   9.260  1.8865  0.6650 -0.9372
14363SOL     OW47935   5.569   5.329   8.991 -0.1827  0.1341  0.0957
14363SOL    HW147936   5.536   5.327   8.901  0.5119 -0.6865 -0.1543
14363SOL    HW247937   5.663   5.349   8.981  0.2657 -1.6970  0.5195
14364SOL     OW47938   4.478   4.569   9.517 -0.2298  0.3420 -0.5100
14364SOL    HW147939   4.427   4.580   9.436 -0.8200 -1.6015 -0.4298
14364SOL    HW247940   4.431   4.621   9.582 -1.7369 -0.8250 -0.6204
14365SOL     OW47941   6.924   3.800   8.476 -0.3643  0.3380  0.1779
14365SOL    HW147942   6.884   3.715   8.494  1.0318 -0.7485 -1.6857
14365SOL    HW247943   7.017   3.781   8.462 -0.7663  1.4244 -4.9805
14366SOL     OW47944   4.393   3.571   8.634 -0.0429 -0.4112 -0.9512
14366SOL    HW147945   4.442   3.514   8.693  0.5532  0.4708 -0.5931
14366SOL    HW247946   4.444   3.572   8.553 -0.3128 -0.7774 -1.1293
14367SOL     OW47947   2.996   6.429   9.056 -0.1044  0.1905 -0.1926
14367SOL    HW147948   2.962   6.348   9.093  2.1806 -0.6277  0.2206
14367SOL    HW247949   2.989   6.418   8.961 -1.6902  0.3709 -0.0973
14368SOL     OW47950   4.554   3.842   9.099 -0.1955 -0.3521 -0.4683
14368SOL    HW147951   4.611   3.836   9.176  1.9578  0.3538 -1.9695
14368SOL    HW247952   4.492   3.912   9.121  1.0677  0.5802  0.2331
14369SOL     OW47953   3.803   5.724   1.546 -0.1220  1.0710 -0.1655
14369SOL    HW147954   3.816   5.737   1.452 -1.8443  0.4618 -0.5137
14369SOL    HW247955   3.709   5.704   1.555  0.6012 -2.1086  1.2965
14370SOL     OW47956   2.850   5.193   6.996  0.3133  0.2460 -0.6242
14370SOL    HW147957   2.901   5.115   7.018 -0.4424 -0.1357 -0.1960
14370SOL    HW247958   2.875   5.213   6.906 -0.6862 -1.4663 -1.3239
14371SOL     OW47959   4.130   3.545   8.406  0.0484  0.2734  0.0139
14371SOL    HW147960   4.041   3.540   8.373  0.0917  2.0470 -0.3848
14371SOL    HW247961   4.121   3.549   8.501 -0.1708 -2.3239  0.1309
14372SOL     OW47962   4.837   4.958   9.432  0.0873  0.1387 -0.4409
14372SOL    HW147963   4.885   4.988   9.509 -0.3556  0.0710 -0.1383
14372SOL    HW247964   4.886   4.882   9.401  0.8090  0.7378 -0.7918
14373SOL     OW47965   3.154   6.017   9.682 -0.0834  0.2817  0.2829
14373SOL    HW147966   3.075   5.996   9.732  0.5762 -1.7024  0.5287
14373SOL    HW247967   3.199   5.934   9.673  1.4371  1.2099 -0.8234
14374SOL     OW47968   5.120   5.017   9.581  0.5419 -0.1516 -0.7910
14374SOL    HW147969   5.215   5.006   9.572  0.5259 -0.7404 -0.2908
14374SOL    HW247970   5.109   5.089   9.643  0.6795 -1.0258  0.2799
14375SOL     OW47971   3.549   5.026   8.525 -0.1752  0.5978  0.5149
14375SOL    HW147972   3.548   5.053   8.617 -0.6537  3.1617 -0.2055
14375SOL    HW247973   3.634   4.984   8.513  0.3845  1.3281  1.8374
14376SOL     OW47974   4.563   3.092   6.922 -0.3043 -0.1823 -0.7187
14376SOL    HW147975   4.541   3.176   6.960  0.2006 -0.7170  0.8100
14376SOL    HW247976   4.481   3.059   6.885 -0.7053  0.5669 -0.4943
14377SOL     OW47977   7.026   5.713   7.970 -0.4119 -0.4832 -0.2960
14377SOL    HW147978   7.090   5.680   7.907 -2.6803 -1.2580 -2.3050
14377SOL    HW247979   6.947   5.727   7.918 -1.2252  2.6983  1.6289
14378SOL     OW47980   4.882   3.866   8.593 -0.1059  0.1137  0.5161
14378SOL    HW147981   4.947   3.927   8.559 -0.5039 -0.0500 -0.5709
14378SOL    HW247982   4.824   3.920   8.646  0.6030  0.3565  1.0450
14379SOL     OW47983   6.318   3.324   8.605  0.0823  0.2745  0.1451
14379SOL    HW147984   6.300   3.413   8.636 -0.3440  0.3413 -0.2966
14379SOL    HW247985   6.326   3.272   8.684 -1.5437  0.3361  0.3607
14380SOL     OW47986   6.879   5.646   8.253  0.4927  0.5291 -0.2258
14380SOL    HW147987   6.784   5.640   8.240  0.2868  0.4799  1.1863
14380SOL    HW247988   6.897   5.583   8.323  1.2469  2.0719  0.9890
14381SOL     OW47989   5.528   3.775   8.630  0.0864 -0.0740  0.3803
14381SOL    HW147990   5.567   3.771   8.543 -0.4789  0.1255  0.1198
14381SOL    HW247991   5.458   3.839   8.622 -1.2212 -1.4679  0.4812
14382SOL     OW47992   2.626   3.537   0.300  0.1154 -0.2995  0.7998
14382SOL    HW147993   2.703   3.483   0.314  0.2612 -1.2329 -2.8999
14382SOL    HW247994   2.556   3.475   0.280 -0.9967  0.6434  1.7216
14383SOL     OW47995   1.835   4.362   8.762 -0.5260  0.7413 -0.2809
14383SOL    HW147996   1.878   4.398   8.684 -0.3566 -1.2384 -1.1360
14383SOL    HW247997   1.900   4.373   8.832  1.7341 -2.8032 -1.6937
14384SOL     OW47998   1.505   3.573   8.008 -0.5251  0.2113 -0.3462
14384SOL    HW147999   1.521   3.660   8.043  0.9434  0.4353 -1.5459
14384SOL    HW248000   1.485   3.519   8.085 -1.1082  1.5108  0.4263
14385SOL     OW48001   5.446   3.607   0.030 -0.4110 -0.1432  0.0209
14385SOL    HW148002   5.477   3.526   0.071 -1.5923 -0.6519 -0.0647
14385SOL    HW248003   5.439   3.669   0.103 -1.4366 -0.7156  0.4145
14386SOL     OW48004   6.367   4.535   9.089 -0.1183 -0.0810 -0.3752
14386SOL    HW148005   6.377   4.581   9.172  1.9057 -2.1800  0.6086
14386SOL    HW248006   6.367   4.442   9.114 -1.4384 -0.6942 -2.5515
14387SOL     OW48007   5.510   2.169   7.177  0.1807  0.1308  0.4362
14387SOL    HW148008   5.576   2.220   7.226  1.1743 -0.3882 -0.3472
14387SOL    HW248009   5.519   2.080   7.212 -2.3204  0.6638  2.5979
14388SOL     OW48010   2.835   2.809   7.216  0.0198 -0.2993 -0.2313
14388SOL    HW148011   2.820   2.886   7.271  0.1899 -0.8372  0.5776
14388SOL    HW248012   2.829   2.842   7.127 -1.1393  0.4255  0.0969
14389SOL     OW48013   3.991   3.897   8.829  0.0397 -0.5380 -0.1464
14389SOL    HW148014   3.918   3.881   8.770  0.0123  0.2595 -0.3215
14389SOL    HW248015   4.068   3.900   8.773  0.1043 -0.5011 -0.0566
14390SOL     OW48016   6.287   7.230   8.520 -0.3707  0.0907  0.4003
14390SOL    HW148017   6.329   7.238   8.605  0.0106 -0.7300  0.2927
14390SOL    HW248018   6.340   7.284   8.462  0.4483 -0.7993  0.3024
14391SOL     OW48019   3.299   4.786   8.512  0.3538 -0.1937  0.2326
14391SOL    HW148020   3.360   4.799   8.440 -1.5142 -0.8004 -1.4907
14391SOL    HW248021   3.269   4.874   8.534 -1.4411 -0.2442 -1.8565
14392SOL     OW48022   5.691   4.412   8.774  0.0651 -0.1921  0.0816
14392SOL    HW148023   5.698   4.489   8.717  0.3850 -0.9683 -0.9285
14392SOL    HW248024   5.607   4.373   8.752 -0.2853  0.0939  0.8889
14393SOL     OW48025   6.896   3.915   8.005  0.4521  0.9239 -0.2551
14393SOL    HW148026   6.842   3.961   7.942  0.5404  0.9032 -0.3465
14393SOL    HW248027   6.867   3.947   8.090 -0.3797  0.1859 -0.2528
14394SOL     OW48028   4.231   5.952   8.790  0.2653  0.0326 -0.4950
14394SOL    HW148029   4.172   6.022   8.820  1.9773  0.6165  1.5949
14394SOL    HW248030   4.200   5.874   8.837  1.0319  0.3086  0.4877
14395SOL     OW48031   5.765   3.940   9.520  0.0425 -0.2024  0.1295
14395SOL    HW148032   5.791   3.973   9.434  2.1588  0.8354  1.1337
14395SOL    HW248033   5.832   3.877   9.543 -0.3876 -0.3050  1.1322
14396SOL     OW48034   5.319   3.935   8.666 -0.2723  0.1270  0.4505
14396SOL    HW148035   5.231   3.927   8.630  0.1335  0.6696 -0.6793
14396SOL    HW248036   5.314   4.011   8.724 -0.6210 -0.0139  0.6078
14397SOL     OW48037   4.129   5.789   0.461  0.2133  0.6546 -0.3056
14397SOL    HW148038   4.129   5.725   0.532 -0.2878  1.1971  0.1877
14397SOL    HW248039   4.220   5.817   0.454  0.2972  0.4531 -0.0119
14398SOL     OW48040   3.664   3.932   9.840 -0.2109 -0.5839  0.1473
14398SOL    HW148041   3.581   3.963   9.804 -0.2129 -1.3188 -0.4870
14398SOL    HW248042   3.709   3.892   9.766 -0.2003 -2.0854  0.9361
14399SOL     OW48043   2.603   5.825   7.149 -0.4314  0.2782 -0.0138
14399SOL    HW148044   2.537   5.894   7.140 -0.3591  0.6426  2.0702
14399SOL    HW248045   2.551   5.745   7.161 -0.5006  0.3388  0.0951
14400SOL     OW48046   4.220   5.001   0.323 -0.1274 -0.5671  0.4564
14400SOL    HW148047   4.161   4.936   0.287 -0.0784  0.1136 -0.8855
14400SOL    HW248048   4.235   4.973   0.413 -2.7911 -0.5440  0.9406
14401SOL     OW48049   5.444   3.546   8.790 -0.0601  0.1220 -0.5602
14401SOL    HW148050   5.526   3.512   8.825 -0.1828 -3.0177 -3.1036
14401SOL    HW248051   5.462   3.638   8.771  2.6683 -0.3622 -0.4923
14402SOL     OW48052   3.134   3.492   7.610 -0.1418 -0.2415  0.9471
14402SOL    HW148053   3.106   3.402   7.591  0.2273  0.2839 -2.3675
14402SOL    HW248054   3.228   3.485   7.623  0.0551 -0.2135 -0.3753
14403SOL     OW48055   5.905   4.970   8.528  0.7552  0.2656 -0.2765
14403SOL    HW148056   5.883   4.931   8.612  0.6150  0.8467 -0.0390
14403SOL    HW248057   5.823   5.010   8.498  0.8506  0.2218 -0.5965
14404SOL     OW48058   6.223   6.043   8.557 -0.1951  0.5706  0.1187
14404SOL    HW148059   6.245   6.086   8.474  2.5698  1.8012  1.4046
14404SOL    HW248060   6.262   5.956   8.550 -1.2003  0.1594 -0.4204
14405SOL     OW48061   4.595   4.432   0.101  0.0033  0.1678 -0.0486
14405SOL    HW148062   4.679   4.387   0.114 -1.3764 -2.3540  0.4960
14405SOL    HW248063   4.574   4.469   0.187  0.6022  0.9054 -0.2144
14406SOL     OW48064   3.466   4.007   0.506  0.8029  0.1064 -0.3885
14406SOL    HW148065   3.372   4.004   0.491  0.5170 -1.8662  1.3942
14406SOL    HW248066   3.504   3.959   0.432  0.2909 -0.3652 -0.3465
14407SOL     OW48067   4.735   6.054   0.811  0.5174 -0.2153 -0.5212
14407SOL    HW148068   4.752   5.959   0.811  1.5237 -0.0432 -0.5717
14407SOL    HW248069   4.754   6.081   0.721  1.2365  0.1990 -0.2510
14408SOL     OW48070   3.819   2.954   8.562 -0.2511  0.1296 -0.0976
14408SOL    HW148071   3.820   2.858   8.567 -0.6402  0.0198 -1.6274
14408SOL    HW248072   3.731   2.975   8.531 -0.9441  1.1405  2.4592
14409SOL     OW48073   4.850   5.289   9.443 -0.2688  0.0334  0.4210
14409SOL    HW148074   4.819   5.345   9.513  0.0602 -0.5561  1.0466
14409SOL    HW248075   4.939   5.265   9.469  0.5769  1.3671 -1.1406
14410SOL     OW48076   5.560   2.212   9.085 -0.5997  0.0620  0.1710
14410SOL    HW148077   5.568   2.119   9.108  1.7925  0.4681  1.1791
14410SOL    HW248078   5.527   2.212   8.996 -1.1138 -1.7513  0.3409
14411SOL     OW48079   1.240   4.959   7.813 -0.0287  0.2776  0.0317
14411SOL    HW148080   1.207   4.936   7.900 -0.9887 -0.7003 -0.5888
14411SOL    HW248081   1.308   4.895   7.795 -0.3464  0.0133 -0.2455
14412SOL     OW48082   7.865   4.621   8.853  0.9491  0.2649  0.3010
14412SOL    HW148083   7.821   4.556   8.798  2.1938  0.2414 -0.6864
14412SOL    HW248084   7.902   4.571   8.925  1.9776 -0.1502 -0.5037
14413SOL     OW48085   6.742   5.699   8.797 -0.3836 -0.3076  0.4398
14413SOL    HW148086   6.706   5.770   8.744  0.0032 -0.8522 -0.5733
14413SOL    HW248087   6.755   5.737   8.883  0.0509  0.9242 -0.1627
14414SOL     OW48088   6.699   5.725   8.502  0.4944  0.0904 -0.1658
14414SOL    HW148089   6.666   5.808   8.537  0.5040  0.8697 -1.9614
14414SOL    HW248090   6.792   5.740   8.486  0.5200 -0.3001 -0.4028
14415SOL     OW48091   3.044   3.812   8.938  0.2434  0.4292  0.3459
14415SOL    HW148092   2.950   3.803   8.953  0.0321  0.4695 -0.8506
14415SOL    HW248093   3.069   3.730   8.896  1.0781 -0.2657  2.1684
14416SOL     OW48094   3.434   4.148   8.486 -0.0295  0.3079  0.1790
14416SOL    HW148095   3.453   4.206   8.559  0.3359 -0.5429  0.7553
14416SOL    HW248096   3.519   4.112   8.460 -0.3870 -0.8030  0.5195
14417SOL     OW48097   7.361   3.588   8.437  0.0633 -0.6690  0.6461
14417SOL    HW148098   7.341   3.587   8.531 -0.4082 -0.0314  0.5596
14417SOL    HW248099   7.457   3.588   8.433  0.0914  0.4028  1.1513
14418SOL     OW48100   6.755   7.498   7.831  0.2339  0.5324  0.3146
14418SOL    HW148101   6.665   7.510   7.801 -0.7560 -0.8563  2.6033
14418SOL    HW248102   6.785   7.418   7.788 -0.4849 -0.3358  1.3942
14419SOL     OW48103   4.967   5.091   9.952 -0.1979 -0.5429 -0.3038
14419SOL    HW148104   4.950   5.092  10.046 -1.5640 -0.9263 -0.5360
14419SOL    HW248105   5.021   5.168   9.936 -1.1797  0.3391  0.5775
14420SOL     OW48106   7.804   4.163   9.068 -0.4044  0.0786 -0.1538
14420SOL    HW148107   7.763   4.189   8.985 -0.3194  0.9341  0.0654
14420SOL    HW248108   7.736   4.112   9.112 -1.0915  1.1063  0.0093
14421SOL     OW48109   2.034   3.815   8.413 -0.6906 -0.7053 -0.2447
14421SOL    HW148110   1.971   3.777   8.474  0.4845 -1.3098  0.6337
14421SOL    HW248111   2.022   3.909   8.422  0.8478 -0.7213  2.4816
14422SOL     OW48112   2.498   5.084   7.671  0.1306 -0.2780 -0.1312
14422SOL    HW148113   2.454   5.137   7.738  2.3472  0.0591  1.1357
14422SOL    HW248114   2.544   5.148   7.617  0.6078 -0.7271 -0.2545
14423SOL     OW48115   2.957   5.791   0.302 -0.2455  0.2763 -0.3504
14423SOL    HW148116   3.028   5.796   0.237  0.1364 -1.1594 -0.0646
14423SOL    HW248117   2.902   5.867   0.283 -0.2544 -0.2310 -2.5054
14424SOL     OW48118   5.253   3.161   8.207  0.0869  0.5761  0.2011
14424SOL    HW148119   5.293   3.234   8.253  1.5870  0.0489 -0.2559
14424SOL    HW248120   5.301   3.084   8.238 -1.4557 -0.2285  0.6677
14425SOL     OW48121   2.866   5.540   9.274 -0.4179 -0.6762  0.0329
14425SOL    HW148122   2.908   5.556   9.190  1.6543  2.7545  1.6088
14425SOL    HW248123   2.774   5.561   9.259 -0.1940 -0.7268 -1.5050
14426SOL     OW48124   4.091   6.263   0.004  0.1918  0.0836  0.1095
14426SOL    HW148125   4.020   6.230  -0.051  0.9901 -0.9378 -0.3127
14426SOL    HW248126   4.062   6.247   0.093  0.0462 -0.6586 -0.0705
14427SOL     OW48127   3.751   6.853   7.962  0.2199 -0.3500  0.2773
14427SOL    HW148128   3.687   6.836   7.892 -1.0268  1.9175  0.7822
14427SOL    HW248129   3.828   6.887   7.917 -0.3357  0.4589 -0.0927
14428SOL     OW48130   6.866   6.037   7.932 -0.3693 -0.0595 -0.1794
14428SOL    HW148131   6.941   6.081   7.891 -2.0475  1.6559 -1.5141
14428SOL    HW248132   6.863   5.951   7.892 -0.0194  0.4281 -1.2556
14429SOL     OW48133   6.963   3.402   7.534  0.2707 -0.1260 -0.5401
14429SOL    HW148134   7.015   3.358   7.466  1.8650  1.1275 -0.1682
14429SOL    HW248135   6.913   3.468   7.486 -1.2576 -1.5478 -0.9439
14430SOL     OW48136   2.659   3.558   9.175 -0.4640 -0.2807 -0.0591
14430SOL    HW148137   2.702   3.480   9.209 -2.1915 -0.7383  1.1819
14430SOL    HW248138   2.567   3.547   9.199 -1.0290  1.3468 -1.3463
14431SOL     OW48139   5.701   8.014   8.732 -0.9511  0.2738 -0.2559
14431SOL    HW148140   5.648   8.092   8.711 -1.7067 -0.1378  0.1228
14431SOL    HW248141   5.637   7.943   8.740  0.0051 -1.1769 -4.2427
14432SOL     OW48142   5.607   3.482   9.799 -0.2181 -0.4116 -0.0683
14432SOL    HW148143   5.516   3.456   9.783  0.3047 -0.6345 -2.8073
14432SOL    HW248144   5.654   3.400   9.813 -0.1381 -0.3983 -0.2581
14433SOL     OW48145   3.378   3.739   8.518  0.3552 -0.6799  0.1124
14433SOL    HW148146   3.418   3.652   8.522 -0.8641 -1.3537 -1.6112
14433SOL    HW248147   3.284   3.722   8.516  0.1027  0.6882 -0.1448
14434SOL     OW48148   6.501   5.774   8.230 -0.3145  0.4809 -0.0045
14434SOL    HW148149   6.549   5.704   8.273  0.3816  1.2081  0.3995
14434SOL    HW248150   6.538   5.778   8.142 -2.9590 -2.2195 -1.3324
14435SOL     OW48151   5.360   4.668   9.110 -0.1503 -0.0810 -0.3222
14435SOL    HW148152   5.420   4.622   9.051  1.5832 -0.3550  1.5720
14435SOL    HW248153   5.382   4.760   9.099 -0.4336 -0.0646 -0.7466
14436SOL     OW48154   2.294   4.434   9.026  0.0752  0.3842 -0.5395
14436SOL    HW148155   2.320   4.361   9.083  3.1693 -0.0258 -2.3663
14436SOL    HW248156   2.226   4.397   8.969  1.0432 -0.8838 -0.9060
14437SOL     OW48157   2.456   5.190   0.140 -0.4006  0.8588  0.1495
14437SOL    HW148158   2.385   5.135   0.105 -2.4072  2.6847  1.2696
14437SOL    HW248159   2.516   5.128   0.181 -0.1331 -0.9405 -2.7986
14438SOL     OW48160   3.670   5.935   9.889  0.5258  0.4899 -0.2940
14438SOL    HW148161   3.669   5.967   9.978  2.1130  1.4379 -0.6124
14438SOL    HW248162   3.577   5.931   9.864 -0.0732 -1.5640  1.9890
14439SOL     OW48163   5.542   6.505   9.132 -0.5385 -0.0121  0.6257
14439SOL    HW148164   5.548   6.548   9.217 -0.1997 -1.2418  1.2381
14439SOL    HW248165   5.449   6.484   9.122 -0.4997 -0.3474  0.9455
14440SOL     OW48166   2.788   4.282   8.189  0.4671 -0.0815 -0.0929
14440SOL    HW148167   2.818   4.193   8.205 -2.6555 -0.9419  1.3587
14440SOL    HW248168   2.754   4.280   8.100 -0.3713 -0.5588  0.2394
14441SOL     OW48169   4.755   5.758   9.574 -0.0290 -0.4995  0.3253
14441SOL    HW148170   4.819   5.737   9.506 -0.2772 -2.5864  0.7227
14441SOL    HW248171   4.679   5.791   9.525 -0.0985 -1.7140 -0.4057
14442SOL     OW48172   3.358   3.518   9.730 -0.1541  0.4702 -0.0327
14442SOL    HW148173   3.337   3.525   9.823 -0.4922  1.1696 -0.1609
14442SOL    HW248174   3.341   3.427   9.708 -0.7054  0.4620  0.4366
14443SOL     OW48175   5.796   7.489   7.687 -0.0796  0.0297  0.2146
14443SOL    HW148176   5.716   7.514   7.640 -0.8473 -0.7813  1.0792
14443SOL    HW248177   5.846   7.570   7.691 -1.2175  0.7464  0.3629
14444SOL     OW48178   4.539   3.472   9.486  0.2001 -0.2774 -0.1215
14444SOL    HW148179   4.527   3.557   9.444  0.1970 -0.1598  0.1179
14444SOL    HW248180   4.556   3.492   9.578  1.7537 -0.4520 -0.3481
14445SOL     OW48181   3.610   5.406   8.584  0.3456 -0.0163 -0.2949
14445SOL    HW148182   3.654   5.398   8.669  1.4083 -0.1428 -0.8359
14445SOL    HW248183   3.549   5.333   8.582 -1.1988  1.1910  1.2150
14446SOL     OW48184   5.240   4.932   0.820  0.1246 -0.1711 -0.2638
14446SOL    HW148185   5.272   4.940   0.730 -0.2690  0.8648 -0.3243
14446SOL    HW248186   5.318   4.914   0.872  0.1658 -2.2178 -0.9923
14447SOL     OW48187   9.137   5.532   7.523  0.2697 -0.3938  0.3776
14447SOL    HW148188   9.217   5.516   7.573  2.0487  1.3651 -1.8335
14447SOL    HW248189   9.101   5.444   7.507  0.8694 -1.1036  2.7385
14448SOL     OW48190   6.108   3.398   7.494  0.0253 -0.5797  0.2711
14448SOL    HW148191   6.051   3.350   7.432  1.5060 -1.2469 -0.6039
14448SOL    HW248192   6.149   3.329   7.546  2.1138 -0.2551 -0.9352
14449SOL     OW48193   4.298   4.760   0.563  0.1951 -0.1666  0.6027
14449SOL    HW148194   4.267   4.808   0.640 -0.3136  0.8122 -0.1926
14449SOL    HW248195   4.374   4.809   0.533  0.5559 -0.7022  0.6437
14450SOL     OW48196   7.127   2.263   8.054  0.4009  0.3499  0.0969
14450SOL    HW148197   7.063   2.323   8.014  0.4794  1.4185  1.5303
14450SOL    HW248198   7.166   2.314   8.125  0.1365 -1.5651  1.6502
14451SOL     OW48199   4.091   4.768   9.153  0.1421  0.8519 -0.2355
14451SOL    HW148200   4.111   4.860   9.168  0.1249  1.2107 -2.2494
14451SOL    HW248201   4.018   4.769   9.091  0.5110 -0.5132 -0.6986
14452SOL     OW48202   5.375   5.196   9.414 -0.0650 -0.0236  0.3043
14452SOL    HW148203   5.424   5.212   9.496 -0.1524  1.6013  0.0713
14452SOL    HW248204   5.288   5.232   9.431  0.0373  0.6924 -0.6323
14453SOL     OW48205   5.717   4.321   9.498  0.6893  0.1923 -0.0492
14453SOL    HW148206   5.789   4.335   9.558  0.9384  0.4872 -0.4146
14453SOL    HW248207   5.759   4.293   9.416  0.2810 -1.5222  0.3058
14454SOL     OW48208   6.105   6.085   8.235 -0.5764 -0.3172 -0.1412
14454SOL    HW148209   6.187   6.097   8.284  0.4551  1.1782 -2.1681
14454SOL    HW248210   6.133   6.065   8.146 -2.4204  0.6895 -0.9728
14455SOL     OW48211   7.368   4.767   8.161 -0.4895 -0.0209  0.0395
14455SOL    HW148212   7.396   4.852   8.125 -0.7075  0.5221  1.1337
14455SOL    HW248213   7.423   4.754   8.238 -1.9185  0.1583  1.1109
14456SOL     OW48214   2.091   5.408   9.085  0.6567 -0.0920  0.4969
14456SOL    HW148215   2.055   5.338   9.140 -0.4446  0.1694  0.1259
14456SOL    HW248216   2.044   5.487   9.113 -0.9476 -0.1941 -1.7537
14457SOL     OW48217   2.853   5.703   8.243  0.0434  0.2540  0.3256
14457SOL    HW148218   2.852   5.624   8.188  0.6310  0.7709 -0.4364
14457SOL    HW248219   2.945   5.718   8.262 -0.0880  0.6090  0.6940
14458SOL     OW48220   1.694   4.245   0.370  0.1820 -0.4349  0.3204
14458SOL    HW148221   1.757   4.279   0.433 -0.0679 -0.4163  0.5569
14458SOL    HW248222   1.683   4.316   0.306 -0.5338  0.0275  0.9537
14459SOL     OW48223   3.647   3.648   8.127 -0.3546 -0.8880  0.3886
14459SOL    HW148224   3.647   3.729   8.177 -1.3997 -0.6157 -0.0448
14459SOL    HW248225   3.670   3.674   8.038 -4.9085 -0.3908 -0.7590
14460SOL     OW48226   1.865   3.397   8.311 -0.3494  0.4802 -0.8832
14460SOL    HW148227   1.811   3.463   8.353 -1.7306 -0.7632 -0.6440
14460SOL    HW248228   1.826   3.385   8.224 -0.6770 -0.6679 -0.5884
14461SOL     OW48229   8.047   4.873   9.189  0.1003  0.2746  0.3573
14461SOL    HW148230   7.999   4.843   9.266 -0.7231  1.7046  0.4060
14461SOL    HW248231   8.139   4.877   9.218 -0.3510  1.9603  1.6495
14462SOL     OW48232   2.433   3.038   9.415 -0.2358  0.0997  0.0697
14462SOL    HW148233   2.431   3.113   9.355  0.7011  0.4385  0.4527
14462SOL    HW248234   2.367   3.057   9.481 -2.0311 -0.7609 -1.4074
14463SOL     OW48235   3.522   3.623   9.290 -0.1239  0.5687  0.1252
14463SOL    HW148236   3.445   3.669   9.257 -0.0135  0.1684 -0.7006
14463SOL    HW248237   3.501   3.604   9.381 -1.7374 -1.0403 -0.5340
14464SOL     OW48238   5.295   4.641   9.368  0.2651  0.0508  0.5500
14464SOL    HW148239   5.330   4.642   9.279 -0.4494  0.5706  0.2725
14464SOL    HW248240   5.369   4.613   9.423  0.0905 -2.5907 -0.4581
14465SOL     OW48241   5.452   3.076   8.746 -0.4728 -0.0342 -0.1093
14465SOL    HW148242   5.435   3.008   8.811 -0.3172 -0.6743 -0.7265
14465SOL    HW248243   5.518   3.037   8.688 -0.8517  0.4060 -0.8333
14466SOL     OW48244   4.876   3.585   8.596 -0.4994 -0.3742 -0.2150
14466SOL    HW148245   4.794   3.557   8.553 -1.8777  1.9182  0.8133
14466SOL    HW248246   4.876   3.680   8.588 -0.0623  0.0306  3.5117
14467SOL     OW48247   4.577   4.891   9.568 -0.4812 -0.0128  0.0699
14467SOL    HW148248   4.626   4.926   9.494  0.2014 -3.5930 -1.2436
14467SOL    HW248249   4.644   4.861   9.629 -1.0600  0.7545  1.1130
14468SOL     OW48250   7.049   4.960   7.575 -0.5370 -0.1568 -0.6655
14468SOL    HW148251   7.117   4.979   7.639  1.5512 -0.5495 -2.7411
14468SOL    HW248252   7.074   5.010   7.498 -1.9210 -1.3154 -1.8873
14469SOL     OW48253   5.425   2.902   7.273 -0.7175  0.0028 -0.2043
14469SOL    HW148254   5.397   2.962   7.343 -1.0607  0.0523 -0.3824
14469SOL    HW248255   5.516   2.927   7.255 -0.3758 -0.5336  0.7757
14470SOL     OW48256   5.672   3.255   8.411 -0.0885  0.5569 -0.1449
14470SOL    HW148257   5.717   3.246   8.495  1.2732 -0.7314 -0.9904
14470SOL    HW248258   5.691   3.345   8.384  2.2005 -0.0430 -0.6017
14471SOL     OW48259   3.303   3.536   6.446 -0.1090 -0.2132 -0.1312
14471SOL    HW148260   3.236   3.528   6.514 -0.2049  2.1279  0.0829
14471SOL    HW248261   3.356   3.611   6.474 -0.1805  0.8087 -2.6492
14472SOL     OW48262   3.656   5.697   9.217 -0.0138 -0.0467  0.3662
14472SOL    HW148263   3.683   5.608   9.199  1.6759  0.6155 -0.4469
14472SOL    HW248264   3.579   5.710   9.162 -1.6698 -1.7306  2.2151
14473SOL     OW48265   2.673   2.571   9.841 -0.9974  0.0292 -0.2441
14473SOL    HW148266   2.596   2.544   9.892 -1.6669  0.7746 -0.8380
14473SOL    HW248267   2.747   2.533   9.888 -1.8381 -2.2031 -0.6457
14474SOL     OW48268   6.889   3.236   8.861  0.3447  0.3238 -0.2183
14474SOL    HW148269   6.837   3.232   8.941  0.9586  0.4129  0.1940
14474SOL    HW248270   6.826   3.224   8.790  0.2804 -3.9137  0.4099
14475SOL     OW48271   5.180   5.400   9.460  0.1638 -0.3002 -0.3367
14475SOL    HW148272   5.218   5.479   9.499  1.1445 -0.7382 -0.3930
14475SOL    HW248273   5.139   5.431   9.379  2.9121 -0.2812 -1.7620
14476SOL     OW48274   4.843   3.113   9.978 -0.4086  0.0110  0.1535
14476SOL    HW148275   4.853   3.181   9.911 -2.7513  0.7939  0.5566
14476SOL    HW248276   4.772   3.057   9.946  0.4299 -1.3229  0.5888
14477SOL     OW48277   5.149   5.128   8.843  0.0603  0.7323  0.5172
14477SOL    HW148278   5.242   5.142   8.822 -0.0752  1.3156  0.2824
14477SOL    HW248279   5.149   5.053   8.902  0.7691  1.2950  1.2464
14478SOL     OW48280   2.008   4.726   8.524  0.2592  0.0886 -0.6761
14478SOL    HW148281   1.954   4.648   8.509 -0.9185  0.7242  0.2073
14478SOL    HW248282   1.965   4.795   8.473  0.7845  0.3693 -0.7402
14479SOL     OW48283   5.478   5.464   9.687  0.4562  0.2607  0.0675
14479SOL    HW148284   5.555   5.486   9.635 -0.6755  0.2671 -1.6557
14479SOL    HW248285   5.465   5.370   9.673  1.0740 -0.0558  1.6223
14480SOL     OW48286   3.317   5.073   0.281 -0.4932 -0.0102  0.1310
14480SOL    HW148287   3.401   5.060   0.238 -0.1240  2.7294 -0.0986
14480SOL    HW248288   3.292   4.986   0.313  1.5911 -1.1694 -1.2760
14481SOL     OW48289   5.791   4.443   8.356  0.0660  0.3204 -0.1019
14481SOL    HW148290   5.870   4.477   8.399  0.1069  0.6710 -0.4391
14481SOL    HW248291   5.824   4.375   8.297  0.1679  0.7384 -0.5328
14482SOL     OW48292   3.965   3.848   1.322 -0.2662  0.0708  0.0662
14482SOL    HW148293   3.986   3.758   1.296 -0.4273  0.9075 -3.1789
14482SOL    HW248294   4.051   3.887   1.341 -0.1625 -0.5999  1.0645
14483SOL     OW48295   4.159   1.491   9.674 -0.0379  0.3601  0.0485
14483SOL    HW148296   4.245   1.454   9.694  1.0123  2.7967  0.2177
14483SOL    HW248297   4.172   1.540   9.593 -1.1770  1.0464  0.2690
14484SOL     OW48298   4.382   4.370   9.173 -0.1052 -0.1467 -0.1528
14484SOL    HW148299   4.420   4.313   9.106  0.0788 -0.2718  0.0566
14484SOL    HW248300   4.405   4.459   9.145 -0.2093 -0.1853 -0.3683
14485SOL     OW48301   4.178   5.027   9.312  0.3781 -0.6513  0.3207
14485SOL    HW148302   4.206   5.116   9.336  3.2194 -1.3601 -0.1963
14485SOL    HW248303   4.097   5.013   9.362  1.9100  0.8244  3.3194
14486SOL     OW48304   5.090   3.541   8.418 -0.7384 -0.2997 -0.4863
14486SOL    HW148305   5.019   3.577   8.472 -1.4259 -0.4629 -1.2654
14486SOL    HW248306   5.074   3.576   8.331  1.1481  1.0342 -0.3153
14487SOL     OW48307   5.461   5.225   8.706  0.1580 -0.6162  0.2480
14487SOL    HW148308   5.458   5.131   8.686  2.0483 -0.5840 -0.2825
14487SOL    HW248309   5.447   5.268   8.622 -0.2221 -0.4199  0.4114
14488SOL     OW48310   4.119   5.152   3.188  0.0188 -0.0865 -0.5439
14488SOL    HW148311   4.081   5.094   3.121  1.5797 -1.1852 -0.4936
14488SOL    HW248312   4.056   5.224   3.194 -1.8537 -1.6333 -0.7765
14489SOL     OW48313   4.842   4.354   1.012  0.2960  0.4205 -0.1044
14489SOL    HW148314   4.837   4.439   1.056  0.8781  0.3888  0.0304
14489SOL    HW248315   4.753   4.321   1.013  0.3765  0.2226  1.4769
14490SOL     OW48316   3.696   4.963   9.540  0.2036 -0.4973 -1.0290
14490SOL    HW148317   3.646   5.036   9.576 -0.6107 -0.7043 -1.7104
14490SOL    HW248318   3.648   4.885   9.566 -0.2391 -0.6618 -2.2947
14491SOL     OW48319   3.373   5.322   0.387  0.2676  0.1965  0.1952
14491SOL    HW148320   3.373   5.238   0.340 -0.5880  0.4588 -0.2703
14491SOL    HW248321   3.283   5.333   0.418  0.5461  0.5984  0.8899
14492SOL     OW48322   4.649   7.055   8.933  0.2071 -0.2937  0.0473
14492SOL    HW148323   4.691   7.080   8.850  0.0253  0.6753  0.2358
14492SOL    HW248324   4.636   6.961   8.926 -0.8690 -0.0424 -1.5155
14493SOL     OW48325   5.610   5.841   8.337 -0.5329  0.6844 -0.1700
14493SOL    HW148326   5.626   5.871   8.248 -2.5898  0.9504 -0.4664
14493SOL    HW248327   5.588   5.920   8.386 -1.3286  0.2896  0.1235
14494SOL     OW48328   3.788   4.948   0.689 -0.3912 -0.4143  0.2184
14494SOL    HW148329   3.757   4.899   0.765 -1.9535 -1.2286 -0.9052
14494SOL    HW248330   3.737   5.029   0.691  0.3737  0.0565  0.6633
14495SOL     OW48331   5.010   4.185   0.027 -0.5280  0.2203 -0.2453
14495SOL    HW148332   5.082   4.237   0.063 -0.2198  0.5878 -1.3744
14495SOL    HW248333   5.051   4.131  -0.040 -0.3802 -3.3410  2.5796
14496SOL     OW48334   5.853   3.786   0.172 -0.3353  0.0351  0.2977
14496SOL    HW148335   5.821   3.803   0.083  1.8523  0.6379 -0.3893
14496SOL    HW248336   5.858   3.873   0.212 -0.0888 -0.1084  0.5804
14497SOL     OW48337   3.605   4.858   0.247 -0.7566  0.4103 -1.1014
14497SOL    HW148338   3.699   4.870   0.233 -0.2470 -2.9791 -1.1345
14497SOL    HW248339   3.567   4.864   0.160 -0.1376 -1.3497 -1.5046
14498SOL     OW48340   4.304   6.033   9.922 -0.6432 -0.1444  0.1008
14498SOL    HW148341   4.247   6.106   9.946 -1.7229 -0.7134 -0.7271
14498SOL    HW248342   4.377   6.074   9.875 -2.7414  0.1407 -3.0286
14499SOL     OW48343   4.954   3.372   9.138  0.2178  0.2614  0.3888
14499SOL    HW148344   4.929   3.439   9.074 -1.3879  0.4531  1.2049
14499SOL    HW248345   4.878   3.364   9.196  1.6234  0.0218  2.2359
14500SOL     OW48346   4.986   3.388   7.825  0.2455 -0.4662 -0.3587
14500SOL    HW148347   4.899   3.417   7.853  0.9495  1.4607 -0.0404
14500SOL    HW248348   5.031   3.366   7.907  1.1060  1.6886 -0.2073
14501SOL     OW48349   3.590   5.166   9.676 -0.5788 -0.6475  0.3770
14501SOL    HW148350   3.638   5.191   9.756 -0.1130 -2.4375  0.6670
14501SOL    HW248351   3.499   5.192   9.694 -0.4474 -0.8840  1.4147
14502SOL     OW48352   5.467   7.881   9.794  0.0383 -0.1163  0.1528
14502SOL    HW148353   5.444   7.902   9.703  0.4319  2.3448  0.5692
14502SOL    HW248354   5.396   7.825   9.825 -0.7468  0.0588 -1.3048
14503SOL     OW48355   5.500   4.799   0.900  0.4246 -0.4789  0.4068
14503SOL    HW148356   5.471   4.714   0.933  1.0938 -0.1942  1.7733
14503SOL    HW248357   5.567   4.778   0.835  2.2852 -0.9563  2.4266
14504SOL     OW48358   6.440   4.956   9.323  0.1957  0.1955  0.2019
14504SOL    HW148359   6.517   4.907   9.292 -0.1628 -0.7014  0.7190
14504SOL    HW248360   6.366   4.901   9.298 -0.3285  1.3698 -0.8751
14505SOL     OW48361   4.734   4.277   0.435 -0.8670  0.4492  0.0183
14505SOL    HW148362   4.819   4.321   0.447 -0.8528  0.5123 -0.3174
14505SOL    HW248363   4.741   4.234   0.350 -0.7959 -0.4079  0.4528
14506SOL     OW48364   3.328   4.393   0.623  0.2507  0.1540 -0.1231
14506SOL    HW148365   3.249   4.345   0.597  0.4138 -0.8965  1.2681
14506SOL    HW248366   3.300   4.447   0.696  1.3873 -2.1719  2.0957
14507SOL     OW48367   5.027   4.727   9.603  0.1367 -0.7432  0.2297
14507SOL    HW148368   5.052   4.819   9.599 -3.0899  0.2627  0.9946
14507SOL    HW248369   5.069   4.694   9.682 -0.8742  0.8656  1.4858
14508SOL     OW48370   5.347   4.890   9.476  0.1791 -0.4431  0.9907
14508SOL    HW148371   5.326   4.841   9.555  3.0793  0.0655  2.1709
14508SOL    HW248372   5.344   4.826   9.406 -1.7658 -1.0487  1.6059
14509SOL     OW48373   2.733   3.331   9.396 -0.3884 -0.1783 -0.0734
14509SOL    HW148374   2.827   3.316   9.409 -0.6330 -1.6272  0.1436
14509SOL    HW248375   2.703   3.367   9.480  0.3498  2.2517 -0.8381
14510SOL     OW48376   3.108   5.809   0.075 -0.1213  0.0096  0.9225
14510SOL    HW148377   3.189   5.759   0.066 -0.8359 -0.9851 -0.1437
14510SOL    HW248378   3.073   5.814  -0.014 -0.2119  2.1851  1.0437
14511SOL     OW48379   4.820   4.484   8.995  0.1183  0.4022  0.1949
14511SOL    HW148380   4.791   4.518   9.080  0.9418 -0.5672  0.8743
14511SOL    HW248381   4.789   4.394   8.994  0.5797  0.2499 -0.3209
14512SOL     OW48382   5.823   3.078   8.216  0.0150 -0.0417 -0.0336
14512SOL    HW148383   5.776   2.999   8.189 -1.8067  1.9534 -3.0271
14512SOL    HW248384   5.765   3.119   8.280 -1.4480  1.3302 -2.1563
14513SOL     OW48385   4.336   2.846   0.619  0.2996 -0.2596  0.0039
14513SOL    HW148386   4.380   2.823   0.700 -0.8585 -0.4847  0.5850
14513SOL    HW248387   4.358   2.776   0.558  2.4402  0.7079 -0.3641
14514SOL     OW48388   5.408   4.148   0.768  0.0375 -0.4597 -0.0811
14514SOL    HW148389   5.477   4.213   0.762  0.2617 -0.4446  2.0288
14514SOL    HW248390   5.372   4.141   0.680  1.6374  0.7258 -0.8363
14515SOL     OW48391   6.731   4.245   9.867  0.6191  0.1986  0.5808
14515SOL    HW148392   6.681   4.320   9.834 -1.5873 -1.0393  1.0063
14515SOL    HW248393   6.675   4.170   9.849  2.6354 -1.3274  0.5112
14516SOL     OW48394   3.301   3.786   0.153 -0.2307 -0.5428  0.1775
14516SOL    HW148395   3.285   3.779   0.059  0.0502  1.2382 -0.0200
14516SOL    HW248396   3.296   3.696   0.185 -0.5751 -1.1354 -1.4992
14517SOL     OW48397   3.564   5.244   0.134 -0.0555 -0.0876 -0.0519
14517SOL    HW148398   3.606   5.212   0.054 -0.6847  1.6776 -1.1188
14517SOL    HW248399   3.475   5.268   0.107 -0.8997 -1.2580  1.5987
14518SOL     OW48400   3.172   4.204   9.744  0.3751 -0.1943 -0.0571
14518SOL    HW148401   3.132   4.257   9.675  1.3673  1.8771  0.9106
14518SOL    HW248402   3.119   4.124   9.746 -0.2392  0.0804 -2.5685
14519SOL     OW48403   2.547   5.304   7.510 -0.1357 -0.3590  0.3896
14519SOL    HW148404   2.592   5.244   7.450  1.4730 -0.7792  1.9696
14519SOL    HW248405   2.464   5.324   7.466  0.3487 -1.8463 -1.2692
14520SOL     OW48406   5.137   3.275   9.968  0.3180  0.5055  0.1232
14520SOL    HW148407   5.215   3.316   9.930  0.3382  1.5689  1.2835
14520SOL    HW248408   5.068   3.291   9.903  0.9838 -0.1852 -0.7712
14521SOL     OW48409   5.012   4.000   1.238 -0.1787  0.5686  0.3796
14521SOL    HW148410   4.944   3.942   1.271 -0.0874  0.3336  0.1562
14521SOL    HW248411   5.032   3.967   1.150 -1.0100  1.7092 -0.2408
14522SOL     OW48412   5.242   5.908   9.822  0.2905 -0.1367  0.2867
14522SOL    HW148413   5.273   5.939   9.907  0.7363 -0.9584  0.4341
14522SOL    HW248414   5.261   5.814   9.823  0.0978 -0.1884 -0.6351
14523SOL     OW48415   4.155   4.970   8.822  0.4063  0.3825  0.2266
14523SOL    HW148416   4.132   5.048   8.873 -2.3567  0.1593 -0.6304
14523SOL    HW248417   4.094   4.970   8.749  1.2948 -1.8598 -0.5526
14524SOL     OW48418   5.434   3.648   9.363 -0.2744  0.5194  0.1473
14524SOL    HW148419   5.413   3.738   9.385 -1.4188  0.2992 -0.0246
14524SOL    HW248420   5.385   3.595   9.426  1.1877  0.0317  0.9096
14525SOL     OW48421   2.865   7.122   1.946 -0.4280 -0.1234  0.1678
14525SOL    HW148422   2.912   7.086   1.871 -0.6278 -1.5037  0.6980
14525SOL    HW248423   2.832   7.046   1.993 -0.4942  0.7315  1.5397
14526SOL     OW48424   4.877   4.190   9.783 -0.0764  0.1324  0.0895
14526SOL    HW148425   4.912   4.182   9.872 -3.6039 -1.0098  1.4385
14526SOL    HW248426   4.856   4.283   9.775 -0.4745  0.1053  0.7477
14527SOL     OW48427   5.320   5.553   8.716  0.4239  0.2907  0.2689
14527SOL    HW148428   5.325   5.488   8.646 -2.5021 -0.2579  0.5225
14527SOL    HW248429   5.388   5.617   8.694  2.4725 -2.1233 -0.6927
14528SOL     OW48430   4.213   5.807   1.096  0.9197  0.4370 -0.1019
14528SOL    HW148431   4.129   5.805   1.051  0.8799  1.2220 -0.0702
14528SOL    HW248432   4.191   5.797   1.189  0.8726  0.4868 -0.1079
14529SOL     OW48433   4.244   3.668   9.671 -0.1485  0.3178  0.2281
14529SOL    HW148434   4.194   3.692   9.593 -1.0649 -0.2583  0.6279
14529SOL    HW248435   4.318   3.728   9.671 -0.1074  0.2984 -1.1151
14530SOL     OW48436   5.239   2.864   9.253 -0.0393  0.1078 -0.5088
14530SOL    HW148437   5.146   2.839   9.247  0.2019 -0.7560 -0.7748
14530SOL    HW248438   5.279   2.794   9.304  0.2965  0.9746  0.4295
14531SOL     OW48439   3.975   4.067   8.533 -0.2237 -0.6677 -0.3827
14531SOL    HW148440   3.974   3.972   8.521  0.8611 -0.8027  0.4653
14531SOL    HW248441   4.068   4.091   8.530 -0.0231 -0.3249  4.2785
14532SOL     OW48442   3.110   4.476   1.130  0.3580 -0.0759  0.1695
14532SOL    HW148443   3.068   4.545   1.078 -0.0205 -0.3136  0.1565
14532SOL    HW248444   3.037   4.432   1.175  0.7531  0.6267  1.5177
14533SOL     OW48445   3.687   4.011   8.467  0.3212 -0.0392 -0.4848
14533SOL    HW148446   3.663   3.970   8.550  0.1077  0.6312 -0.2081
14533SOL    HW248447   3.782   4.012   8.466  0.3384 -1.2304 -0.8430
14534SOL     OW48448   3.177   7.165   0.282  0.4944 -0.7674 -0.2860
14534SOL    HW148449   3.126   7.126   0.211  1.6868 -3.7751  0.3978
14534SOL    HW248450   3.116   7.172   0.356  0.2000 -1.1201 -0.4975
14535SOL     OW48451   6.737   4.932   8.858  0.0768  0.4840 -0.1534
14535SOL    HW148452   6.813   4.974   8.819  0.7425 -1.0281 -0.4778
14535SOL    HW248453   6.773   4.873   8.924 -0.8183 -0.3158 -0.3757
14536SOL     OW48454   1.858   4.321   0.569  0.3524 -1.4866 -0.1599
14536SOL    HW148455   1.908   4.241   0.583 -0.5046 -1.7349  1.6874
14536SOL    HW248456   1.810   4.334   0.651 -0.1339  0.4837 -0.7186
14537SOL     OW48457   4.114   5.357   0.330  0.1614  0.5274 -0.1083
14537SOL    HW148458   4.157   5.438   0.359  0.9745 -0.1281  0.5341
14537SOL    HW248459   4.051   5.386   0.265  1.0087  1.6086 -0.4688
14538SOL     OW48460   5.023   4.667   9.026 -0.6038 -0.6581 -0.1999
14538SOL    HW148461   5.064   4.606   9.087 -1.1451 -1.9411 -1.0915
14538SOL    HW248462   4.947   4.620   8.992 -1.1377  0.5806 -0.7774
14539SOL     OW48463   1.844   3.330   0.288  0.3754 -0.5372  0.6254
14539SOL    HW148464   1.772   3.279   0.253 -0.5301  1.1684 -0.0290
14539SOL    HW248465   1.814   3.358   0.374  0.3341  0.0007  0.4377
14540SOL     OW48466   6.156   7.037   0.174  0.6440 -0.2344  0.0023
14540SOL    HW148467   6.160   7.012   0.267 -1.6813  4.6626  1.5372
14540SOL    HW248468   6.238   7.085   0.159  0.3982  0.1398 -0.1294
14541SOL     OW48469   2.951   6.824   0.302 -0.0668  0.6350  0.2167
14541SOL    HW148470   3.015   6.786   0.243 -0.4086  1.8231 -0.9565
14541SOL    HW248471   2.946   6.763   0.376  2.5369  0.6249  0.4350
14542SOL     OW48472   3.575   6.342   0.294  0.2833 -0.0313 -0.3951
14542SOL    HW148473   3.586   6.349   0.200  0.0080  0.7088 -0.3738
14542SOL    HW248474   3.523   6.418   0.318  2.1256  0.9459  0.6449
14543SOL     OW48475   2.622   5.454   0.399  0.2786  0.8062  0.4300
14543SOL    HW148476   2.618   5.374   0.452  1.9206  0.1038 -0.4803
14543SOL    HW248477   2.534   5.461   0.361  0.4071 -1.1145 -0.2682
14544SOL     OW48478   4.849   7.568   0.774  0.3339  0.0494 -0.1970
14544SOL    HW148479   4.866   7.646   0.827 -2.0651 -0.1876  0.9881
14544SOL    HW248480   4.777   7.594   0.716  0.1690 -0.9738 -0.4585
14545SOL     OW48481   5.606   7.714   7.695  0.1038 -0.2729 -0.2711
14545SOL    HW148482   5.619   7.806   7.672 -2.1840  0.0507 -0.3903
14545SOL    HW248483   5.556   7.678   7.622 -0.9898 -1.0393  0.8299
14546SOL     OW48484   4.942   5.616   0.659  0.2681 -0.3579 -0.4547
14546SOL    HW148485   5.038   5.615   0.661  0.3259  0.2132 -2.1232
14546SOL    HW248486   4.918   5.530   0.627  0.2139 -0.5428  0.0780
14547SOL     OW48487   5.187   4.391   0.141  0.3290 -0.3588  0.6167
14547SOL    HW148488   5.194   4.409   0.235 -0.6928  0.8634  0.4683
14547SOL    HW248489   5.194   4.477   0.099  1.4528 -0.9735 -0.4645
14548SOL     OW48490   2.903   6.965   1.356 -0.0189  0.2892 -0.1714
14548SOL    HW148491   2.963   6.890   1.358 -0.9635 -0.4914 -0.7209
14548SOL    HW248492   2.936   7.021   1.286  1.0504  0.7100  0.6411
14549SOL     OW48493   4.268   6.045   2.005 -0.6839  0.3454 -0.1839
14549SOL    HW148494   4.309   5.961   2.028  0.5822  0.6787 -1.1710
14549SOL    HW248495   4.195   6.054   2.066  1.5013  0.3802  2.4955
14550SOL     OW48496   3.647   7.038   9.451  0.4251 -0.1347 -0.1251
14550SOL    HW148497   3.560   7.023   9.486  0.4873  2.2744  1.0891
14550SOL    HW248498   3.698   7.073   9.524  1.6754  1.0232 -1.5053
14551SOL     OW48499   4.818   6.140   0.194 -0.0285  0.0806 -0.2015
14551SOL    HW148500   4.841   6.227   0.226 -0.8775  0.5060 -0.7233
14551SOL    HW248501   4.888   6.083   0.227  0.6770  0.9985 -0.0774
14552SOL     OW48502   5.086   9.197   0.134  0.0517 -0.5501 -0.7697
14552SOL    HW148503   5.149   9.229   0.069 -0.5066  1.4910 -0.3164
14552SOL    HW248504   5.035   9.274   0.159 -1.4968 -1.8451  0.1478
14553SOL     OW48505   3.545   5.949   0.606 -0.1787 -0.1020 -0.6950
14553SOL    HW148506   3.529   5.875   0.548  0.4245  0.1495 -1.1912
14553SOL    HW248507   3.497   6.022   0.568  1.0146  0.3135 -1.4424
14554SOL     OW48508   5.486   3.973   9.918  0.3946 -0.1902  1.1632
14554SOL    HW148509   5.469   4.030   9.843 -0.3777 -1.2478  0.5047
14554SOL    HW248510   5.447   4.018   9.992 -0.3055  0.0952  0.6299
14555SOL     OW48511   4.433   6.218   0.862 -0.0366 -0.4163  0.1017
14555SOL    HW148512   4.379   6.265   0.798  0.7339  0.3052 -0.0277
14555SOL    HW248513   4.419   6.125   0.842 -0.2977 -0.2091 -0.7019
14556SOL     OW48514   3.225   7.260   1.651  0.1691 -1.1433 -0.1933
14556SOL    HW148515   3.265   7.344   1.673 -1.0574 -0.6529  0.2103
14556SOL    HW248516   3.185   7.231   1.733  1.4578 -2.6204 -0.0604
14557SOL     OW48517   5.213   6.887   2.433  0.2894  0.2079 -0.4827
14557SOL    HW148518   5.131   6.864   2.389 -0.1456 -0.5584  0.7329
14557SOL    HW248519   5.187   6.948   2.502  0.3706 -2.0510  1.6126
14558SOL     OW48520   4.563   8.285   0.884 -0.1059  0.2384  0.2035
14558SOL    HW148521   4.587   8.261   0.974  1.1451 -2.2897 -0.7594
14558SOL    HW248522   4.478   8.244   0.870  0.0824 -0.0678 -0.0418
14559SOL     OW48523   4.015   8.569   0.855  0.4932  0.6344 -0.6365
14559SOL    HW148524   4.024   8.476   0.878  0.6903  1.0100  0.8411
14559SOL    HW248525   3.992   8.568   0.762 -2.0181 -1.0052 -0.0618
14560SOL     OW48526   4.761   4.610   9.260  0.3292 -1.1377 -0.4865
14560SOL    HW148527   4.805   4.594   9.343 -1.1344 -0.1355  0.4879
14560SOL    HW248528   4.778   4.702   9.241 -0.5382 -0.9980 -0.5901
14561SOL     OW48529   3.715   6.083   2.191  0.3237  0.0289 -0.4534
14561SOL    HW148530   3.768   6.011   2.224  0.1629  0.6289  1.1594
14561SOL    HW248531   3.774   6.133   2.134 -0.4765 -3.2531 -4.4231
14562SOL     OW48532   2.835   7.987   0.015 -0.6684  0.0608  0.3251
14562SOL    HW148533   2.853   8.080  -0.000  0.8199 -0.4341 -1.0305
14562SOL    HW248534   2.769   7.987   0.084 -0.3855  2.1175  0.6358
14563SOL     OW48535   5.930   7.551   0.065  0.3747 -0.1406 -0.3064
14563SOL    HW148536   5.868   7.528   0.134  0.5067 -0.1374 -0.1855
14563SOL    HW248537   5.994   7.480   0.066  0.5318  0.0015 -0.2367
14564SOL     OW48538   5.668   7.804   0.521 -0.2139  0.3388  0.6278
14564SOL    HW148539   5.638   7.728   0.572  0.2177 -1.4282 -1.6981
14564SOL    HW248540   5.671   7.773   0.431 -1.6965  3.6484 -0.6226
14565SOL     OW48541   3.649   6.877   1.231  0.5088 -0.5314 -0.3706
14565SOL    HW148542   3.597   6.956   1.245  0.1342 -0.4992 -1.8223
14565SOL    HW248543   3.737   6.900   1.261 -0.1669 -0.4171  1.6284
14566SOL     OW48544   3.209   7.465   0.747  0.5893  0.6813 -0.0041
14566SOL    HW148545   3.182   7.427   0.664  1.3404 -1.6780  0.7814
14566SOL    HW248546   3.283   7.522   0.724  2.9991 -2.5038 -0.6427
14567SOL     OW48547   4.056   7.259   1.453  0.5055 -0.6693 -0.0015
14567SOL    HW148548   3.987   7.324   1.466 -0.1349 -1.4885  0.7476
14567SOL    HW248549   4.131   7.294   1.502  1.6429  1.7197 -3.2514
14568SOL     OW48550   5.177   7.198   9.397  0.3611 -0.3988 -0.4459
14568SOL    HW148551   5.188   7.289   9.371 -2.0137  0.0616  0.0098
14568SOL    HW248552   5.153   7.153   9.315 -0.5478 -0.1898 -0.3072
14569SOL     OW48553   4.402   8.001   0.351  0.2679 -0.1222 -0.2802
14569SOL    HW148554   4.456   7.944   0.297  0.1526 -0.2049 -0.3086
14569SOL    HW248555   4.465   8.052   0.403  0.3590 -0.8203  0.3081
14570SOL     OW48556   4.472   7.264   1.080  0.6855 -0.3244 -0.0306
14570SOL    HW148557   4.419   7.326   1.131  0.1694 -0.9444  0.2051
14570SOL    HW248558   4.488   7.309   0.997 -0.3844 -0.1952 -0.1836
14571SOL     OW48559   4.713   7.821   1.762 -0.1339 -0.0338  0.4169
14571SOL    HW148560   4.783   7.761   1.737 -0.7926 -1.2181  1.3338
14571SOL    HW248561   4.757   7.891   1.810  0.3543 -1.1538  1.6340
14572SOL     OW48562   5.848   7.513   8.982  0.2643  0.4076 -0.5149
14572SOL    HW148563   5.920   7.553   9.031  0.1751  0.0255 -0.0667
14572SOL    HW248564   5.860   7.544   8.892  4.0538 -3.7243 -1.6097
14573SOL     OW48565   5.570   6.781   1.281 -0.6423  0.4499 -0.3114
14573SOL    HW148566   5.596   6.795   1.189 -0.3393  0.1301 -0.2720
14573SOL    HW248567   5.549   6.688   1.286 -0.4205  0.4185  0.0054
14574SOL     OW48568   5.476   7.112   0.706  0.4537 -0.3671 -0.0706
14574SOL    HW148569   5.457   7.206   0.709 -0.1361 -0.4900  0.1350
14574SOL    HW248570   5.482   7.091   0.613  0.9518 -0.0535 -0.1106
14575SOL     OW48571   5.624   8.069   1.133  0.2127 -0.2448  0.2857
14575SOL    HW148572   5.544   8.105   1.095  0.1287  0.8384  1.4697
14575SOL    HW248573   5.607   7.975   1.140  0.9372 -0.8505 -4.0946
14576SOL     OW48574   2.103   4.876   2.458 -0.3428 -0.4118  0.6988
14576SOL    HW148575   2.040   4.946   2.444  2.2142  1.9858  0.8492
14576SOL    HW248576   2.052   4.806   2.499 -3.5070  0.3157 -1.7716
14577SOL     OW48577   4.358   6.718   1.557 -0.2884 -0.1257 -0.2435
14577SOL    HW148578   4.399   6.700   1.472  1.3902  1.2018  0.2522
14577SOL    HW248579   4.431   6.730   1.617 -1.4612 -0.7960  1.3478
14578SOL     OW48580   3.037   7.230   2.552 -0.3313 -0.0909  0.3339
14578SOL    HW148581   3.112   7.278   2.515 -1.0509  1.5166  0.9123
14578SOL    HW248582   3.071   7.191   2.632  0.2015 -0.3683 -0.0212
14579SOL     OW48583   7.258   6.513   9.257  0.3836  0.1258  0.1479
14579SOL    HW148584   7.185   6.564   9.222  0.4623 -0.1258 -0.3868
14579SOL    HW248585   7.245   6.514   9.352 -0.1163  0.3797  0.0780
14580SOL     OW48586   2.186   5.787   1.733  0.4233  0.6266 -0.1311
14580SOL    HW148587   2.133   5.764   1.657 -0.4557  1.2866  0.2775
14580SOL    HW248588   2.141   5.861   1.773  0.1355 -0.5275  1.7745
14581SOL     OW48589   3.506   6.513   1.011  0.4874 -0.2901 -0.4863
14581SOL    HW148590   3.505   6.529   1.106  1.6089  0.1869 -0.5388
14581SOL    HW248591   3.561   6.583   0.976 -0.0934 -0.3415 -1.5210
14582SOL     OW48592   4.341   8.156   2.304 -0.0852  0.0172 -0.2804
14582SOL    HW148593   4.358   8.094   2.233 -0.1305  0.1715 -0.4243
14582SOL    HW248594   4.427   8.186   2.331  0.0907 -1.6590  1.1701
14583SOL     OW48595   5.043   8.097   2.019  0.0516 -0.1216 -0.2467
14583SOL    HW148596   5.110   8.029   2.022 -1.0197 -1.1362  1.0844
14583SOL    HW248597   5.078   8.163   1.959  1.2448 -1.6840 -1.2820
14584SOL     OW48598   5.596   7.417   1.110  0.1671  0.7560 -0.1596
14584SOL    HW148599   5.554   7.355   1.050 -0.6444  0.7494  0.4027
14584SOL    HW248600   5.649   7.473   1.053 -1.7274  1.6745 -1.0776
14585SOL     OW48601   4.957   6.428   0.506  0.1898  0.1888  0.0317
14585SOL    HW148602   5.043   6.388   0.512 -0.3507 -0.9885  0.1062
14585SOL    HW248603   4.969   6.518   0.536  1.2525 -0.1618  0.6439
14586SOL     OW48604   7.562   6.148   0.736  0.1566 -0.1109  0.1973
14586SOL    HW148605   7.613   6.207   0.681  1.6085 -0.0852  1.5347
14586SOL    HW248606   7.471   6.168   0.715  0.6674  0.8601 -1.1692
14587SOL     OW48607   4.737   6.268   9.949  0.4743  0.2945  0.1159
14587SOL    HW148608   4.753   6.211  10.025  1.2068 -1.4131 -1.2832
14587SOL    HW248609   4.661   6.321   9.974 -0.0608 -1.1208  1.5605
14588SOL     OW48610   4.458   6.834   0.399 -0.2419 -0.4307 -0.3902
14588SOL    HW148611   4.507   6.908   0.366 -0.9778 -0.7202 -2.1591
14588SOL    HW248612   4.373   6.839   0.355 -0.7121 -1.6623  0.3352
14589SOL     OW48613   4.204   8.094   2.554 -0.1317 -0.3297 -0.3991
14589SOL    HW148614   4.285   8.080   2.603  0.0149 -0.3657 -0.6525
14589SOL    HW248615   4.233   8.118   2.466 -0.3906  0.2846 -0.3238
14590SOL     OW48616   3.951   6.277   0.625 -0.6657  0.0979  1.0892
14590SOL    HW148617   3.917   6.331   0.554  1.0057  0.1438  0.2962
14590SOL    HW248618   3.931   6.327   0.705 -1.2248  0.7676  0.5370
14591SOL     OW48619   3.203   7.678   4.171  0.9243 -0.2659 -0.4250
14591SOL    HW148620   3.117   7.718   4.155  0.3762 -0.8924  0.8878
14591SOL    HW248621   3.206   7.604   4.111  0.2518 -0.6573  0.0150
14592SOL     OW48622   3.288   7.561   3.156 -0.2212 -0.3343 -0.4863
14592SOL    HW148623   3.197   7.576   3.133 -0.0301  0.6986 -0.6173
14592SOL    HW248624   3.296   7.594   3.245 -0.5266 -2.6279  0.4291
14593SOL     OW48625   3.775   7.767   9.512 -0.2601 -0.2882  0.1832
14593SOL    HW148626   3.870   7.757   9.511 -0.3161 -0.8721  1.0478
14593SOL    HW248627   3.760   7.849   9.559 -0.1972 -0.3006  0.2255
14594SOL     OW48628   3.100   5.711   0.807  0.6592 -0.0531 -0.1716
14594SOL    HW148629   3.098   5.663   0.889 -0.9768 -1.2019 -0.8544
14594SOL    HW248630   3.011   5.747   0.798  1.4547  1.9236 -0.3665
14595SOL     OW48631   5.006   7.706   9.273  0.5750 -0.0611 -0.6386
14595SOL    HW148632   5.054   7.683   9.352 -1.1159 -0.7661  0.2163
14595SOL    HW248633   5.073   7.712   9.205  2.2564  2.2598  1.1723
14596SOL     OW48634   4.063   8.930   9.890 -0.1092  0.1521 -0.3500
14596SOL    HW148635   4.008   8.950   9.814 -0.4150 -0.9555 -0.4253
14596SOL    HW248636   4.146   8.973   9.871 -1.6889  4.0015  0.8914
14597SOL     OW48637   4.023   6.471   0.990 -0.4112  0.3387  0.3055
14597SOL    HW148638   4.004   6.559   1.023 -2.3540  0.0832 -0.0925
14597SOL    HW248639   3.962   6.458   0.918  0.4503 -1.0106 -0.2033
14598SOL     OW48640   3.682   8.439   1.994 -0.3332 -0.1730 -0.0212
14598SOL    HW148641   3.733   8.463   1.917 -1.0377 -1.4280 -0.9054
14598SOL    HW248642   3.613   8.381   1.960 -0.3611 -1.1332  1.6068
14599SOL     OW48643   5.418   7.874   0.676  0.2394  0.4394  0.0704
14599SOL    HW148644   5.360   7.929   0.622 -2.0208 -1.4418  0.5218
14599SOL    HW248645   5.490   7.851   0.617  0.2875  2.3495 -0.6775
14600SOL     OW48646   4.045   7.384   9.239 -0.1234 -0.1515  0.1972
14600SOL    HW148647   4.074   7.387   9.330  1.4180 -1.4292 -0.2413
14600SOL    HW248648   4.012   7.295   9.227  2.7280 -1.0505 -1.3820
14601SOL     OW48649   4.096   6.152   2.203  0.0175  0.2128  0.0448
14601SOL    HW148650   4.045   6.211   2.147 -1.4640 -2.0577 -1.0801
14601SOL    HW248651   4.044   6.143   2.283  0.2489  0.4610  0.2224
14602SOL     OW48652   3.466   4.848   0.492 -0.0241  0.9226  0.9415
14602SOL    HW148653   3.480   4.849   0.397 -1.7754  2.9997  0.6702
14602SOL    HW248654   3.522   4.776   0.524 -0.6909 -0.8989 -1.8270
14603SOL     OW48655   5.205   6.360   1.123  0.5446 -0.3478  0.4017
14603SOL    HW148656   5.185   6.423   1.191 -0.5199 -0.8351  0.5408
14603SOL    HW248657   5.182   6.404   1.041 -2.4461 -1.3636  0.6209
14604SOL     OW48658   4.687   7.566   1.942 -0.0856 -0.6243  0.6432
14604SOL    HW148659   4.647   7.493   1.987 -0.3810 -0.2824  0.9409
14604SOL    HW248660   4.642   7.643   1.976  0.7848 -0.2360  0.9485
14605SOL     OW48661   5.135   5.969   2.343 -0.3379  0.3682 -0.2442
14605SOL    HW148662   5.056   5.990   2.293 -0.7902 -0.1320  0.2668
14605SOL    HW248663   5.156   5.879   2.318  1.3808  1.2126 -2.1306
14606SOL     OW48664   3.843   6.214   1.333 -0.5462 -0.2688 -0.1566
14606SOL    HW148665   3.805   6.193   1.247 -0.0572 -0.8310 -0.2376
14606SOL    HW248666   3.909   6.280   1.314 -2.1664  1.4747  0.1131
14607SOL     OW48667   6.447   5.535   1.429  0.1949 -0.0386 -0.6686
14607SOL    HW148668   6.467   5.442   1.426  2.0523  0.3320 -0.4857
14607SOL    HW248669   6.410   5.555   1.343  0.9434 -0.7092 -1.1508
14608SOL     OW48670   3.839   5.419   1.385 -0.4786 -0.2776 -0.3621
14608SOL    HW148671   3.785   5.373   1.321  0.3133 -3.3708  1.0872
14608SOL    HW248672   3.818   5.377   1.469  0.0289  2.2848  1.0767
14609SOL     OW48673   5.276   5.355   0.980 -0.1357  0.1017  0.3744
14609SOL    HW148674   5.368   5.336   0.967 -0.1226  0.3732  0.0779
14609SOL    HW248675   5.244   5.383   0.894 -0.2135  1.1682  0.7372
14610SOL     OW48676   5.649   6.934   1.968  0.4309  0.0934  0.1394
14610SOL    HW148677   5.717   7.001   1.979  0.5374  0.2038 -1.1511
14610SOL    HW248678   5.697   6.852   1.959  0.4483  0.3187 -1.9246
14611SOL     OW48679   5.335   6.851   0.692  0.4899  0.5099  0.3033
14611SOL    HW148680   5.366   6.795   0.620 -2.3998 -0.5386 -0.1765
14611SOL    HW248681   5.403   6.918   0.701  3.6067 -2.5453  0.3130
14612SOL     OW48682   7.433   6.702   3.353 -0.1878 -0.1265 -0.5870
14612SOL    HW148683   7.379   6.727   3.427  0.2843 -0.8796  0.0197
14612SOL    HW248684   7.511   6.758   3.359  0.6268 -1.3493  0.4675
14613SOL     OW48685   4.487   5.931   9.688 -0.0759 -0.1469 -0.0259
14613SOL    HW148686   4.462   5.994   9.621 -0.5710  0.5754  0.8385
14613SOL    HW248687   4.412   5.872   9.695  0.1282 -0.4533 -0.3695
14614SOL     OW48688   5.042   7.985   0.592 -0.3507 -0.0683 -0.4809
14614SOL    HW148689   5.029   7.946   0.505  1.8709 -2.6339  0.2659
14614SOL    HW248690   5.016   7.916   0.653 -1.6216  1.6111  0.9311
14615SOL     OW48691   4.998   5.073   0.811  0.1754  0.2861 -0.5044
14615SOL    HW148692   4.957   5.025   0.739 -1.4178  0.2708  0.3832
14615SOL    HW248693   5.080   5.027   0.826 -1.4488 -2.4141  0.5320
14616SOL     OW48694   2.812   6.439   1.531 -0.1692 -0.4886 -0.0184
14616SOL    HW148695   2.817   6.390   1.449  1.1732  0.8468 -0.7712
14616SOL    HW248696   2.766   6.381   1.592  0.4983 -2.2469 -1.1691
14617SOL     OW48697   3.509   5.530   1.377  0.0614  0.3744 -0.3005
14617SOL    HW148698   3.534   5.592   1.445  1.6398 -0.5049 -0.0550
14617SOL    HW248699   3.518   5.579   1.295 -0.1142  0.9053  0.0015
14618SOL     OW48700   4.316   3.895   8.703  0.1314 -0.2715  0.0092
14618SOL    HW148701   4.298   3.988   8.692 -0.2151 -0.2608  0.6724
14618SOL    HW248702   4.408   3.891   8.730  0.1597 -0.1231 -0.0682
14619SOL     OW48703   5.981   6.852   0.657  0.0483 -0.1351  0.8709
14619SOL    HW148704   5.983   6.757   0.651 -1.2672 -0.0900 -0.9527
14619SOL    HW248705   6.006   6.882   0.569 -0.7154  1.1742  1.0849
14620SOL     OW48706   3.260   5.310   2.134 -0.5625  0.0175 -0.0120
14620SOL    HW148707   3.195   5.324   2.065  1.8313  0.0087 -2.3460
14620SOL    HW248708   3.309   5.393   2.137 -0.9883  0.2177  2.0935
14621SOL     OW48709   5.829   5.229   0.501 -0.7052  0.3700  0.5731
14621SOL    HW148710   5.911   5.203   0.543 -0.8450  0.6853  1.0430
14621SOL    HW248711   5.846   5.218   0.407 -1.0747 -2.2647  0.7980
14622SOL     OW48712   4.547   6.291   0.220 -0.0751  0.1530  0.4535
14622SOL    HW148713   4.634   6.319   0.248 -0.2274  0.6773  0.4065
14622SOL    HW248714   4.520   6.356   0.155 -0.4630 -0.0621  0.3943
14623SOL     OW48715   3.647   7.241   9.805 -0.3980  0.1816 -0.0418
14623SOL    HW148716   3.709   7.182   9.759  0.4444  0.8226  0.2577
14623SOL    HW248717   3.685   7.251   9.892 -0.8589  0.6922  0.0965
14624SOL     OW48718   3.165   7.566   9.578  0.1055  0.1152  0.2308
14624SOL    HW148719   3.074   7.587   9.601  0.3039  1.1224  0.1478
14624SOL    HW248720   3.193   7.503   9.644 -0.5389  0.0864  0.4799
14625SOL     OW48721   4.509   7.400   0.841  0.0795  0.1391 -0.7413
14625SOL    HW148722   4.442   7.375   0.777  0.1051 -0.2717 -0.6106
14625SOL    HW248723   4.533   7.489   0.816  0.4227 -0.1834 -1.5888
14626SOL     OW48724   4.820   7.611   2.531  0.2491 -0.4213  0.1042
14626SOL    HW148725   4.831   7.706   2.526 -0.4256 -0.3158  0.6288
14626SOL    HW248726   4.781   7.587   2.447  0.5897 -0.2631 -0.1030
14627SOL     OW48727   4.917   7.122   1.426  0.7965 -0.1474 -0.2465
14627SOL    HW148728   4.835   7.165   1.400  0.4210 -2.5833 -3.2161
14627SOL    HW248729   4.910   7.116   1.522 -1.7245  1.1550 -0.2834
14628SOL     OW48730   3.025   7.486   0.997 -0.3492 -0.5310  0.1482
14628SOL    HW148731   3.068   7.445   1.072  0.1023 -1.8525 -0.8292
14628SOL    HW248732   3.078   7.461   0.922 -0.6302  1.0335 -0.6021
14629SOL     OW48733   2.460   6.953   0.404  0.1422  0.4157  0.9069
14629SOL    HW148734   2.430   6.984   0.319 -0.5450 -0.5709  0.7898
14629SOL    HW248735   2.556   6.963   0.401  0.1941 -0.4237 -0.2917
14630SOL     OW48736   6.330   6.575   0.855 -0.0995  0.1078 -0.0188
14630SOL    HW148737   6.402   6.536   0.805  1.2347  0.4336  1.6066
14630SOL    HW248738   6.289   6.636   0.794  0.4786 -0.7012 -1.2327
14631SOL     OW48739   3.294   5.856   1.277  0.0628  0.1304 -0.1086
14631SOL    HW148740   3.292   5.905   1.195 -0.8648  1.0823  0.4724
14631SOL    HW248741   3.354   5.904   1.333  1.6419 -1.1898 -0.6223
14632SOL     OW48742   2.851   5.942   0.953 -0.1388  0.4203 -0.2844
14632SOL    HW148743   2.882   5.890   1.027 -3.5373  0.1060  1.0325
14632SOL    HW248744   2.814   5.878   0.892 -2.2863  1.0694  0.2977
14633SOL     OW48745   6.992   5.262   2.632 -0.2697  0.1574  0.2958
14633SOL    HW148746   6.922   5.274   2.568 -0.0710  1.5970  0.3193
14633SOL    HW248747   7.008   5.350   2.666  0.3171 -0.4334  1.6013
14634SOL     OW48748   2.992   7.248   4.496 -0.0211  0.1762  0.4462
14634SOL    HW148749   2.937   7.190   4.548  0.9160 -1.2969 -0.1698
14634SOL    HW248750   3.078   7.247   4.539 -0.2822  2.0013  1.0699
14635SOL     OW48751   3.751   6.800   1.985  0.3000  0.2047  0.0984
14635SOL    HW148752   3.800   6.758   2.056  0.4768 -2.2986 -1.4167
14635SOL    HW248753   3.814   6.805   1.913 -0.5706  0.4872 -0.6486
14636SOL     OW48754   6.034   6.344   9.957 -0.0090  0.1325  0.0754
14636SOL    HW148755   6.011   6.394  10.036 -2.3365 -1.2017  0.2676
14636SOL    HW248756   5.951   6.313   9.923  1.0921 -0.3442 -2.2538
14637SOL     OW48757   4.501   9.068   0.180 -0.0215  0.8502 -0.5293
14637SOL    HW148758   4.548   9.149   0.156 -0.1017  0.9869 -0.2228
14637SOL    HW248759   4.450   9.092   0.257 -0.1379  0.5365 -0.5096
14638SOL     OW48760   6.352   6.595   0.457  0.4172  0.3927  0.1386
14638SOL    HW148761   6.367   6.506   0.424  0.4639  1.2414 -2.1862
14638SOL    HW248762   6.435   6.619   0.498  0.5261 -0.4994  0.4471
14639SOL     OW48763   4.186   7.401   3.726 -0.4021 -0.1836 -0.0963
14639SOL    HW148764   4.129   7.449   3.786  0.3061  0.5694 -0.0112
14639SOL    HW248765   4.164   7.309   3.739  0.8440 -0.1454  2.4725
14640SOL     OW48766   4.352   6.986   1.886  0.7584 -0.0967  0.3534
14640SOL    HW148767   4.443   7.010   1.866  0.3396  0.2066 -1.2510
14640SOL    HW248768   4.299   7.050   1.839 -0.2999 -0.2132  1.3671
14641SOL     OW48769   6.085   5.820   0.753 -0.0387  0.4213 -0.2445
14641SOL    HW148770   6.137   5.881   0.700  0.5233 -0.0019 -0.1890
14641SOL    HW248771   6.115   5.836   0.843  1.1496 -0.9207 -0.3736
14642SOL     OW48772   4.746   3.662   1.967 -0.4908  0.5319  0.1201
14642SOL    HW148773   4.701   3.745   1.986 -0.1290  0.9676 -0.9189
14642SOL    HW248774   4.718   3.639   1.879 -0.1761 -0.1936  0.2047
14643SOL     OW48775   3.222   6.222   3.013 -0.3945  0.0006 -0.6544
14643SOL    HW148776   3.278   6.244   2.938 -0.1305 -0.1367 -0.4981
14643SOL    HW248777   3.166   6.151   2.981 -0.4753  0.1353 -0.8096
14644SOL     OW48778   4.720   6.316   0.607 -0.3441  0.1663 -0.0139
14644SOL    HW148779   4.780   6.384   0.575 -0.3523  0.3327  0.3285
14644SOL    HW248780   4.721   6.250   0.538 -0.8115  0.8073 -0.6427
14645SOL     OW48781   5.171   6.829   2.104 -0.0626 -0.7236 -0.0476
14645SOL    HW148782   5.147   6.802   2.193 -1.7983 -1.3239 -0.6756
14645SOL    HW248783   5.098   6.882   2.074  1.5412  1.4319 -0.3061
14646SOL     OW48784   3.389   4.384   1.800  0.5008  0.4283  0.4835
14646SOL    HW148785   3.467   4.400   1.746 -0.7025 -0.0987 -1.4561
14646SOL    HW248786   3.347   4.308   1.759 -1.1326  0.8113  1.4062
14647SOL     OW48787   1.950   7.470   0.941  0.6534 -0.3360 -0.3035
14647SOL    HW148788   2.018   7.488   0.876  0.2788  1.8686 -0.1448
14647SOL    HW248789   1.995   7.476   1.025  0.6810 -0.9647 -0.2712
14648SOL     OW48790   4.237   5.972   2.749  0.0399 -0.5963  0.7659
14648SOL    HW148791   4.145   5.998   2.739  0.4124  0.2014 -0.7315
14648SOL    HW248792   4.233   5.878   2.768 -0.9570 -1.5365 -3.5083
14649SOL     OW48793   6.191   8.498   2.049  0.0926 -0.5280 -0.2768
14649SOL    HW148794   6.205   8.568   2.112 -0.7805  1.1711 -1.9386
14649SOL    HW248795   6.102   8.468   2.067 -0.3442  0.3030 -1.0203
14650SOL     OW48796   4.296   4.554   9.823 -0.1310  0.1695 -0.2169
14650SOL    HW148797   4.275   4.563   9.730  1.8779  0.6213 -0.6560
14650SOL    HW248798   4.301   4.459   9.838  0.6885  0.1175 -0.8348
14651SOL     OW48799   6.191   5.033   1.320 -0.1501  0.4135 -0.3297
14651SOL    HW148800   6.159   5.010   1.233  0.9729  3.0129 -1.4810
14651SOL    HW248801   6.285   5.046   1.308  0.1434  0.0720  1.4438
14652SOL     OW48802   5.134   6.198   1.449  0.4657  0.1190  0.2434
14652SOL    HW148803   5.206   6.247   1.489 -0.1162  0.2766  1.1121
14652SOL    HW248804   5.055   6.240   1.482 -0.0327 -0.4733 -0.1786
14653SOL     OW48805   4.369   7.492   1.228  0.6899  0.2513 -0.0241
14653SOL    HW148806   4.420   7.573   1.215  1.6878 -0.6065 -1.7615
14653SOL    HW248807   4.290   7.505   1.176  0.1549  0.7096  0.9056
14654SOL     OW48808   3.529   7.928   1.354  0.2592  0.1410 -0.6488
14654SOL    HW148809   3.494   8.014   1.330  0.6903  0.5192  0.0842
14654SOL    HW248810   3.522   7.876   1.273 -0.3463  0.7447 -0.9898
14655SOL     OW48811   3.205   6.413   1.577 -0.1272  0.0998  0.1571
14655SOL    HW148812   3.242   6.493   1.614 -1.0158  1.0957 -1.0692
14655SOL    HW248813   3.272   6.381   1.516 -0.1461  0.3893 -0.0145
14656SOL     OW48814   2.637   6.869   1.276 -0.2183  0.4716 -0.0441
14656SOL    HW148815   2.606   6.796   1.330  1.7382 -0.8995 -0.7289
14656SOL    HW248816   2.695   6.919   1.334  0.3056  0.1386 -0.2827
14657SOL     OW48817   4.304   7.235   2.519  0.3735 -0.2817 -0.6306
14657SOL    HW148818   4.361   7.198   2.587  0.6663 -0.8999 -1.2023
14657SOL    HW248819   4.229   7.270   2.567  0.8439 -0.2109  0.0600
14658SOL     OW48820   3.063   5.910   1.463  0.3422  0.1266  0.5708
14658SOL    HW148821   3.119   5.857   1.405  0.4609 -0.1705  0.9559
14658SOL    HW248822   3.117   5.986   1.486 -0.3281  1.1539 -1.1294
14659SOL     OW48823   5.033   4.535   2.514  0.3229  0.4082 -0.1348
14659SOL    HW148824   5.090   4.516   2.589  0.9254  1.8636 -0.2066
14659SOL    HW248825   5.091   4.579   2.451 -0.6416  0.9999 -0.6227
14660SOL     OW48826   2.790   5.794   0.033 -0.2087  0.4217 -0.4097
14660SOL    HW148827   2.804   5.778  -0.060 -0.9393  1.2310 -0.6558
14660SOL    HW248828   2.868   5.758   0.075  0.0061 -0.1695 -1.3111
14661SOL     OW48829   2.697   7.507   1.012 -0.2263 -0.0537  0.5630
14661SOL    HW148830   2.630   7.559   1.055  1.1419  1.4869  0.8887
14661SOL    HW248831   2.775   7.518   1.068  0.1144 -2.3831  0.5969
14662SOL     OW48832   3.592   6.466   0.622  0.1421 -0.4550  0.4579
14662SOL    HW148833   3.642   6.545   0.600  0.5858 -0.5947  0.9541
14662SOL    HW248834   3.535   6.452   0.546 -1.3464  1.4494  1.1664
14663SOL     OW48835   5.168   8.441   0.617 -0.1985  0.1799  0.0055
14663SOL    HW148836   5.190   8.353   0.584 -0.9807 -0.2821  0.7067
14663SOL    HW248837   5.187   8.437   0.711 -0.3235  0.7325  0.0577
14664SOL     OW48838   3.934   8.226   2.583 -0.0537 -0.2614 -0.9251
14664SOL    HW148839   4.015   8.176   2.589 -0.5327 -1.1262 -1.5094
14664SOL    HW248840   3.941   8.292   2.651  1.7647  0.5837 -1.9101
14665SOL     OW48841   3.672   5.834   2.514  0.2804 -0.7490  0.1259
14665SOL    HW148842   3.711   5.751   2.542 -0.1117  0.0532  3.2482
14665SOL    HW248843   3.619   5.862   2.588 -0.5626  1.7070 -1.3432
14666SOL     OW48844   4.402   7.814   0.963 -0.6459 -0.1943  0.9366
14666SOL    HW148845   4.370   7.727   0.938 -0.8621 -0.0866  0.8429
14666SOL    HW248846   4.435   7.802   1.052 -0.6688 -0.3754  0.9212
14667SOL     OW48847   6.226   5.610   9.254  0.1569 -0.6093  0.1596
14667SOL    HW148848   6.267   5.685   9.297  2.3126 -2.1913  0.9142
14667SOL    HW248849   6.234   5.539   9.317 -0.3296 -1.9129 -1.2329
14668SOL     OW48850   4.831   6.891   2.093  0.0530 -0.3420  0.0959
14668SOL    HW148851   4.741   6.914   2.116  0.1999  0.2237  0.1060
14668SOL    HW248852   4.824   6.844   2.010 -0.4442 -2.0545  1.0875
14669SOL     OW48853   4.666   7.500   1.345 -0.1408  0.1116 -0.2934
14669SOL    HW148854   4.674   7.489   1.250  0.1214  0.0570 -0.2645
14669SOL    HW248855   4.756   7.506   1.376 -0.2518  1.3796 -0.2014
14670SOL     OW48856   3.818   7.238   1.191 -0.4854  0.8122 -0.8780
14670SOL    HW148857   3.767   7.223   1.112  0.6560  0.6844 -1.6022
14670SOL    HW248858   3.877   7.309   1.169 -0.1840  0.8021 -0.1288
14671SOL     OW48859   5.584   6.893   2.671  0.1557 -0.4726 -0.2917
14671SOL    HW148860   5.593   6.869   2.763 -2.6339  1.9813  0.6722
14671SOL    HW248861   5.629   6.978   2.664  0.9270 -0.9500 -1.3818
14672SOL     OW48862   4.537   6.022   0.332  0.3685 -0.1861  0.1559
14672SOL    HW148863   4.628   6.040   0.352  0.2606 -0.2601  0.7440
14672SOL    HW248864   4.498   6.107   0.316  0.5314 -0.1508 -0.0436
14673SOL     OW48865   3.293   6.962   2.024  0.3236 -0.3806  0.2711
14673SOL    HW148866   3.260   6.899   1.960  0.0088  1.3789 -1.3575
14673SOL    HW248867   3.360   7.012   1.976  1.7783 -0.5841  2.0383
14674SOL     OW48868   3.423   6.988   3.214 -0.1810  0.6458  0.0107
14674SOL    HW148869   3.393   7.010   3.126 -0.0497  0.7059 -0.0198
14674SOL    HW248870   3.500   7.044   3.228  0.6312 -0.3432 -0.3758
14675SOL     OW48871   3.814   7.163   1.751 -1.0788 -0.0305  0.5519
14675SOL    HW148872   3.784   7.240   1.799 -0.5804 -0.0544  0.9109
14675SOL    HW248873   3.801   7.185   1.659 -1.0925  0.4167  0.6584
14676SOL     OW48874   4.307   7.448   1.912  0.5476 -0.0553 -0.3296
14676SOL    HW148875   4.223   7.404   1.903  0.3254  0.5897 -1.5326
14676SOL    HW248876   4.304   7.488   1.999 -1.5609  2.3166 -1.4003
14677SOL     OW48877   2.997   4.928   1.181  0.9564 -0.1104 -0.2915
14677SOL    HW148878   2.960   4.993   1.240  1.7510  0.3837 -0.3369
14677SOL    HW248879   2.985   4.965   1.093  2.7475  0.6616 -0.2248
14678SOL     OW48880   1.595   6.591   1.980  0.0901 -0.3815 -0.2226
14678SOL    HW148881   1.520   6.640   1.945 -0.3042  0.2906  1.4979
14678SOL    HW248882   1.671   6.639   1.949 -0.2531  0.1009 -0.3276
14679SOL     OW48883   4.237   4.017   0.131  0.2474 -0.1870  0.6624
14679SOL    HW148884   4.284   4.046   0.053  0.5557 -1.1478  0.4852
14679SOL    HW248885   4.155   3.981   0.097 -0.0225  0.2371  0.8606
14680SOL     OW48886   4.424   8.050   0.844 -0.4686 -0.4005  0.1980
14680SOL    HW148887   4.334   8.040   0.814  0.1644 -2.1683 -1.2314
14680SOL    HW248888   4.440   7.974   0.900  0.7962 -1.3464 -1.3789
14681SOL     OW48889   3.544   5.723   1.582  0.2664  0.1027  0.2232
14681SOL    HW148890   3.505   5.703   1.668  0.1841 -0.4565  0.0563
14681SOL    HW248891   3.570   5.815   1.589  1.4146 -0.2905  1.2859
14682SOL     OW48892   1.971   6.584   1.873  0.1139 -0.6024 -0.4535
14682SOL    HW148893   1.957   6.489   1.867  2.1244 -0.9916  0.6535
14682SOL    HW248894   1.990   6.600   1.965 -1.0627  1.0224 -0.4683
14683SOL     OW48895   4.565   7.801   9.803  0.0445  0.0213 -0.1225
14683SOL    HW148896   4.469   7.798   9.804  0.0557 -0.3587  1.3346
14683SOL    HW248897   4.587   7.876   9.859  0.5851  0.4986 -0.9776
14684SOL     OW48898   3.049   7.904   1.831 -0.1439  0.4477 -1.0396
14684SOL    HW148899   2.986   7.832   1.838 -2.0700  2.1429 -0.6518
14684SOL    HW248900   3.048   7.927   1.738  1.8757 -1.2317 -1.5062
14685SOL     OW48901   4.396   7.115   0.346 -0.0606  0.0635  0.4795
14685SOL    HW148902   4.362   7.025   0.344  0.2173 -0.0299 -0.2351
14685SOL    HW248903   4.344   7.161   0.280  0.3152  0.2449  0.3132
14686SOL     OW48904   5.549   7.778   2.355  0.1349 -0.6552 -0.3143
14686SOL    HW148905   5.556   7.775   2.259 -0.3991 -1.0093 -0.3488
14686SOL    HW248906   5.628   7.736   2.387 -0.7759 -2.6842 -0.6383
14687SOL     OW48907   4.198   3.966   0.874 -0.0312  0.3715 -0.6242
14687SOL    HW148908   4.110   3.933   0.889  0.4407 -1.0714 -0.9074
14687SOL    HW248909   4.213   3.950   0.780 -0.1933  2.4057 -1.0093
14688SOL     OW48910   7.497   5.624   0.074  0.5063 -0.1167  0.0562
14688SOL    HW148911   7.471   5.595  -0.013  0.5535 -0.1209  0.0438
14688SOL    HW248912   7.415   5.649   0.116  0.6842  1.5111 -0.5676
14689SOL     OW48913   3.683   4.259   1.827  0.3322  0.3690 -0.3725
14689SOL    HW148914   3.769   4.257   1.785  0.4904  0.0302 -0.0380
14689SOL    HW248915   3.623   4.290   1.759  0.6783  0.3635 -0.6792
14690SOL     OW48916   5.658   5.280   1.153  0.4461  0.4380 -0.2480
14690SOL    HW148917   5.742   5.237   1.167  0.3717 -0.3873 -2.1512
14690SOL    HW248918   5.679   5.358   1.101  0.3011  1.4673  1.2185
14691SOL     OW48919   5.193   7.931   9.949  0.6732 -0.6831  0.2627
14691SOL    HW148920   5.150   8.011   9.980 -0.2787 -1.0750 -0.0313
14691SOL    HW248921   5.171   7.927   9.856  2.1790 -0.3684 -0.1098
14692SOL     OW48922   3.260   6.084   0.214 -1.1656 -0.5405  0.0010
14692SOL    HW148923   3.240   5.991   0.206  1.0231 -0.9391 -1.2643
14692SOL    HW248924   3.225   6.123   0.134  0.2282 -0.7230 -0.7112
14693SOL     OW48925   6.974   7.275   1.382  0.5226 -0.4470 -0.0956
14693SOL    HW148926   7.002   7.364   1.403  2.2620 -0.5998 -1.5976
14693SOL    HW248927   6.881   7.284   1.361  0.8357  1.1589 -0.9321
14694SOL     OW48928   4.903   6.551   9.357 -0.1469  0.0030 -0.1680
14694SOL    HW148929   4.845   6.624   9.377  0.4861  0.3837  0.2887
14694SOL    HW248930   4.946   6.530   9.440  0.9653  0.2562 -0.6693
14695SOL     OW48931   4.305   3.806   1.744  0.3035 -1.0287  0.4154
14695SOL    HW148932   4.373   3.867   1.772  0.6829 -2.3469  2.4219
14695SOL    HW248933   4.239   3.861   1.701  1.5602  0.5292  0.4485
14696SOL     OW48934   1.821   7.753   0.378 -0.4563  0.0642 -0.5529
14696SOL    HW148935   1.864   7.821   0.429 -0.9605  0.8248 -1.1377
14696SOL    HW248936   1.772   7.701   0.443  0.8063 -0.4164  0.0293
14697SOL     OW48937   4.660   6.975   2.455  0.8291 -0.1902  0.1380
14697SOL    HW148938   4.565   6.977   2.443  1.1727  1.4132 -3.0011
14697SOL    HW248939   4.688   6.896   2.409  1.0685 -0.3741  0.5992
14698SOL     OW48940   4.182   7.750   0.427 -0.6096 -0.2015  0.2896
14698SOL    HW148941   4.263   7.705   0.402  0.4695  1.2313  1.0684
14698SOL    HW248942   4.209   7.841   0.438 -2.4959  0.4157 -0.1076
14699SOL     OW48943   4.337   5.992   1.597 -0.3181  0.3095 -0.2951
14699SOL    HW148944   4.265   6.051   1.576 -1.9920 -1.5550  0.0283
14699SOL    HW248945   4.298   5.905   1.595  1.7262 -0.6735  0.7797
14700SOL     OW48946   5.187   6.191   9.789 -0.0326  0.2158 -0.4681
14700SOL    HW148947   5.170   6.103   9.822 -2.3587  1.7175  2.7074
14700SOL    HW248948   5.168   6.187   9.696  0.6819 -2.8085 -0.5200
14701SOL     OW48949   5.612   3.025   1.350  0.5980  0.2943  0.0648
14701SOL    HW148950   5.538   3.074   1.386  2.2214  1.2725  2.1877
14701SOL    HW248951   5.614   2.945   1.402  1.9381  0.9595  1.0649
14702SOL     OW48952   5.257   4.882   2.935 -0.6526  0.0886 -0.7526
14702SOL    HW148953   5.190   4.859   2.999 -0.9438  1.1863 -0.6442
14702SOL    HW248954   5.216   4.868   2.850 -2.4903  4.5161 -0.7643
14703SOL     OW48955   3.786   5.013   1.498  0.0648  0.0295 -0.0094
14703SOL    HW148956   3.781   4.944   1.565  1.4358  0.8969  0.9847
14703SOL    HW248957   3.852   4.981   1.436  0.3360  0.2155  0.1839
14704SOL     OW48958   5.036   6.771   9.912  0.4021 -0.0001 -0.3388
14704SOL    HW148959   4.971   6.790   9.980  0.4894 -0.7881 -0.0248
14704SOL    HW248960   5.005   6.691   9.871  0.3799  0.4506 -1.1993
14705SOL     OW48961   4.159   5.070   2.680  0.0377 -0.1098 -0.7106
14705SOL    HW148962   4.191   5.061   2.770  1.3342 -0.9429 -1.2406
14705SOL    HW248963   4.070   5.104   2.690  1.2732  2.8434  0.7660
14706SOL     OW48964   5.107   7.811   2.478 -0.0215  0.2996 -0.0516
14706SOL    HW148965   5.190   7.843   2.513 -0.3386  1.7218 -0.5580
14706SOL    HW248966   5.119   7.812   2.383 -0.5883  0.4357 -0.1264
14707SOL     OW48967   3.535   6.475   3.013  0.1775 -0.1895 -0.3635
14707SOL    HW148968   3.476   6.455   2.941  0.8318 -0.5569 -0.8025
14707SOL    HW248969   3.489   6.542   3.064 -0.4437 -0.1930 -0.9151
14708SOL     OW48970   4.386   6.672   2.571 -0.4055 -0.1838 -0.4789
14708SOL    HW148971   4.379   6.761   2.537  0.5060  0.1816  0.2648
14708SOL    HW248972   4.304   6.659   2.619  0.5111  1.1945  1.5343
14709SOL     OW48973   4.176   7.134   1.738 -0.3080 -0.0360  0.6771
14709SOL    HW148974   4.117   7.107   1.809 -0.8163  0.0593  0.2921
14709SOL    HW248975   4.153   7.225   1.721 -1.1196 -0.4665 -0.5401
14710SOL     OW48976   4.570   6.776   1.706  0.3570 -0.2374 -0.1053
14710SOL    HW148977   4.575   6.835   1.631 -0.1876  0.7819  0.6462
14710SOL    HW248978   4.635   6.810   1.768  1.2730 -1.4584 -0.3687
14711SOL     OW48979   5.757   7.055   9.699  0.3776 -0.1895 -0.3215
14711SOL    HW148980   5.805   6.981   9.736  0.3092 -1.7235 -3.0978
14711SOL    HW248981   5.824   7.122   9.685  1.3011 -1.3539 -1.7508
14712SOL     OW48982   4.336   6.708   0.771 -0.0193 -0.2749  0.2648
14712SOL    HW148983   4.321   6.622   0.733 -0.2016  0.3774 -1.1572
14712SOL    HW248984   4.271   6.765   0.730 -0.1131  0.4855  1.4294
14713SOL     OW48985   4.520   5.779   0.697  0.2148 -0.0797  0.0212
14713SOL    HW148986   4.507   5.685   0.695 -1.2495  0.0723  1.3022
14713SOL    HW248987   4.602   5.790   0.746 -0.1101 -0.6461  0.6985
14714SOL     OW48988   6.234   8.182   1.003 -0.2233  0.3567  0.1312
14714SOL    HW148989   6.317   8.226   0.983  0.1748 -1.1346 -1.6361
14714SOL    HW248990   6.176   8.253   1.031  1.1766  1.6484 -0.1496
14715SOL     OW48991   5.379   7.036   0.979 -0.3277 -0.1309  0.1985
14715SOL    HW148992   5.349   7.042   0.889 -1.7754  1.8051  0.7674
14715SOL    HW248993   5.413   7.123   0.999  1.6047 -1.0426  0.9818
14716SOL     OW48994   5.505   8.738   1.942 -0.6409  0.0077  0.3515
14716SOL    HW148995   5.598   8.717   1.951 -0.8812  0.1063  3.4078
14716SOL    HW248996   5.498   8.830   1.968 -1.2214  0.9028 -2.6690
14717SOL     OW48997   3.954   6.733   1.049 -0.3353  0.1783 -0.4126
14717SOL    HW148998   3.925   6.800   1.111  0.9950  0.8666 -0.5196
14717SOL    HW248999   3.955   6.777   0.965  0.3486 -0.0256 -0.5168
14718SOL     OW49000   4.945   5.833   9.853  0.1176  0.2543  0.6459
14718SOL    HW149001   5.005   5.759   9.847 -0.0648  0.1272  0.3417
14718SOL    HW249002   4.955   5.866   9.942  1.0610  0.5926  0.4160
14719SOL     OW49003   4.644   8.201   2.055  0.1100 -0.0945 -0.3375
14719SOL    HW149004   4.642   8.293   2.029  1.9023  0.1938  0.4714
14719SOL    HW249005   4.620   8.202   2.148  1.2203 -0.3304 -0.0496
14720SOL     OW49006   4.368   5.849   2.510  0.0378  0.4241  0.1818
14720SOL    HW149007   4.338   5.907   2.441  2.0866  0.7228 -0.4885
14720SOL    HW249008   4.356   5.899   2.591 -1.1896  0.5468 -0.0688
14721SOL     OW49009   2.692   7.112   0.869  0.0744 -0.2091 -0.1560
14721SOL    HW149010   2.616   7.131   0.923 -0.0428  0.6280 -0.6059
14721SOL    HW249011   2.711   7.194   0.824  1.3535 -0.3642  0.0903
14722SOL     OW49012   4.874   6.588   1.423 -0.2897  0.2407  0.9880
14722SOL    HW149013   4.817   6.600   1.348  0.3885  2.0921  0.7620
14722SOL    HW249014   4.846   6.654   1.486  1.9322  1.5239  0.6636
14723SOL     OW49015   2.199   7.654   2.433 -0.0742 -0.2416 -0.3914
14723SOL    HW149016   2.273   7.691   2.480 -0.1469 -0.7184  0.0983
14723SOL    HW249017   2.137   7.627   2.501  0.3822 -2.1028 -0.6940
14724SOL     OW49018   4.753   5.510   9.258 -0.0259 -0.6824 -0.1291
14724SOL    HW149019   4.827   5.502   9.197  2.3878  1.5692  2.3621
14724SOL    HW249020   4.793   5.501   9.345 -2.4173  2.0661  1.3493
14725SOL     OW49021   3.465   7.152   0.296 -0.3907 -0.0992 -0.1033
14725SOL    HW149022   3.489   7.097   0.221  2.0528 -0.3037  0.7901
14725SOL    HW249023   3.370   7.140   0.305 -0.7582 -0.0365 -3.1665
14726SOL     OW49024   3.515   6.510   2.580 -0.1814 -0.3961  0.4221
14726SOL    HW149025   3.441   6.571   2.586  1.4403  1.5614  1.0774
14726SOL    HW249026   3.513   6.479   2.489 -0.3934  1.4893 -0.2450
14727SOL     OW49027   4.310   2.880   1.914  0.4599  0.5687  0.6673
14727SOL    HW149028   4.302   2.836   1.999  1.9078 -1.2159 -0.0957
14727SOL    HW249029   4.261   2.824   1.853 -1.0654  2.1430  0.3995
14728SOL     OW49030   3.864   4.514   1.626 -0.2854 -0.5382  0.4562
14728SOL    HW149031   3.937   4.508   1.565 -1.1339 -1.3110 -0.4866
14728SOL    HW249032   3.880   4.444   1.690  1.0216  0.7780  1.5951
14729SOL     OW49033   4.656   6.866   0.649  0.2781  0.4521 -0.2199
14729SOL    HW149034   4.689   6.806   0.583 -0.6707 -0.6084  0.2473
14729SOL    HW249035   4.570   6.893   0.616  1.3022  2.7183 -1.1383
14730SOL     OW49036   1.869   7.497   1.864 -0.1291  0.3965 -0.2341
14730SOL    HW149037   1.837   7.575   1.819 -0.1476  0.3980 -0.2177
14730SOL    HW249038   1.905   7.443   1.794  0.2336  0.5892 -0.1980
14731SOL     OW49039   6.407   4.374   9.499  0.0045  0.0451  0.1880
14731SOL    HW149040   6.485   4.345   9.452  0.8562  1.7006  0.5537
14731SOL    HW249041   6.376   4.450   9.450  0.0929  0.9277  1.4744
14732SOL     OW49042   2.692   6.780   1.759  0.7407 -0.3789 -0.3722
14732SOL    HW149043   2.623   6.804   1.820 -0.3586 -1.3788 -1.2007
14732SOL    HW249044   2.709   6.688   1.776  2.2262 -0.0317  0.1490
14733SOL     OW49045   4.955   4.937   2.246 -0.5106 -0.3820  0.2563
14733SOL    HW149046   5.050   4.924   2.248 -0.5976 -1.1133 -0.4489
14733SOL    HW249047   4.919   4.867   2.301 -0.6148  0.1971  0.9365
14734SOL     OW49048   4.506   6.860   9.972 -0.0424  0.5455  0.4295
14734SOL    HW149049   4.431   6.861  10.032 -1.6139  0.7194 -1.5023
14734SOL    HW249050   4.560   6.934  10.001 -0.1839 -0.0742  2.3507
14735SOL     OW49051   5.182   7.960   9.673  0.3605  0.7880  0.4439
14735SOL    HW149052   5.247   7.931   9.610  0.3487 -1.6468  1.5049
14735SOL    HW249053   5.104   7.978   9.621  0.1492 -1.8134 -0.1799
14736SOL     OW49054   4.470   6.156   1.852 -0.0113 -0.5479 -0.1147
14736SOL    HW149055   4.394   6.131   1.904 -0.5245  0.1741 -0.5187
14736SOL    HW249056   4.434   6.203   1.777  0.8791  0.6126  0.1708
14737SOL     OW49057   3.550   7.017   1.947 -0.3948  0.4285 -0.3101
14737SOL    HW149058   3.633   7.043   1.988  1.0248  0.6747 -3.2511
14737SOL    HW249059   3.535   6.928   1.979  1.9506 -0.2971 -1.1067
14738SOL     OW49060   4.001   5.817   2.583 -0.1734  0.2017 -0.3342
14738SOL    HW149061   3.992   5.768   2.501  0.2696  1.5366 -1.1871
14738SOL    HW249062   4.088   5.794   2.616 -0.2792 -0.1934 -0.3322
14739SOL     OW49063   4.344   7.624   3.491  0.4288 -0.1041  0.5450
14739SOL    HW149064   4.286   7.700   3.491 -1.7339 -1.7150  2.0390
14739SOL    HW249065   4.338   7.589   3.402  2.0325  1.8520 -0.3862
14740SOL     OW49066   5.360   5.831   2.447  0.4554  0.5411  0.1697
14740SOL    HW149067   5.321   5.787   2.371 -0.0774  0.9294  0.2107
14740SOL    HW249068   5.453   5.814   2.440  0.2668 -0.4481  0.0909
14741SOL     OW49069   3.631   6.211   2.976 -0.7039 -0.1924 -0.4443
14741SOL    HW149070   3.562   6.164   3.024 -0.6344 -0.5661 -0.7086
14741SOL    HW249071   3.605   6.206   2.884  0.1824 -1.1963 -0.6524
14742SOL     OW49072   6.123   6.492   0.214 -0.5070 -0.5178 -0.3291
14742SOL    HW149073   6.181   6.431   0.260 -1.6433 -0.2650  1.4879
14742SOL    HW249074   6.176   6.524   0.140  0.7531 -2.2397 -0.2093
14743SOL     OW49075   4.973   5.097   2.505 -0.4150 -0.6809 -0.2795
14743SOL    HW149076   5.039   5.159   2.475 -0.3687 -0.6385 -0.0865
14743SOL    HW249077   4.959   5.039   2.429  0.5885 -1.3262  0.0088
14744SOL     OW49078   3.884   4.782   1.642  0.3811  0.6571 -0.2775
14744SOL    HW149079   3.836   4.802   1.723  2.1631 -0.2412  1.0272
14744SOL    HW249080   3.879   4.687   1.635  0.8251  0.6792 -0.8577
14745SOL     OW49081   2.828   8.164   4.214  0.1551 -0.5988 -0.2900
14745SOL    HW149082   2.812   8.188   4.305  2.1970  1.4962 -0.4360
14745SOL    HW249083   2.826   8.247   4.166  0.5187 -1.5071 -1.9377
14746SOL     OW49084   4.470   6.496   1.881  0.7905 -0.0121 -0.4641
14746SOL    HW149085   4.451   6.589   1.868  0.1016 -0.3020 -1.5521
14746SOL    HW249086   4.412   6.450   1.820 -0.4594 -1.2625  1.5670
14747SOL     OW49087   3.279   7.945   1.980 -0.0031  0.2058  0.0953
14747SOL    HW149088   3.337   7.954   1.904  0.1715  1.2484  0.3469
14747SOL    HW249089   3.191   7.934   1.942  0.4963 -3.0012 -0.3350
14748SOL     OW49090   4.152   5.792   1.356 -0.2139 -0.6076  0.6026
14748SOL    HW149091   4.093   5.855   1.398  0.1439 -0.7966  1.3940
14748SOL    HW249092   4.104   5.710   1.358 -1.5455  0.0433 -2.2938
14749SOL     OW49093   4.694   7.650   3.284  0.0319 -0.3378  0.5293
14749SOL    HW149094   4.627   7.672   3.219 -0.1225  0.7283  1.0535
14749SOL    HW249095   4.696   7.554   3.284 -0.5235 -0.3571 -0.4800
14750SOL     OW49096   5.122   6.415   0.870  0.3655  0.2773 -0.6026
14750SOL    HW149097   5.087   6.503   0.860 -3.5178 -1.0374  0.4680
14750SOL    HW249098   5.071   6.362   0.808  1.4739 -1.5188 -0.0269
14751SOL     OW49099   3.480   6.701   2.207  0.1737  0.6228  0.9129
14751SOL    HW149100   3.386   6.721   2.209  0.3912  1.8644 -0.3198
14751SOL    HW249101   3.486   6.614   2.245 -1.1884  1.5267  3.3247
14752SOL     OW49102   7.340   6.655   1.549 -0.1399 -0.3829 -0.4095
14752SOL    HW149103   7.360   6.621   1.636  0.2105 -1.4649 -0.9025
14752SOL    HW249104   7.257   6.702   1.560  0.0649 -0.2388  0.5678
14753SOL     OW49105   3.776   8.051   3.780 -0.0365 -0.2512  0.8196
14753SOL    HW149106   3.729   8.111   3.838  0.0135  0.8050 -0.2370
14753SOL    HW249107   3.814   8.107   3.712 -0.2642 -1.5132 -0.3638
14754SOL     OW49108   4.703   8.133   3.643 -0.1144 -0.6742 -0.1097
14754SOL    HW149109   4.626   8.081   3.620  0.0549 -0.0135 -2.2551
14754SOL    HW249110   4.684   8.221   3.611  1.2088 -0.3188  0.0269
14755SOL     OW49111   5.502   6.238   2.360 -0.5490  0.2557 -0.5894
14755SOL    HW149112   5.412   6.248   2.392  0.4133 -0.6081  2.5344
14755SOL    HW249113   5.542   6.323   2.375 -0.6907  0.4926 -1.5267
14756SOL     OW49114   1.992   6.945   1.813 -0.0436  0.3521  0.2467
14756SOL    HW149115   1.985   6.905   1.899 -3.5209 -1.1386 -0.6386
14756SOL    HW249116   2.009   7.037   1.830 -2.9509  0.5244  2.6233
14757SOL     OW49117   6.283   8.610   2.334 -0.5761 -0.2747  0.2916
14757SOL    HW149118   6.248   8.575   2.416  1.8621 -2.1585  0.5901
14757SOL    HW249119   6.356   8.666   2.361 -2.6075  2.8031 -0.3770
14758SOL     OW49120   3.501   7.731   1.997 -0.2353 -0.2459 -0.4388
14758SOL    HW149121   3.555   7.697   1.925 -0.8206 -2.2728  0.0546
14758SOL    HW249122   3.411   7.722   1.966 -0.3855  1.8046 -0.6811
14759SOL     OW49123   5.639   5.757   2.396  0.2590  0.4986 -0.1905
14759SOL    HW149124   5.722   5.784   2.357  0.0611  2.5777  0.7244
14759SOL    HW249125   5.663   5.694   2.464  1.0458  0.5717 -0.4065
14760SOL     OW49126   4.341   8.772   3.260 -0.8447  0.2705 -0.4157
14760SOL    HW149127   4.295   8.825   3.195  1.1206  1.9082 -0.5462
14760SOL    HW249128   4.421   8.744   3.216  0.1148  0.7014  1.0181
14761SOL     OW49129   5.383   8.954   4.642  0.2170 -0.0127 -0.2873
14761SOL    HW149130   5.333   9.020   4.593  1.6456  1.3237  0.0106
14761SOL    HW249131   5.317   8.902   4.686 -0.9296  1.7292  0.0996
14762SOL     OW49132   4.104   7.954   1.040  0.4222  0.1199 -0.1092
14762SOL    HW149133   4.151   7.884   1.086  0.0389  0.0380  0.1562
14762SOL    HW249134   4.159   7.974   0.964  0.6813 -0.2625 -0.0219
14763SOL     OW49135   3.910   6.519   2.464  0.0190  0.0803 -0.2227
14763SOL    HW149136   3.852   6.451   2.430  1.6696 -1.7494  0.5360
14763SOL    HW249137   3.988   6.472   2.494 -0.0180  1.9687  3.0519
14764SOL     OW49138   3.865   4.151   2.056 -0.0444 -0.4313 -0.0203
14764SOL    HW149139   3.791   4.213   2.058  0.1068 -0.2646  1.1680
14764SOL    HW249140   3.940   4.203   2.086  0.3685 -0.8359 -0.3542
14765SOL     OW49141   3.337   7.280   3.740 -0.0678 -0.4489  0.1669
14765SOL    HW149142   3.404   7.242   3.683 -0.1571  0.4171 -0.5161
14765SOL    HW249143   3.384   7.345   3.792 -0.1034 -0.8294  0.6726
14766SOL     OW49144   5.566   7.112   0.451  0.2566  0.0607  0.4663
14766SOL    HW149145   5.589   7.205   0.462 -0.5139  0.5596 -1.9311
14766SOL    HW249146   5.648   7.069   0.429  0.2271  0.5453 -0.5925
14767SOL     OW49147   6.411   6.817   2.246  0.9198  0.4597 -0.3915
14767SOL    HW149148   6.420   6.907   2.274 -1.0219  0.3369  0.7192
14767SOL    HW249149   6.475   6.768   2.298 -0.3386  0.7267  1.4665
14768SOL     OW49150   6.557   7.404   2.887 -0.6288  0.1615  0.0631
14768SOL    HW149151   6.622   7.336   2.875  0.3766  0.9080  1.1465
14768SOL    HW249152   6.514   7.382   2.970 -0.8427  0.4107  0.0196
14769SOL     OW49153   5.324   8.641   2.289  0.1302  0.0554  0.2344
14769SOL    HW149154   5.296   8.648   2.198  0.9477  0.3623  0.0057
14769SOL    HW249155   5.376   8.720   2.305  0.2406 -0.1437  0.8781
14770SOL     OW49156   7.536   8.062   0.610  0.0826 -0.6279 -0.0885
14770SOL    HW149157   7.506   8.006   0.681  1.4831 -2.4312 -0.8866
14770SOL    HW249158   7.517   8.012   0.530  2.7698 -0.7242 -0.7374
14771SOL     OW49159   3.649   5.875   1.964  0.0061  0.0824 -0.5266
14771SOL    HW149160   3.554   5.882   1.977  0.0610 -0.0931 -0.0391
14771SOL    HW249161   3.686   5.872   2.052  0.4655  0.1358 -0.7154
14772SOL     OW49162   4.226   4.213   3.559  0.1628 -0.3886  0.3852
14772SOL    HW149163   4.135   4.237   3.542 -0.4348 -2.1389  0.9500
14772SOL    HW249164   4.258   4.280   3.619 -0.5810  0.5268 -0.2228
14773SOL     OW49165   5.649   8.438   2.754  0.0069 -0.4881  0.2062
14773SOL    HW149166   5.582   8.372   2.773 -1.6459  1.5294  1.6637
14773SOL    HW249167   5.644   8.451   2.660 -2.2421  0.1843  0.3871
14774SOL     OW49168   3.024   7.847   3.815  0.1603 -0.6903  0.0758
14774SOL    HW149169   3.063   7.762   3.832  0.8559 -0.5483 -0.7518
14774SOL    HW249170   2.992   7.877   3.900  1.0330 -1.2184  0.5867
14775SOL     OW49171   6.474   6.228   2.403  0.5358  0.5297 -0.2017
14775SOL    HW149172   6.465   6.133   2.398  0.8307  0.4930 -0.0750
14775SOL    HW249173   6.557   6.247   2.360  0.6423  0.6938  0.0701
14776SOL     OW49174   5.776   4.757   2.363  0.2280 -0.4053 -0.1028
14776SOL    HW149175   5.772   4.815   2.439  1.5704 -0.5666  0.0956
14776SOL    HW249176   5.790   4.816   2.289  2.8051 -0.5457  0.2381
14777SOL     OW49177   6.646   5.576   3.120 -0.0386  0.3107  0.0439
14777SOL    HW149178   6.674   5.637   3.051  0.2135 -0.1132 -0.2318
14777SOL    HW249179   6.570   5.618   3.159 -0.1804  0.5610 -0.4892
14778SOL     OW49180   5.902   4.697   2.658 -0.2276  0.5342  0.1072
14778SOL    HW149181   5.855   4.777   2.635  0.1070  1.4129  2.3518
14778SOL    HW249182   5.979   4.727   2.707  0.5317 -1.1075 -0.0224
14779SOL     OW49183   5.341   7.468   3.898 -0.1351 -0.2851 -0.1116
14779SOL    HW149184   5.363   7.449   3.989  0.7738  1.8095  0.1373
14779SOL    HW249185   5.286   7.547   3.902  1.0991  0.6735 -1.4527
14780SOL     OW49186   2.564   6.672   1.440 -0.5602  0.0371 -0.5250
14780SOL    HW149187   2.501   6.600   1.435 -0.9373  0.4283 -1.5864
14780SOL    HW249188   2.614   6.655   1.519 -0.0840 -1.8530 -1.2154
14781SOL     OW49189   5.802   5.044   2.936  0.6611  0.4235  0.5690
14781SOL    HW149190   5.718   5.087   2.921  0.3802  0.1443  1.3083
14781SOL    HW249191   5.866   5.095   2.886  0.1003  0.8169  0.2606
14782SOL     OW49192   4.451   5.353   3.027  0.1046  0.1223 -0.4236
14782SOL    HW149193   4.366   5.392   3.047 -0.7450 -1.8983 -0.0736
14782SOL    HW249194   4.481   5.316   3.110  0.7851 -0.2145 -0.8137
14783SOL     OW49195   5.035   8.189   0.822 -0.3253  0.5069  0.1521
14783SOL    HW149196   4.955   8.219   0.778  0.1945 -1.0098 -1.9095
14783SOL    HW249197   5.093   8.163   0.750  0.2062 -2.9912  1.7479
14784SOL     OW49198   3.175   5.882   3.297 -0.3841  0.5000 -0.2259
14784SOL    HW149199   3.131   5.945   3.240 -2.3892 -1.0409 -0.3862
14784SOL    HW249200   3.126   5.885   3.379 -0.5119 -0.8826 -0.2465
14785SOL     OW49201   3.459   7.630   4.908 -0.1538 -0.1173  0.0816
14785SOL    HW149202   3.494   7.716   4.887 -0.2612  0.3513  1.7432
14785SOL    HW249203   3.491   7.611   4.996 -1.1402 -1.2406  0.2196
14786SOL     OW49204   6.011   5.552   2.700  0.3913 -0.3441  0.5222
14786SOL    HW149205   5.941   5.491   2.721  0.6732 -0.3780  1.3952
14786SOL    HW249206   6.010   5.616   2.771  1.5066 -0.5813  0.7651
14787SOL     OW49207   6.516   5.984   2.820 -0.2279  0.0281  0.5405
14787SOL    HW149208   6.510   5.891   2.798  1.0940  0.0161  0.1625
14787SOL    HW249209   6.610   6.001   2.826 -0.4452  1.4445  0.1708
14788SOL     OW49210   3.564   5.976   1.452  0.2759 -0.1290  0.8730
14788SOL    HW149211   3.642   5.969   1.398  0.4418  0.0529  1.0896
14788SOL    HW249212   3.593   6.021   1.532 -0.2043  0.5858  0.6532
14789SOL     OW49213   4.779   7.209   0.611 -0.0974 -0.8742 -0.5172
14789SOL    HW149214   4.864   7.236   0.575 -0.1054  0.7896  0.6581
14789SOL    HW249215   4.720   7.280   0.587 -0.5120 -0.6334  1.1770
14790SOL     OW49216   3.539   8.436   5.087 -0.1384 -0.1477 -0.2245
14790SOL    HW149217   3.458   8.403   5.049  0.9874 -1.0891 -1.8751
14790SOL    HW249218   3.552   8.521   5.045 -0.8501  0.5147  0.8844
14791SOL     OW49219   5.088   6.684   1.833 -0.1625 -0.5731 -0.0129
14791SOL    HW149220   5.172   6.681   1.788 -0.4525 -2.2741 -0.4834
14791SOL    HW249221   5.110   6.678   1.926  0.2469 -0.8806 -0.1289
14792SOL     OW49222   2.752   5.029   3.512 -0.0617 -0.0187 -0.3590
14792SOL    HW149223   2.778   4.998   3.599  1.4145  2.0700 -0.0055
14792SOL    HW249224   2.665   5.067   3.525 -0.1638 -0.4037  0.0598
14793SOL     OW49225   5.231   7.470   2.259  0.0614 -0.2734  0.0823
14793SOL    HW149226   5.274   7.416   2.193 -0.2589 -0.1854 -0.2004
14793SOL    HW249227   5.147   7.493   2.219 -0.2875 -0.5284  0.6736
14794SOL     OW49228   5.467   6.859   1.760 -0.1259 -0.1684 -0.8018
14794SOL    HW149229   5.393   6.834   1.815 -0.5421  0.7071 -0.9604
14794SOL    HW249230   5.520   6.915   1.816 -0.5686  0.7511 -1.3026
14795SOL     OW49231   4.608   5.551   2.022 -0.0067 -0.1162  0.1589
14795SOL    HW149232   4.605   5.641   2.055 -2.4209 -0.1057  0.0378
14795SOL    HW249233   4.595   5.560   1.927 -1.5953 -0.6470  0.3126
14796SOL     OW49234   4.272   7.318   4.064  0.5060  0.2674 -0.0526
14796SOL    HW149235   4.206   7.388   4.064  0.3983  0.1867 -2.3636
14796SOL    HW249236   4.354   7.363   4.044  0.8120  0.0232  0.6102
14797SOL     OW49237   4.935   5.834   2.014  0.0721 -0.3925  0.3539
14797SOL    HW149238   4.917   5.904   2.076 -0.4955  1.2480 -1.6170
14797SOL    HW249239   4.992   5.774   2.062  1.2448  1.8212  1.8242
14798SOL     OW49240   3.612   4.710   2.114 -0.3138 -0.1260 -0.2821
14798SOL    HW149241   3.643   4.791   2.155  0.1656  0.1948 -1.2478
14798SOL    HW249242   3.607   4.731   2.021 -2.3257 -0.5389 -0.2841
14799SOL     OW49243   3.087   6.190   2.728  0.1961  0.1955  0.0997
14799SOL    HW149244   3.054   6.116   2.778  1.5422  0.7330  1.8099
14799SOL    HW249245   3.167   6.158   2.686 -0.7543 -0.1563 -1.5134
14800SOL     OW49246   4.869   6.233   2.426  0.2690  0.4237  0.2693
14800SOL    HW149247   4.803   6.303   2.431  0.0216  0.2061  0.0567
14800SOL    HW249248   4.938   6.270   2.371 -0.4155  0.0604 -0.8546
14801SOL     OW49249   6.917   4.143   6.296 -0.1421 -0.3496  0.0094
14801SOL    HW149250   6.942   4.052   6.279 -0.5156 -0.6376  0.9509
14801SOL    HW249251   6.902   4.180   6.209  1.6604 -0.7071 -0.4684
14802SOL     OW49252   4.619   6.418   0.832 -0.1765 -0.1883  0.1901
14802SOL    HW149253   4.560   6.343   0.840 -0.2645 -0.3809 -1.8803
14802SOL    HW249254   4.668   6.401   0.751 -0.7429  2.3362 -0.7281
14803SOL     OW49255   3.755   7.588   0.502 -0.0978 -0.0513 -0.2373
14803SOL    HW149256   3.809   7.515   0.473  1.6740  0.2025  2.2591
14803SOL    HW249257   3.802   7.666   0.471 -0.6182  0.0848 -0.6758
14804SOL     OW49258   5.640   5.532   0.938 -0.0886 -0.5299 -0.4096
14804SOL    HW149259   5.583   5.569   0.871  1.2113 -1.4273 -2.0335
14804SOL    HW249260   5.696   5.605   0.965 -1.3155  0.1005  0.4947
14805SOL     OW49261   4.315   6.053   2.335  0.4377 -0.2550  0.0593
14805SOL    HW149262   4.365   6.131   2.358 -1.0920  0.1054  2.3807
14805SOL    HW249263   4.237   6.087   2.290  0.2043 -0.4949  0.2764
14806SOL     OW49264   4.344   6.728   1.995  0.2052  0.0198 -0.3023
14806SOL    HW149265   4.325   6.816   1.963 -0.6842  0.2241  0.7600
14806SOL    HW249266   4.292   6.671   1.938  3.0357 -0.0967 -2.9287
14807SOL     OW49267   5.917   6.616   1.029 -0.4626 -0.7594 -0.1440
14807SOL    HW149268   5.948   6.701   0.997 -1.9512  0.1613  0.8331
14807SOL    HW249269   5.856   6.586   0.962 -1.0393 -0.3921  0.2232
14808SOL     OW49270   3.552   7.992   4.205  0.0214 -0.5364 -0.2445
14808SOL    HW149271   3.574   8.011   4.114  0.7774 -4.4995 -0.9893
14808SOL    HW249272   3.459   7.970   4.204 -0.2667  0.6471  0.1658
14809SOL     OW49273   3.819   7.040   3.685  0.3725  0.5262  0.1382
14809SOL    HW149274   3.876   7.011   3.757 -0.7797  2.6855  1.9786
14809SOL    HW249275   3.873   7.100   3.634  0.5037  0.7319  0.5142
14810SOL     OW49276   3.636   7.205   2.219 -0.3190  0.2542  0.1187
14810SOL    HW149277   3.637   7.109   2.217 -1.7632  0.2042  1.1965
14810SOL    HW249278   3.727   7.230   2.202 -0.0615 -1.2859 -0.8623
14811SOL     OW49279   4.779   5.787   0.801  0.1439 -0.7921  0.5416
14811SOL    HW149280   4.848   5.740   0.756  0.5304  0.3563 -0.0709
14811SOL    HW249281   4.766   5.738   0.882  0.1153 -2.2974 -0.3599
14812SOL     OW49282   4.990   5.287   1.787 -0.5608 -0.6885  0.5002
14812SOL    HW149283   5.028   5.350   1.727 -0.7993  1.2600  2.3512
14812SOL    HW249284   4.897   5.311   1.792 -0.9577 -2.0922  0.1114
14813SOL     OW49285   3.779   5.664   1.827  0.3191 -0.4701  0.2320
14813SOL    HW149286   3.789   5.672   1.732  2.8780 -1.1473  0.4000
14813SOL    HW249287   3.742   5.748   1.854 -1.9319 -0.8489 -1.5075
14814SOL     OW49288   3.423   6.557   1.713 -0.0852  0.5360  0.6528
14814SOL    HW149289   3.482   6.591   1.780  1.2079  0.2791 -0.3345
14814SOL    HW249290   3.452   6.599   1.631 -0.1131 -0.9403 -0.1351
14815SOL     OW49291   4.624   4.664   2.337  0.2957  0.0613  0.1047
14815SOL    HW149292   4.658   4.641   2.250 -1.3423  1.3941 -0.8976
14815SOL    HW249293   4.602   4.757   2.330 -1.5376 -0.2679  1.3996
14816SOL     OW49294   5.115   8.237   2.261  0.6065  0.4189 -0.0663
14816SOL    HW149295   5.123   8.317   2.208  3.4493  0.4338  0.2848
14816SOL    HW249296   5.049   8.185   2.217 -1.4687  3.0382 -0.2047
14817SOL     OW49297   5.723   6.401   1.879 -0.0938  0.0814 -0.5044
14817SOL    HW149298   5.670   6.438   1.950  1.6107 -0.5078  1.1021
14817SOL    HW249299   5.712   6.307   1.887  1.7919 -0.0873  0.3490
14818SOL     OW49300   5.898   7.545   2.238 -0.1386 -0.3437 -0.1387
14818SOL    HW149301   5.980   7.581   2.272 -0.4389 -0.1846  0.4245
14818SOL    HW249302   5.833   7.567   2.304 -0.3877 -1.6505  0.0764
14819SOL     OW49303   3.887   6.813   2.416 -0.0352  0.5089  0.0109
14819SOL    HW149304   3.867   6.871   2.490  1.7667 -1.0065  1.7786
14819SOL    HW249305   3.829   6.738   2.429  0.8498 -0.1256  0.3913
14820SOL     OW49306   4.994   8.044   2.783  0.0486  0.0576 -0.6004
14820SOL    HW149307   5.025   8.128   2.747  2.9654 -0.4230  0.6347
14820SOL    HW249308   4.930   8.069   2.850  0.7718  1.3206 -0.3547
14821SOL     OW49309   6.202   7.161   0.754  0.1212 -0.1380 -0.0384
14821SOL    HW149310   6.107   7.147   0.749  0.1396 -0.3750  0.2255
14821SOL    HW249311   6.228   7.182   0.664 -0.3535  1.0533  0.0897
14822SOL     OW49312   3.490   4.557   0.896  0.6611 -0.3883  0.1096
14822SOL    HW149313   3.500   4.504   0.975 -1.6215 -0.7978  0.1544
14822SOL    HW249314   3.395   4.567   0.886  0.9441  0.2108 -2.2035
14823SOL     OW49315   6.783   5.846   2.615 -0.0309 -0.0885 -0.2447
14823SOL    HW149316   6.837   5.784   2.565  1.7130  2.6229 -1.8487
14823SOL    HW249317   6.721   5.881   2.550 -0.7355  0.1791  0.5653
14824SOL     OW49318   4.056   8.006   3.870  0.1549  0.1356  0.2725
14824SOL    HW149319   4.067   8.093   3.831 -1.9805  0.3403  0.0747
14824SOL    HW249320   3.962   7.995   3.877  0.4116 -2.0812  0.5328
14825SOL     OW49321   6.287   8.304   4.008 -0.0653 -0.3893  0.4459
14825SOL    HW149322   6.348   8.367   4.046  0.6655 -2.0178  2.0830
14825SOL    HW249323   6.208   8.312   4.062 -1.0772  1.2139 -1.2242
14826SOL     OW49324   5.512   7.739   1.340 -0.3653  0.4686  0.2040
14826SOL    HW149325   5.500   7.820   1.389 -0.7022  0.9240 -0.6312
14826SOL    HW249326   5.542   7.766   1.254  0.5386 -0.3516  0.2417
14827SOL     OW49327   4.043   6.081   1.473  0.2173  0.1783 -0.1406
14827SOL    HW149328   4.108   6.123   1.417  0.7201 -2.3087 -1.4921
14827SOL    HW249329   3.959   6.108   1.436  0.4810  1.6141  0.2688
14828SOL     OW49330   4.256   4.912   3.149  0.3310  0.1259  0.2637
14828SOL    HW149331   4.197   4.910   3.073 -0.5796  2.0774  0.8770
14828SOL    HW249332   4.216   4.976   3.208  1.8089 -0.3006  1.7542
14829SOL     OW49333   6.948   6.819   2.155  0.1971  0.2519 -0.0131
14829SOL    HW149334   6.968   6.848   2.066  0.9072 -0.0411  0.0473
14829SOL    HW249335   6.923   6.899   2.201  2.3518  0.8325  0.2101
14830SOL     OW49336   4.549   7.657   0.753  0.0110 -0.3664 -0.6040
14830SOL    HW149337   4.556   7.739   0.802  2.0923 -1.9431  1.8532
14830SOL    HW249338   4.595   7.674   0.671  3.3736 -0.0643  1.2767
14831SOL     OW49339   2.973   6.550   3.053  0.5265 -0.1776 -0.2142
14831SOL    HW149340   3.032   6.530   3.125  0.2314  0.4826  0.2137
14831SOL    HW249341   2.940   6.638   3.072 -0.6050 -0.5471 -0.4409
14832SOL     OW49342   6.085   5.342   1.954 -0.4445  0.4004  0.3865
14832SOL    HW149343   6.064   5.435   1.961 -0.4135  0.4826 -0.5112
14832SOL    HW249344   6.124   5.333   1.867  0.6616 -0.2404  0.9410
14833SOL     OW49345   4.186   5.886   3.344  0.1467 -0.2309  0.0580
14833SOL    HW149346   4.242   5.916   3.272  0.6357  0.5497  0.7622
14833SOL    HW249347   4.230   5.917   3.423 -1.5282  0.7791  0.5992
14834SOL     OW49348   4.739   6.651   0.971 -0.1723 -0.2491  0.1581
14834SOL    HW149349   4.697   6.582   0.920 -1.4292  0.7090 -0.1601
14834SOL    HW249350   4.678   6.726   0.964  0.4388  0.4231  1.6802
14835SOL     OW49351   3.371   5.347   2.862  0.3114  0.0280 -0.2441
14835SOL    HW149352   3.298   5.354   2.800 -0.5973 -0.6748  0.7271
14835SOL    HW249353   3.332   5.308   2.940  2.2400 -2.7078 -0.5721
14836SOL     OW49354   5.281   7.432   1.994 -0.3935  0.7456  0.4473
14836SOL    HW149355   5.308   7.350   1.952  0.4548  2.0596 -1.5926
14836SOL    HW249356   5.200   7.456   1.949  0.1905  1.8379 -0.0237
14837SOL     OW49357   4.659   7.478   3.558 -0.2563  0.0650  0.4052
14837SOL    HW149358   4.731   7.538   3.577 -0.3506  0.3959 -0.2474
14837SOL    HW249359   4.670   7.456   3.466 -0.7163 -0.2556  0.4244
14838SOL     OW49360   4.326   6.541   1.028 -0.1241  0.0019  0.2726
14838SOL    HW149361   4.399   6.562   0.970 -0.7266  2.0257  0.2029
14838SOL    HW249362   4.252   6.527   0.969  0.2066 -2.1084  0.3380
14839SOL     OW49363   3.936   8.230   2.964 -0.2665  0.0492  0.1375
14839SOL    HW149364   3.954   8.272   3.048  0.2925  0.8628 -0.3756
14839SOL    HW249365   3.998   8.158   2.958  0.0610  0.3294  0.1837
14840SOL     OW49366   7.226   4.134   2.671  0.6757 -0.6898 -0.4295
14840SOL    HW149367   7.210   4.197   2.601  0.5352 -0.2199  0.0216
14840SOL    HW249368   7.317   4.150   2.698  0.7679 -0.9483 -0.5828
14841SOL     OW49369   3.269   5.997   4.584  0.0857  0.8767  0.8470
14841SOL    HW149370   3.202   6.042   4.635 -0.5642 -0.1106  0.8791
14841SOL    HW249371   3.333   5.968   4.648  0.4558  1.6528  0.8378
14842SOL     OW49372   3.150   3.444   1.790  0.0484  0.5424 -0.0247
14842SOL    HW149373   3.135   3.509   1.858 -2.0585 -0.4532  0.5035
14842SOL    HW249374   3.133   3.490   1.708 -1.2599  0.7232  0.3396
14843SOL     OW49375   4.378   4.722   2.566 -0.3038  0.5744 -0.1499
14843SOL    HW149376   4.402   4.783   2.636  2.3838 -0.4488 -0.1225
14843SOL    HW249377   4.359   4.778   2.491 -2.5923  1.6537  1.1436
14844SOL     OW49378   5.491   7.286   1.576  0.1494 -1.2393  0.2793
14844SOL    HW149379   5.568   7.233   1.596 -0.4256 -2.8032 -1.4908
14844SOL    HW249380   5.421   7.223   1.561 -0.6970  0.0341 -1.3046
14845SOL     OW49381   3.214   7.619   3.406  0.0268  0.4246  0.3713
14845SOL    HW149382   3.178   7.546   3.457 -0.2219  1.2686  1.4278
14845SOL    HW249383   3.147   7.688   3.413 -0.3669  0.2882 -1.7450
14846SOL     OW49384   5.754   6.601   0.811  0.0130 -0.0491 -0.4122
14846SOL    HW149385   5.699   6.535   0.854  0.2753  1.1280  1.8116
14846SOL    HW249386   5.766   6.568   0.722 -2.6974 -1.2801 -0.3741
14847SOL     OW49387   2.690   4.271   3.373  0.4296 -0.2405 -0.7204
14847SOL    HW149388   2.709   4.308   3.459  1.7677  1.2317 -1.6310
14847SOL    HW249389   2.599   4.294   3.356  1.0251  2.0153 -0.9471
14848SOL     OW49390   4.088   7.018   2.465  0.0363 -0.1345  0.0559
14848SOL    HW149391   4.070   7.109   2.441  1.1899 -0.0488 -0.5215
14848SOL    HW249392   4.049   6.967   2.395  1.7592  0.0409 -1.0647
14849SOL     OW49393   2.607   8.426   4.578  0.3536  0.0527  0.2493
14849SOL    HW149394   2.512   8.430   4.580  0.2357 -0.7033 -2.2966
14849SOL    HW249395   2.632   8.485   4.507  1.6507 -1.2770 -0.4288
14850SOL     OW49396   6.134   6.602   1.635  0.0904 -0.3282 -0.0103
14850SOL    HW149397   6.041   6.620   1.622  0.2087  1.7688  1.7376
14850SOL    HW249398   6.178   6.643   1.561 -0.0205  3.1031  1.7081
14851SOL     OW49399   4.443   7.561   1.713  0.3258  0.4113 -0.0256
14851SOL    HW149400   4.385   7.535   1.785  0.4861  2.8139  1.0049
14851SOL    HW249401   4.519   7.503   1.722  0.2372  0.5257  1.6074
14852SOL     OW49402   3.645   6.821   0.977 -0.9945  0.1267 -0.0304
14852SOL    HW149403   3.673   6.852   1.063  0.4016  2.1378 -1.1644
14852SOL    HW249404   3.561   6.863   0.961 -1.1586 -0.0913  0.2657
14853SOL     OW49405   5.544   5.729   1.695 -0.7300 -0.6126  0.0418
14853SOL    HW149406   5.584   5.727   1.782 -2.9085 -1.4481  1.0335
14853SOL    HW249407   5.498   5.646   1.687  0.0921 -0.8873 -2.2368
14854SOL     OW49408   6.709   7.275   2.571  0.0189 -0.1078  0.1812
14854SOL    HW149409   6.724   7.234   2.656 -0.6076 -0.9733 -0.1260
14854SOL    HW249410   6.797   7.286   2.534  0.2602 -0.1497  0.7377
14855SOL     OW49411   7.306   6.297   3.748 -0.2589 -0.0300  0.0611
14855SOL    HW149412   7.341   6.238   3.680 -0.4930 -0.3420  0.2102
14855SOL    HW249413   7.212   6.296   3.733 -0.4700 -1.3751  1.4149
14856SOL     OW49414   8.022   5.951   2.641 -0.1847 -0.1089  0.0911
14856SOL    HW149415   7.984   6.004   2.712 -0.0178  0.1908 -0.0432
14856SOL    HW249416   7.985   5.864   2.655  0.9929 -0.4167  1.4216
14857SOL     OW49417   4.933   5.604   0.076  0.1540 -0.1112 -0.2047
14857SOL    HW149418   4.953   5.646  -0.007 -0.3742  0.7236  0.0741
14857SOL    HW249419   4.876   5.667   0.121 -1.6288 -1.6660 -0.2671
14858SOL     OW49420   5.096   6.007   1.866 -0.1233 -0.3533 -0.4177
14858SOL    HW149421   5.050   6.032   1.786 -2.0285 -0.1751  0.7036
14858SOL    HW249422   5.065   5.919   1.885 -0.2759 -0.1025  0.5369
14859SOL     OW49423   2.548   6.863   2.711  0.1428  0.0271  0.2215
14859SOL    HW149424   2.478   6.888   2.652  0.2877  0.8355  0.3797
14859SOL    HW249425   2.604   6.941   2.717  1.8178 -1.0492 -0.9992
14860SOL     OW49426   5.263   6.581   2.528 -0.8316 -0.4703 -0.1043
14860SOL    HW149427   5.276   6.646   2.459 -3.0420 -1.4952 -1.5525
14860SOL    HW249428   5.314   6.505   2.498 -1.7596 -0.9021 -0.6037
14861SOL     OW49429   6.555   6.696   2.884  0.0233 -0.5741  0.0098
14861SOL    HW149430   6.644   6.660   2.879 -0.3262 -1.3655 -0.5064
14861SOL    HW249431   6.521   6.664   2.967 -0.5162 -1.9917 -0.7355
14862SOL     OW49432   7.010   5.759   1.643  0.3722 -0.0584 -0.7309
14862SOL    HW149433   7.078   5.825   1.628  0.9992  0.0821  2.4141
14862SOL    HW249434   6.987   5.728   1.555  2.4843  1.8977 -2.0342
14863SOL     OW49435   3.894   5.385   2.919 -0.2882 -0.3207 -0.2189
14863SOL    HW149436   3.799   5.387   2.906 -0.4598 -1.2735  0.7910
14863SOL    HW249437   3.930   5.398   2.831 -1.3358  1.0826 -0.4608
14864SOL     OW49438   3.238   7.590   4.518  0.0633  0.2370  0.0269
14864SOL    HW149439   3.284   7.506   4.516  0.6771  0.6054 -1.8907
14864SOL    HW249440   3.155   7.572   4.475  0.3584  0.6944 -0.7417
14865SOL     OW49441   4.620   7.263   0.357 -0.7975  0.2721  0.1654
14865SOL    HW149442   4.539   7.213   0.354  0.4612 -2.0299  2.5902
14865SOL    HW249443   4.689   7.197   0.363  1.0882  2.2471  0.8563
14866SOL     OW49444   5.136   6.883   0.913  0.0063  0.2181  0.3942
14866SOL    HW149445   5.208   6.918   0.966  1.7230  0.0566 -1.7539
14866SOL    HW249446   5.179   6.837   0.842 -2.2419 -2.2092  0.5159
14867SOL     OW49447   3.769   2.988   1.945  0.3823  0.0832  0.2101
14867SOL    HW149448   3.805   3.040   1.874 -0.3702  0.8719  0.4085
14867SOL    HW249449   3.844   2.940   1.980  0.9716  0.6320 -0.3069
14868SOL     OW49450   2.853   4.013   3.398  0.1224 -0.0365 -0.4232
14868SOL    HW149451   2.790   4.082   3.418 -1.0226 -0.8554 -1.2137
14868SOL    HW249452   2.807   3.931   3.415  1.2586 -0.6413 -0.1569
14869SOL     OW49453   6.625   4.177   4.648  0.3793 -0.0951  0.1861
14869SOL    HW149454   6.645   4.178   4.554 -0.3025 -3.2530 -0.0569
14869SOL    HW249455   6.709   4.163   4.691  0.4707 -0.2969 -0.0562
14870SOL     OW49456   5.165   5.895   2.633 -0.2099  0.7914  0.3284
14870SOL    HW149457   5.225   5.882   2.560 -0.0842 -0.0568  0.5669
14870SOL    HW249458   5.078   5.872   2.597 -0.2912  1.3565  0.1678
14871SOL     OW49459   5.503   6.126   3.182 -0.5247  0.2590  1.1069
14871SOL    HW149460   5.515   6.206   3.131  0.2394 -0.2915  0.4020
14871SOL    HW249461   5.424   6.086   3.146 -0.4637  0.3042  0.9177
14872SOL     OW49462   5.755   7.129   3.643  0.9553 -0.2219 -0.5215
14872SOL    HW149463   5.768   7.149   3.550  2.0454  0.5370 -0.2127
14872SOL    HW249464   5.838   7.092   3.672  1.0808  0.8148  0.4689
14873SOL     OW49465   2.340   5.565   3.928 -1.3384 -0.4793  0.2319
14873SOL    HW149466   2.277   5.542   3.996 -1.9715  1.7780  0.4403
14873SOL    HW249467   2.290   5.564   3.847 -1.0632 -1.1119  0.0646
14874SOL     OW49468   3.967   6.938   3.914 -0.0466 -0.0307  0.2777
14874SOL    HW149469   3.985   6.856   3.959 -0.7300 -0.0976  0.4394
14874SOL    HW249470   4.022   7.003   3.957 -0.4985 -0.1498  1.0395
14875SOL     OW49471   3.209   6.153   2.310 -0.7010 -0.0385  0.4177
14875SOL    HW149472   3.147   6.115   2.248  0.2522 -0.1803 -0.4681
14875SOL    HW249473   3.185   6.245   2.314  0.4213  0.3761 -1.6443
14876SOL     OW49474   3.927   6.268   3.461  0.1957  0.3170 -0.0619
14876SOL    HW149475   4.012   6.225   3.453  0.1167  0.0289  0.6465
14876SOL    HW249476   3.863   6.202   3.434 -0.0431 -0.5349  2.4518
14877SOL     OW49477   4.289   7.013   0.912  0.0280 -0.2484 -0.8600
14877SOL    HW149478   4.210   7.067   0.909 -1.3488 -2.0517  1.8712
14877SOL    HW249479   4.311   6.999   0.819 -2.5750  0.6557 -1.6602
14878SOL     OW49480   5.982   6.253   1.995 -0.5285  0.4043 -0.1289
14878SOL    HW149481   5.995   6.335   1.947 -1.0826  0.9566  0.6563
14878SOL    HW249482   5.906   6.212   1.952  0.6890 -0.4541 -1.5163
14879SOL     OW49483   6.685   9.163   2.419  0.6548 -0.3051 -0.7543
14879SOL    HW149484   6.730   9.082   2.442 -1.4665 -1.2882  0.0224
14879SOL    HW249485   6.719   9.227   2.482 -0.4405 -1.5135  1.1352
14880SOL     OW49486   4.973   7.136   2.512  0.2117 -0.4897  0.2332
14880SOL    HW149487   5.009   7.109   2.596  1.8997  0.0848 -0.2723
14880SOL    HW249488   4.982   7.232   2.512  1.3590 -0.5691 -1.0606
14881SOL     OW49489   4.668   6.429   2.451 -0.3815 -0.1518 -0.3353
14881SOL    HW149490   4.626   6.463   2.530  1.4630  1.5979 -0.0395
14881SOL    HW249491   4.708   6.507   2.410  1.4369 -1.5224 -1.2454
14882SOL     OW49492   5.679   5.910   0.656  0.1906 -0.4826  0.0190
14882SOL    HW149493   5.588   5.905   0.624  0.7512 -0.3189 -1.6568
14882SOL    HW249494   5.713   5.991   0.617  0.3941  0.6135  2.4247
14883SOL     OW49495   3.989   6.812   1.794 -0.0960 -0.3795 -0.2282
14883SOL    HW149496   4.061   6.752   1.814  0.7462  0.4610 -0.7238
14883SOL    HW249497   4.009   6.846   1.707 -0.6377  0.5296 -0.0027
14884SOL     OW49498   4.772   8.757   2.402  0.3248  0.6133  0.1433
14884SOL    HW149499   4.840   8.737   2.337  0.2338  0.4724  0.0935
14884SOL    HW249500   4.807   8.723   2.485 -0.4051 -0.9277 -0.1660
14885SOL     OW49501   4.470   8.729   3.550  0.5119 -0.1246 -1.1730
14885SOL    HW149502   4.410   8.750   3.478  0.5462  0.2198 -1.1058
14885SOL    HW249503   4.449   8.639   3.573 -0.2137  0.0968 -0.9334
14886SOL     OW49504   2.816   7.396   2.492  0.3009 -0.2645  0.4917
14886SOL    HW149505   2.895   7.344   2.506  0.3906 -0.0414  0.8112
14886SOL    HW249506   2.810   7.452   2.569 -2.1825 -2.8945  2.3464
14887SOL     OW49507   5.828   7.039   2.415  0.1230  0.0944 -0.1000
14887SOL    HW149508   5.763   7.060   2.482 -0.2168  0.7489 -0.6335
14887SOL    HW249509   5.814   7.104   2.346  1.0623 -0.0273 -0.4088
14888SOL     OW49510   2.884   7.943   1.025  0.0379  0.0415  0.1830
14888SOL    HW149511   2.960   8.001   1.032 -0.5336  0.9721 -1.0849
14888SOL    HW249512   2.819   7.995   0.978 -0.0653 -2.0453 -2.0903
14889SOL     OW49513   6.391   6.480   1.268  0.2822  0.4199  0.0715
14889SOL    HW149514   6.327   6.542   1.233 -1.0027 -1.1046 -0.3340
14889SOL    HW249515   6.447   6.457   1.193  0.8246  1.1494  0.2461
14890SOL     OW49516   6.326   5.645   2.959 -0.0297 -0.0145 -0.1732
14890SOL    HW149517   6.384   5.666   3.032  0.4715 -1.7888 -0.0168
14890SOL    HW249518   6.290   5.559   2.982 -2.0023  0.6570 -0.7226
14891SOL     OW49519   1.902   6.736   4.936  0.9198  0.0057 -0.3193
14891SOL    HW149520   1.831   6.753   4.998  0.5969  0.1337 -0.7206
14891SOL    HW249521   1.858   6.719   4.853  1.2820 -1.9049 -0.1251
14892SOL     OW49522   5.648   8.857   3.260 -0.5367  0.6492 -0.2397
14892SOL    HW149523   5.633   8.763   3.254  1.1779  0.3699 -0.4782
14892SOL    HW249524   5.592   8.895   3.191 -0.3560 -0.2909 -0.9143
14893SOL     OW49525   3.458   6.731   3.107 -0.0601 -0.1195 -0.0890
14893SOL    HW149526   3.397   6.732   3.033 -3.4572 -1.7243  2.5597
14893SOL    HW249527   3.433   6.806   3.160  1.5425  0.3114  0.0821
14894SOL     OW49528   6.196   6.625   3.373 -0.1879 -0.0737 -0.3564
14894SOL    HW149529   6.173   6.674   3.294  0.5463  0.4376 -0.2595
14894SOL    HW249530   6.159   6.676   3.445  0.0545  0.0158 -0.2958
14895SOL     OW49531   5.361   7.885   2.528  0.3660  0.2395 -0.6835
14895SOL    HW149532   5.349   7.974   2.494 -1.6317 -0.1267 -1.0392
14895SOL    HW249533   5.426   7.846   2.470  1.5386  1.5865 -0.2932
14896SOL     OW49534   4.883   5.986   2.560 -0.6613  0.6530  0.4426
14896SOL    HW149535   4.808   5.949   2.514  0.2076 -1.1815  0.4328
14896SOL    HW249536   4.886   6.077   2.532 -1.9012  0.3245 -0.8285
14897SOL     OW49537   3.990   4.668   3.155 -0.0761 -0.2995  0.1169
14897SOL    HW149538   4.032   4.691   3.072 -1.4247  0.0868 -0.4832
14897SOL    HW249539   4.057   4.681   3.221  0.9739 -0.4687 -0.9020
14898SOL     OW49540   3.037   4.558   2.156 -0.0289  0.1319 -0.2562
14898SOL    HW149541   2.977   4.602   2.095  0.0564  2.2023  1.0945
14898SOL    HW249542   3.045   4.619   2.230  0.0781 -2.1942  1.7290
14899SOL     OW49543   4.696   6.980   1.121  0.0270  0.6648 -0.5250
14899SOL    HW149544   4.761   6.986   1.051  1.1601  2.3030  0.6128
14899SOL    HW249545   4.714   7.056   1.177 -2.2120  0.5703  0.3869
14900SOL     OW49546   5.538   6.507   2.062 -0.0913  0.2852  0.1238
14900SOL    HW149547   5.524   6.597   2.034 -0.3666  0.2109  0.0209
14900SOL    HW249548   5.450   6.468   2.064  0.2277 -0.6722 -2.1877
14901SOL     OW49549   3.513   5.489   3.066 -0.1639  0.2446  0.1814
14901SOL    HW149550   3.442   5.532   3.114 -0.6253  0.1340 -0.3957
14901SOL    HW249551   3.506   5.397   3.089  0.0467  0.2924  0.4414
14902SOL     OW49552   3.221   8.622   2.181  0.7646 -0.2113  0.1520
14902SOL    HW149553   3.202   8.716   2.188 -0.2460 -0.2362 -1.7876
14902SOL    HW249554   3.259   8.613   2.094  1.8950 -1.4479  0.7729
14903SOL     OW49555   5.333   5.113   2.789  0.3198 -0.0208  0.2896
14903SOL    HW149556   5.301   5.058   2.861  1.1583  0.8662  1.3607
14903SOL    HW249557   5.254   5.150   2.750 -0.2817 -2.1330 -0.6051
14904SOL     OW49558   2.946   7.172   0.537 -0.3720  0.4146  0.0585
14904SOL    HW149559   2.918   7.124   0.615 -2.2545 -1.1679 -1.5111
14904SOL    HW249560   2.866   7.187   0.488  0.9241  0.1869 -2.2166
14905SOL     OW49561   6.008   6.630   2.973  0.3681 -0.7011  0.3798
14905SOL    HW149562   6.100   6.652   2.981 -0.1968  0.7074  3.5408
14905SOL    HW249563   6.004   6.536   2.989  1.0168 -0.3711  2.5672
14906SOL     OW49564   2.601   4.366   3.609  0.2561  0.2788  0.1845
14906SOL    HW149565   2.509   4.361   3.635  0.3593 -2.1309  0.1547
14906SOL    HW249566   2.646   4.401   3.685 -0.3603 -0.6702  0.9870
14907SOL     OW49567   5.492   5.610   0.595 -0.5905  0.2293 -0.4420
14907SOL    HW149568   5.469   5.521   0.569 -0.9807 -0.2916  1.6361
14907SOL    HW249569   5.534   5.647   0.517 -1.0004 -1.5445 -1.5425
14908SOL     OW49570   2.896   5.345   3.985 -0.1212  0.4713 -0.1161
14908SOL    HW149571   2.848   5.403   3.926  1.0957  0.9519 -0.6452
14908SOL    HW249572   2.917   5.401   4.060 -0.9333  0.0917  0.3948
14909SOL     OW49573   5.148   3.723   1.485  0.3479  0.6588 -0.4309
14909SOL    HW149574   5.195   3.683   1.558  2.0610  0.4483 -1.6084
14909SOL    HW249575   5.077   3.663   1.467  0.3746  0.3168  0.5616
14910SOL     OW49576   6.036   6.118   2.771 -0.1711  0.5678 -0.4567
14910SOL    HW149577   6.062   6.196   2.822  1.0397 -0.0750 -0.0584
14910SOL    HW249578   6.117   6.092   2.727 -0.5702 -0.4903 -0.5539
14911SOL     OW49579   7.180   7.831   2.349  0.6840  0.2336 -0.0520
14911SOL    HW149580   7.220   7.791   2.272  1.6814 -0.4642  0.8094
14911SOL    HW249581   7.134   7.759   2.392 -0.6027  0.8033 -0.4545
14912SOL     OW49582   5.926   7.992   2.775  0.0510  0.5475 -0.7131
14912SOL    HW149583   6.011   8.006   2.818  0.7986 -0.9725 -1.6547
14912SOL    HW249584   5.866   8.050   2.822  0.5792 -1.8082  3.0610
14913SOL     OW49585   6.332   8.264   1.774  0.2178  0.4757 -0.1687
14913SOL    HW149586   6.237   8.271   1.758  0.2498 -1.8637 -1.6008
14913SOL    HW249587   6.354   8.174   1.749  3.0778  1.3932 -1.1327
14914SOL     OW49588   4.038   7.328   1.999 -0.4786 -0.0077  0.3046
14914SOL    HW149589   4.001   7.241   1.983 -1.0227  0.4224 -0.8246
14914SOL    HW249590   3.967   7.377   2.040 -0.6634  0.3549 -0.4467
14915SOL     OW49591   5.659   6.787   2.935 -0.3116 -0.2860  0.0369
14915SOL    HW149592   5.718   6.862   2.936 -0.4995 -0.1459  1.1885
14915SOL    HW249593   5.662   6.753   3.024 -0.6271 -1.3385 -0.3463
14916SOL     OW49594   5.559   4.356   1.775 -0.1928  0.1489  0.0575
14916SOL    HW149595   5.564   4.415   1.700  0.5400 -1.8361 -1.4731
14916SOL    HW249596   5.639   4.304   1.772 -1.2975 -1.6761  0.7371
14917SOL     OW49597   5.960   7.197   1.373  0.2205 -0.4320 -0.3595
14917SOL    HW149598   5.881   7.251   1.378 -0.5475 -1.6066  0.4073
14917SOL    HW249599   5.933   7.111   1.406  2.2510 -0.3711  1.5525
14918SOL     OW49600   4.251   9.051   1.251 -0.7159  0.8469 -0.0969
14918SOL    HW149601   4.269   8.979   1.312  1.9043  0.8002 -0.8818
14918SOL    HW249602   4.156   9.046   1.236 -1.1122 -0.3027  2.4885
14919SOL     OW49603   3.358   6.322   1.365 -0.1207  0.0001 -0.1171
14919SOL    HW149604   3.452   6.329   1.385 -0.5442 -2.4652  2.9881
14919SOL    HW249605   3.354   6.259   1.293  0.5270 -0.3156  0.1198
14920SOL     OW49606   4.199   6.880   1.396 -0.1611  0.2786 -0.0064
14920SOL    HW149607   4.241   6.828   1.465  0.0521  1.1117  0.5030
14920SOL    HW249608   4.123   6.919   1.439  0.9663  2.2417  0.2643
14921SOL     OW49609   7.113   7.037   1.273 -0.4315  0.2208  0.6595
14921SOL    HW149610   7.041   7.100   1.262 -1.5258 -0.8805  1.2767
14921SOL    HW249611   7.192   7.089   1.270 -1.3505  1.7208  1.7706
14922SOL     OW49612   3.889   7.774   4.195 -0.3883  0.0585  0.0400
14922SOL    HW149613   3.878   7.768   4.100  0.3445 -0.1005 -0.0373
14922SOL    HW249614   3.902   7.867   4.212  0.6143 -0.0413 -0.1471
14923SOL     OW49615   3.149   8.429   1.491 -0.1015 -0.2473 -1.0833
14923SOL    HW149616   3.147   8.521   1.466 -0.9386 -0.7733 -3.0059
14923SOL    HW249617   3.146   8.381   1.408  1.4893 -2.0047 -0.1670
14924SOL     OW49618   7.096   5.913   2.454  0.1263  0.2996  0.0888
14924SOL    HW149619   7.149   5.833   2.451  0.1228  0.3089 -0.3067
14924SOL    HW249620   7.017   5.891   2.405 -0.1497  0.3466  0.5209
14925SOL     OW49621   5.112   4.914   1.435 -0.0988  0.1531 -0.4290
14925SOL    HW149622   5.101   4.984   1.371  1.1793  0.9810  0.2261
14925SOL    HW249623   5.196   4.874   1.412 -1.2827 -1.8608 -1.4286
14926SOL     OW49624   3.006   7.086   2.830 -0.1383 -0.2809  0.0461
14926SOL    HW149625   2.952   7.156   2.795  0.0117 -0.2509 -0.1250
14926SOL    HW249626   2.978   7.007   2.783  0.3002 -0.1790 -0.3873
14927SOL     OW49627   4.312   7.467   0.643 -0.9081  0.5974  0.1510
14927SOL    HW149628   4.295   7.554   0.680 -0.1788 -0.0334  2.0484
14927SOL    HW249629   4.226   7.428   0.630 -1.2233  1.4491 -0.3640
14928SOL     OW49630   4.480   6.424   1.403 -0.2284  0.1575 -0.0834
14928SOL    HW149631   4.431   6.503   1.382 -1.4078 -0.5416 -0.0515
14928SOL    HW249632   4.491   6.380   1.318 -0.8962 -0.3766  0.1043
14929SOL     OW49633   4.527   7.733   1.191 -0.0072  0.1746  0.1079
14929SOL    HW149634   4.622   7.734   1.200  0.1039  0.7476 -1.0967
14929SOL    HW249635   4.498   7.814   1.234  0.0014 -0.2382  0.9042
14930SOL     OW49636   4.708   5.553   2.302 -0.5943 -0.1637  0.1160
14930SOL    HW149637   4.658   5.486   2.255 -0.1423 -0.6724  0.3515
14930SOL    HW249638   4.680   5.635   2.264 -0.9930 -0.5064 -0.3352
14931SOL     OW49639   4.772   6.839   3.043 -0.5928 -0.3478  0.4940
14931SOL    HW149640   4.857   6.879   3.027  1.0876 -3.5075  1.0869
14931SOL    HW249641   4.738   6.885   3.120  1.4200 -0.2768  1.3806
14932SOL     OW49642   4.716   7.009   0.408  0.2669 -0.6375 -0.3705
14932SOL    HW149643   4.788   6.956   0.374  0.2984 -0.6085 -0.3493
14932SOL    HW249644   4.724   7.003   0.503  0.8131  0.1419 -0.3673
14933SOL     OW49645   5.003   7.629   4.050  0.8150  0.1085  0.5482
14933SOL    HW149646   4.944   7.638   4.125  0.6653  1.1273  0.3117
14933SOL    HW249647   5.075   7.576   4.083  0.1205 -0.5292  1.0463
14934SOL     OW49648   4.608   3.190   9.290  0.2201 -0.4921 -0.4370
14934SOL    HW149649   4.655   3.123   9.338  1.1377  1.7275  1.8434
14934SOL    HW249650   4.516   3.165   9.297  0.5333 -1.3551  0.6501
14935SOL     OW49651   4.620   3.964   3.604  0.3421  0.0164 -0.1156
14935SOL    HW149652   4.583   3.893   3.551  0.8625  0.1651 -0.6813
14935SOL    HW249653   4.555   3.979   3.672 -0.7003  0.3518 -1.1618
14936SOL     OW49654   6.014   3.330   2.269 -0.0698 -0.0446  0.2937
14936SOL    HW149655   6.006   3.296   2.180 -1.3241 -2.5599  1.3276
14936SOL    HW249656   6.100   3.302   2.298 -0.4268 -0.8961  0.5426
14937SOL     OW49657   3.970   6.954   1.532 -0.1350  0.4967 -0.4195
14937SOL    HW149658   3.985   7.047   1.551  0.0532  0.2203  0.8407
14937SOL    HW249659   3.886   6.935   1.572  0.3891 -0.1702  0.3798
14938SOL     OW49660   3.971   9.035   4.607  0.8080 -0.1455 -0.1852
14938SOL    HW149661   3.901   9.100   4.611  1.4315  0.7035 -2.5146
14938SOL    HW249662   4.018   9.045   4.691 -1.5353 -0.4157  1.1968
14939SOL     OW49663   3.941   3.968   3.700 -0.4030  0.1237 -0.6927
14939SOL    HW149664   3.980   3.961   3.787 -0.1911 -0.0368 -0.8033
14939SOL    HW249665   3.867   4.028   3.713 -0.6941 -0.3229 -0.2922
14940SOL     OW49666   3.605   5.368   3.504  0.1503 -0.1938 -0.2004
14940SOL    HW149667   3.677   5.411   3.549  0.8217 -0.0226 -1.4065
14940SOL    HW249668   3.634   5.277   3.494 -0.1084 -0.2931 -0.0348
14941SOL     OW49669   3.950   7.207   3.234  0.2333 -0.5673 -0.3710
14941SOL    HW149670   3.919   7.132   3.183 -1.0699 -0.5168  0.3343
14941SOL    HW249671   3.879   7.270   3.231  1.1682  0.4871 -0.6242
14942SOL     OW49672   3.689   5.648   2.915  0.4122 -0.0255  0.0856
14942SOL    HW149673   3.620   5.604   2.963 -0.3708 -0.4216 -1.3874
14942SOL    HW249674   3.715   5.586   2.846  1.0332  0.7971 -0.4385
14943SOL     OW49675   5.708   6.677   3.198  0.2217 -0.6747  0.0435
14943SOL    HW149676   5.670   6.746   3.252 -0.5393 -0.8735 -0.2285
14943SOL    HW249677   5.802   6.695   3.198  0.2529 -0.8126  1.6183
14944SOL     OW49678   6.077   5.156   2.853  0.3444 -0.2313  0.1078
14944SOL    HW149679   6.063   5.233   2.908  0.4097 -0.3349  0.2710
14944SOL    HW249680   6.170   5.159   2.830  0.0084  0.6018 -1.1950
14945SOL     OW49681   7.404   4.959   2.662  0.0320 -0.9614 -0.4894
14945SOL    HW149682   7.394   5.044   2.619  0.7098  0.3426  1.8429
14945SOL    HW249683   7.498   4.943   2.662  0.1307 -0.4981  1.2955
14946SOL     OW49684   1.658   6.488   3.221  0.2541  0.4005  0.3353
14946SOL    HW149685   1.641   6.541   3.144  0.0894 -1.7803 -1.1818
14946SOL    HW249686   1.575   6.444   3.239  0.3508  0.7206  1.6464
14947SOL     OW49687   6.448   7.469   5.261 -0.7283 -0.2538  0.0191
14947SOL    HW149688   6.516   7.420   5.307  2.0526 -0.7293 -4.3343
14947SOL    HW249689   6.381   7.403   5.242 -0.2986 -0.8075  0.3876
14948SOL     OW49690   4.587   8.978   2.341  0.0251  0.4151  0.3544
14948SOL    HW149691   4.651   9.045   2.318 -1.6306  2.0283  0.3432
14948SOL    HW249692   4.638   8.897   2.346  2.0447  1.6421  0.2826
14949SOL     OW49693   2.007   6.124   8.153 -0.0307 -0.8163  0.3987
14949SOL    HW149694   2.020   6.090   8.064 -1.2826 -1.2561  0.3720
14949SOL    HW249695   1.921   6.167   8.149 -0.4390 -1.5151  1.5939
14950SOL     OW49696   3.067   8.972   3.902  0.1650  0.1354 -0.2209
14950SOL    HW149697   3.006   8.943   3.969  0.2655 -1.0423 -0.6339
14950SOL    HW249698   3.064   9.068   3.906 -1.4810  0.0768 -0.0460
14951SOL     OW49699   6.427   9.587   6.032 -0.4599 -0.3969 -0.4963
14951SOL    HW149700   6.337   9.595   6.066 -0.4561 -1.1138 -0.3093
14951SOL    HW249701   6.417   9.596   5.937 -0.9267 -1.9565 -0.6085
14952SOL     OW49702   3.585   5.066   2.517  0.5981 -0.5642 -0.0692
14952SOL    HW149703   3.534   5.043   2.439  1.1746  0.9328 -0.9087
14952SOL    HW249704   3.527   5.044   2.590 -0.5081 -0.6552 -0.9502
14953SOL     OW49705   7.811   6.582   3.581  0.0722 -0.3078  0.2358
14953SOL    HW149706   7.816   6.495   3.619  1.5450  0.6063  2.1912
14953SOL    HW249707   7.751   6.630   3.637  2.5955  1.1751  1.7364
14954SOL     OW49708   3.154   8.082   3.581 -0.1657 -0.1580 -0.1645
14954SOL    HW149709   3.081   8.129   3.542  0.1982 -0.6811 -1.5225
14954SOL    HW249710   3.192   8.033   3.508  0.8144 -0.8060  0.7685
14955SOL     OW49711   4.115   7.639   3.076  0.0083 -0.3071  0.0004
14955SOL    HW149712   4.115   7.668   3.167 -2.6735 -1.3787  0.3734
14955SOL    HW249713   4.025   7.651   3.046  0.5818 -1.0853 -2.1521
14956SOL     OW49714   3.748   7.412   3.782  0.3063 -0.1711  0.3383
14956SOL    HW149715   3.802   7.384   3.709  0.8133  1.2140  0.1553
14956SOL    HW249716   3.808   7.458   3.841 -0.4311  0.2957  0.7448
14957SOL     OW49717   4.260   9.037   5.069  0.0906  0.0499  0.7740
14957SOL    HW149718   4.324   9.107   5.077  1.3992 -1.0638  0.3615
14957SOL    HW249719   4.221   9.030   5.156  0.8146  0.4947  1.1406
14958SOL     OW49720   3.773   7.707   3.914  0.1648 -0.0718  0.7274
14958SOL    HW149721   3.685   7.702   3.951 -0.0782 -1.2057 -0.0029
14958SOL    HW249722   3.763   7.762   3.836 -0.3059 -1.8876 -0.5210
14959SOL     OW49723   3.642   6.041   1.698  0.0708 -0.4405  0.7168
14959SOL    HW149724   3.685   6.124   1.720 -1.8231  0.6372  0.4192
14959SOL    HW249725   3.638   5.994   1.781 -0.1714  0.3896  1.1788
14960SOL     OW49726   6.910   5.965   3.046 -0.0385 -0.2163 -0.3708
14960SOL    HW149727   6.997   5.924   3.045  1.2575  2.4601 -1.1200
14960SOL    HW249728   6.893   5.988   2.954 -0.7853  0.8063  0.0122
14961SOL     OW49729   4.941   8.524   4.628  0.0025  0.3243  0.3071
14961SOL    HW149730   4.978   8.450   4.676  0.7072 -0.0273 -0.7573
14961SOL    HW249731   5.004   8.595   4.641  1.2572 -0.3761 -1.7941
14962SOL     OW49732   5.791   3.781   3.809  0.3939 -0.2850 -0.4215
14962SOL    HW149733   5.753   3.734   3.736  1.1315  0.1307 -1.0805
14962SOL    HW249734   5.744   3.749   3.886 -0.7708 -0.3079 -1.1403
14963SOL     OW49735   5.982   6.126   3.549  0.2946 -0.3007  0.0072
14963SOL    HW149736   6.014   6.205   3.506  0.5592  0.2487  1.1943
14963SOL    HW249737   5.887   6.131   3.541  0.2948  0.2971  0.3525
14964SOL     OW49738   1.687   6.644   6.693 -0.3335 -0.2697  0.2604
14964SOL    HW149739   1.700   6.632   6.787 -1.1853  0.3693  0.4668
14964SOL    HW249740   1.739   6.722   6.672  0.8351 -1.1260 -0.0349
14965SOL     OW49741   2.301   7.218   5.442 -0.2960  0.0277  0.5207
14965SOL    HW149742   2.393   7.195   5.434  0.0375  1.9881 -2.3865
14965SOL    HW249743   2.254   7.145   5.402  0.4109  1.5354 -3.2948
14966SOL     OW49744   6.169   6.785   7.492  0.5395 -0.2132 -0.0190
14966SOL    HW149745   6.147   6.697   7.520 -1.1103 -0.6820 -2.5753
14966SOL    HW249746   6.089   6.836   7.505  1.0037  0.5300 -0.0042
14967SOL     OW49747   5.444   4.044   3.203  0.1805  0.2908  0.1144
14967SOL    HW149748   5.502   4.008   3.136  0.7759  0.0642  0.7509
14967SOL    HW249749   5.502   4.065   3.276 -0.5346  0.0690  0.7515
14968SOL     OW49750   3.315   7.638   5.616  0.4344  0.1703 -0.0253
14968SOL    HW149751   3.332   7.732   5.623  2.1801 -0.1770  0.5636
14968SOL    HW249752   3.249   7.620   5.682  0.9111  0.7912  0.6261
14969SOL     OW49753   3.942   4.710   2.570 -0.3161 -0.5057  0.2692
14969SOL    HW149754   3.955   4.649   2.498  1.3130 -1.8956  1.6826
14969SOL    HW249755   3.864   4.759   2.547  0.4882 -0.5331 -2.6926
14970SOL     OW49756   4.154   9.106   4.783 -0.6673 -0.0924  0.3868
14970SOL    HW149757   4.127   9.157   4.859 -0.3316  2.1133 -0.9351
14970SOL    HW249758   4.243   9.078   4.803 -0.2291  1.2833  0.4225
14971SOL     OW49759   5.962   8.470   5.440 -0.1643 -0.0074  0.5636
14971SOL    HW149760   5.925   8.495   5.525 -1.6979 -0.1878 -0.0340
14971SOL    HW249761   5.929   8.535   5.379 -1.1359 -1.3111 -0.3303
14972SOL     OW49762   6.262   7.187   3.825 -0.4715  0.1052 -0.4420
14972SOL    HW149763   6.262   7.254   3.757  0.0051  0.5549 -0.0112
14972SOL    HW249764   6.325   7.121   3.794  1.5230  1.4374  0.6170
14973SOL     OW49765   5.487   6.371   2.881 -0.1648 -0.4181  0.0638
14973SOL    HW149766   5.567   6.340   2.838  0.5043 -0.2058  1.1214
14973SOL    HW249767   5.518   6.410   2.963 -1.2295  0.8128 -0.1019
14974SOL     OW49768   7.307   5.332   1.692  0.3413 -0.1620 -0.0946
14974SOL    HW149769   7.247   5.301   1.625 -0.2480 -1.0371  0.8293
14974SOL    HW249770   7.278   5.422   1.711 -2.3013 -1.4227  2.1514
14975SOL     OW49771   6.768   3.500   3.298  0.1818 -0.3415  0.0020
14975SOL    HW149772   6.726   3.526   3.380  1.1435 -0.7288  0.6193
14975SOL    HW249773   6.783   3.406   3.308 -0.3377 -0.5241 -0.9052
14976SOL     OW49774   5.879   7.620   4.182 -0.1032 -0.2407 -0.8977
14976SOL    HW149775   5.817   7.687   4.211  0.0129 -1.0024  1.2163
14976SOL    HW249776   5.825   7.543   4.165  0.1114 -0.5798 -0.0966
14977SOL     OW49777   2.879   4.911   5.246  0.1229  0.0017 -0.2725
14977SOL    HW149778   2.889   4.986   5.188  0.3656  0.4830  0.3814
14977SOL    HW249779   2.904   4.836   5.193 -1.2690  0.2485 -1.3013
14978SOL     OW49780   4.434   7.594   7.133 -0.1805 -0.1193 -0.6919
14978SOL    HW149781   4.505   7.638   7.085  1.0936 -0.5598  0.7471
14978SOL    HW249782   4.393   7.663   7.184  0.7831 -0.2861  0.3279
14979SOL     OW49783   6.024   8.009   5.543 -0.3899  0.2295  0.1411
14979SOL    HW149784   6.084   8.070   5.501 -1.1411  1.7447  1.1967
14979SOL    HW249785   5.951   8.064   5.572  0.2287 -0.6732  3.6272
14980SOL     OW49786   7.391   5.871   6.612  0.4989  0.3999 -0.4432
14980SOL    HW149787   7.312   5.920   6.633  0.2663  0.0606 -0.5228
14980SOL    HW249788   7.449   5.935   6.570 -0.0071  0.4844 -1.0175
14981SOL     OW49789   8.449   4.982   3.403  0.1802  0.3118 -0.6907
14981SOL    HW149790   8.364   4.987   3.447 -0.2415  2.0791 -1.6775
14981SOL    HW249791   8.494   4.909   3.446 -1.3806  0.1036  0.6241
14982SOL     OW49792   3.632   7.673   5.966 -0.0400 -0.2003  0.4557
14982SOL    HW149793   3.558   7.715   6.010  0.1545  2.0848 -1.3152
14982SOL    HW249794   3.709   7.698   6.018 -0.4382 -2.4243  2.1877
14983SOL     OW49795   4.866   5.427   2.052 -0.0632  0.0604  0.1330
14983SOL    HW149796   4.879   5.333   2.066 -1.2998  0.0505  1.3551
14983SOL    HW249797   4.799   5.451   2.116  0.0164  1.7145 -0.3943
14984SOL     OW49798   8.102   6.031   3.897 -0.0386  0.1112  0.4456
14984SOL    HW149799   8.145   6.047   3.981  0.2401 -0.2280  0.3722
14984SOL    HW249800   8.169   5.987   3.844  0.2688  1.6654 -0.4673
14985SOL     OW49801   6.608   8.249   2.472 -0.2597 -0.0807 -0.2907
14985SOL    HW149802   6.636   8.320   2.415  2.1180 -0.7791 -0.0247
14985SOL    HW249803   6.572   8.293   2.549  1.3952  0.8483 -0.0398
14986SOL     OW49804   7.557   6.958   5.091  0.0303 -0.2135  0.6973
14986SOL    HW149805   7.643   6.967   5.050  0.3248 -0.4676  1.2561
14986SOL    HW249806   7.496   6.950   5.018  0.5297 -0.4277  0.3041
14987SOL     OW49807   4.964   7.559   3.143 -0.3885 -0.1416  0.0124
14987SOL    HW149808   4.913   7.612   3.082  0.3355 -0.4758 -0.8863
14987SOL    HW249809   5.003   7.622   3.203 -1.9758  0.1135  0.8224
14988SOL     OW49810   4.535   8.205   4.260  0.0886 -0.1779  0.3573
14988SOL    HW149811   4.553   8.140   4.328  1.0197 -0.4812 -0.1685
14988SOL    HW249812   4.469   8.163   4.205  1.2158 -1.0005 -0.4005
14989SOL     OW49813   5.628   7.427   2.753  0.2267  0.7027  0.0061
14989SOL    HW149814   5.600   7.509   2.713  1.0746  0.5086 -0.9811
14989SOL    HW249815   5.719   7.442   2.779 -0.0589  0.5571  1.1518
14990SOL     OW49816   4.117   7.926   7.056 -0.4356 -0.8226  0.0065
14990SOL    HW149817   4.197   7.888   7.019 -0.0779 -1.2590  1.2110
14990SOL    HW249818   4.129   8.020   7.046  0.2935 -0.8778  0.3045
14991SOL     OW49819   4.984   7.574   2.140  0.5334 -0.3070 -0.4599
14991SOL    HW149820   4.984   7.537   2.052 -0.5720  0.9143 -1.0080
14991SOL    HW249821   4.918   7.523   2.187 -2.5841  2.2179 -1.8330
14992SOL     OW49822   7.495   5.731   5.971  0.4262 -0.1528  0.3316
14992SOL    HW149823   7.465   5.673   5.901  0.8350 -1.4165  1.2022
14992SOL    HW249824   7.581   5.697   5.995  0.7090  0.8688  0.7886
14993SOL     OW49825   4.822   8.335   5.900 -0.3848 -0.1089  0.1305
14993SOL    HW149826   4.797   8.345   5.808 -2.3981  0.2478  0.6866
14993SOL    HW249827   4.844   8.424   5.929  1.9692 -0.4735 -0.4547
14994SOL     OW49828   4.914   6.246   2.766  0.6255 -0.0972  0.8141
14994SOL    HW149829   4.861   6.321   2.738 -1.3744 -1.2297  1.4862
14994SOL    HW249830   4.985   6.242   2.702 -1.0954  0.3835 -1.1791
14995SOL     OW49831   4.317   2.245   4.595 -0.2548  0.1249  0.0734
14995SOL    HW149832   4.326   2.264   4.502 -1.6187 -0.2936 -0.1539
14995SOL    HW249833   4.224   2.229   4.607  0.2640 -2.3557  1.0344
14996SOL     OW49834   4.247   6.745   2.261  0.4680 -0.3449 -0.7957
14996SOL    HW149835   4.176   6.797   2.224  0.6529  0.1774 -0.4269
14996SOL    HW249836   4.309   6.735   2.189  1.3077  1.5326 -0.3886
14997SOL     OW49837   2.486   7.387   4.536 -0.5746 -0.0963 -0.1095
14997SOL    HW149838   2.505   7.356   4.625 -0.9535  1.7936  0.6648
14997SOL    HW249839   2.396   7.357   4.520 -0.3914 -0.7249  0.0112
14998SOL     OW49840   5.008   5.435   2.861  0.0211 -0.6316 -0.0490
14998SOL    HW149841   5.037   5.397   2.945 -1.1394  1.2114  1.2115
14998SOL    HW249842   4.942   5.499   2.885  1.2576  1.5356 -2.2283
14999SOL     OW49843   3.130   7.965   3.152 -0.1251 -0.2128  0.1396
14999SOL    HW149844   3.171   7.884   3.123  4.0239  2.3877 -1.6478
14999SOL    HW249845   3.043   7.963   3.112  0.4221 -3.0586 -1.0553
15000SOL     OW49846   6.311   6.884   3.246 -0.3756 -0.2512 -0.2721
15000SOL    HW149847   6.390   6.938   3.258 -0.1058 -1.1533  2.1171
15000SOL    HW249848   6.246   6.924   3.303 -0.9814 -0.8960 -0.5049
15001SOL     OW49849   5.403   5.404   1.348 -0.3374 -0.0477 -0.0238
15001SOL    HW149850   5.477   5.452   1.312 -1.1923  1.1827 -0.1817
15001SOL    HW249851   5.431   5.378   1.435  0.0361  1.0132  0.1811
15002SOL     OW49852   6.240   7.160   5.422 -0.2973  0.3690  0.2600
15002SOL    HW149853   6.330   7.167   5.453 -0.4627  0.1578  0.8013
15002SOL    HW249854   6.190   7.133   5.500 -1.0008  1.5678  0.2326
15003SOL     OW49855   6.139   6.375   3.468 -0.0390  0.5934  0.0796
15003SOL    HW149856   6.136   6.452   3.412 -1.1114  0.7698  0.3627
15003SOL    HW249857   6.231   6.365   3.491  0.3017  0.9628 -1.0950
15004SOL     OW49858   7.288   4.767   2.831  0.6971  0.5926 -0.3765
15004SOL    HW149859   7.322   4.829   2.767  1.3066 -0.8197 -1.4231
15004SOL    HW249860   7.194   4.761   2.812  0.7953  0.5283 -0.8276
15005SOL     OW49861   6.518   9.309   5.750  0.2235 -0.4465  0.1963
15005SOL    HW149862   6.507   9.237   5.688  2.2668 -0.2566 -0.4221
15005SOL    HW249863   6.556   9.268   5.828 -1.0197 -0.4445  0.8219
15006SOL     OW49864   6.423   7.730   5.518 -0.3381 -0.4173 -0.2476
15006SOL    HW149865   6.500   7.700   5.470 -0.1782  0.3617 -0.4924
15006SOL    HW249866   6.402   7.814   5.478 -2.3171 -1.3791 -1.3039
15007SOL     OW49867   7.225   5.667   3.588 -0.3293 -0.4165  0.0448
15007SOL    HW149868   7.145   5.662   3.538  0.1777 -1.1654 -0.7032
15007SOL    HW249869   7.289   5.708   3.529  0.0637 -0.6048  0.3305
15008SOL     OW49870   4.666   3.270   3.227 -0.0541  0.3237  0.0072
15008SOL    HW149871   4.575   3.265   3.197 -0.7507  1.2524  1.8969
15008SOL    HW249872   4.690   3.179   3.245 -0.6725  0.1045 -0.2563
15009SOL     OW49873   3.082   4.257   4.174  0.0978  0.4380 -0.2732
15009SOL    HW149874   3.138   4.212   4.237 -0.6576 -2.3457 -1.5284
15009SOL    HW249875   3.143   4.289   4.107  0.4150 -0.9592 -0.6742
15010SOL     OW49876   6.207   7.638   4.624  0.7928  0.4901  0.1779
15010SOL    HW149877   6.296   7.620   4.595  0.6666  0.8069 -0.4341
15010SOL    HW249878   6.214   7.720   4.674  1.0851 -0.3051  1.4531
15011SOL     OW49879   3.933   4.293   3.025 -0.0680  0.6894  0.0671
15011SOL    HW149880   3.891   4.213   3.056  3.6365 -0.1606  3.2863
15011SOL    HW249881   3.994   4.264   2.956 -1.6358  1.3462 -1.6371
15012SOL     OW49882   6.015   3.295   4.624 -0.3140  0.4602  0.1979
15012SOL    HW149883   5.933   3.302   4.575  0.3977  0.3817 -1.0338
15012SOL    HW249884   6.040   3.203   4.617 -0.9213  0.1521  1.9146
15013SOL     OW49885   6.621   8.316   7.890 -0.3933  0.6850  0.0428
15013SOL    HW149886   6.557   8.378   7.853 -0.9020 -0.8005 -1.6658
15013SOL    HW249887   6.571   8.235   7.902  1.2050 -0.6076 -1.6867
15014SOL     OW49888   3.620   8.167   3.970  0.3133 -0.6467 -0.3845
15014SOL    HW149889   3.616   8.252   4.014  1.1459 -0.9063  0.2056
15014SOL    HW249890   3.557   8.174   3.899 -0.7711 -0.0872  0.6215
15015SOL     OW49891   2.944   6.242   4.641  0.3631 -0.0697 -0.5217
15015SOL    HW149892   2.941   6.178   4.570  1.1180 -2.4523  1.5115
15015SOL    HW249893   2.932   6.191   4.720  1.3194  2.2762  1.2145
15016SOL     OW49894   4.167   6.544   2.775  0.5531  0.2888  0.6651
15016SOL    HW149895   4.221   6.522   2.851  1.9737  1.1244 -0.0834
15016SOL    HW249896   4.185   6.636   2.758  0.2454  0.1143 -0.6935
15017SOL     OW49897   3.054   5.338   1.411 -0.2178 -0.0911 -0.6500
15017SOL    HW149898   3.111   5.354   1.486 -0.6122 -1.2960 -0.0670
15017SOL    HW249899   3.110   5.354   1.335  1.5599 -3.1906 -0.1047
15018SOL     OW49900   4.893   5.548   9.039 -0.4002 -0.4821 -0.1556
15018SOL    HW149901   4.900   5.602   8.961  3.7095 -0.4531  0.1179
15018SOL    HW249902   4.898   5.458   9.007 -1.2399 -0.5330 -0.1388
15019SOL     OW49903   4.488   8.020   4.484 -0.2456 -0.1538 -0.1819
15019SOL    HW149904   4.417   7.959   4.467 -1.0785  0.2645  1.6512
15019SOL    HW249905   4.539   7.979   4.554 -0.3446  0.8719  0.4989
15020SOL     OW49906   3.534   4.148   2.412  0.5020 -0.2141 -0.3245
15020SOL    HW149907   3.629   4.151   2.405  0.4677  0.7193 -0.4518
15020SOL    HW249908   3.513   4.055   2.420  1.3012 -0.5572 -2.0210
15021SOL     OW49909   4.773   4.168   2.936  0.2541 -0.0229 -0.0988
15021SOL    HW149910   4.826   4.091   2.959  2.5983  1.2582 -1.0153
15021SOL    HW249911   4.827   4.216   2.874 -1.8523  1.5864 -0.7285
15022SOL     OW49912   4.802   7.126   2.928 -0.1670  0.2720 -0.2070
15022SOL    HW149913   4.795   7.183   2.851  2.1191  0.8330 -0.0511
15022SOL    HW249914   4.842   7.045   2.894  0.5241  0.3921  0.3121
15023SOL     OW49915   5.251   7.793   4.708  0.1548  0.6214 -0.2605
15023SOL    HW149916   5.269   7.845   4.630 -1.2595  1.8241  0.1861
15023SOL    HW249917   5.329   7.804   4.763  1.0573 -0.0592 -1.4007
15024SOL     OW49918   6.787   6.213   3.308  0.2695  0.5625 -0.9913
15024SOL    HW149919   6.865   6.221   3.363 -0.9003  0.6429  0.7010
15024SOL    HW249920   6.815   6.243   3.221  2.3230 -0.1999 -0.6116
15025SOL     OW49921   2.258   6.358   5.424  0.3802  0.3435  0.3762
15025SOL    HW149922   2.319   6.285   5.416 -0.6717 -0.4883 -0.1037
15025SOL    HW249923   2.246   6.389   5.334  1.1898  1.4102  0.6303
15026SOL     OW49924   3.944   7.813   6.375 -0.3826 -0.0036 -0.1634
15026SOL    HW149925   3.992   7.870   6.435 -0.4571 -0.0866 -0.0246
15026SOL    HW249926   3.852   7.827   6.398 -0.3991 -0.2031 -0.1117
15027SOL     OW49927   6.908   4.492   4.159  0.0399  0.0689 -0.1945
15027SOL    HW149928   6.962   4.533   4.226  0.5890 -0.4854 -0.2983
15027SOL    HW249929   6.826   4.541   4.162  1.0268  1.8041 -0.9882
15028SOL     OW49930   4.181   2.950   3.249  0.1547 -0.2623 -0.3673
15028SOL    HW149931   4.116   2.969   3.317  0.4138  0.3291 -0.2738
15028SOL    HW249932   4.255   2.913   3.297 -0.5356 -1.9730 -0.6083
15029SOL     OW49933   5.873   7.633   5.027 -0.2031  0.3565  0.0013
15029SOL    HW149934   5.921   7.586   5.095 -0.2586 -0.1388 -0.2976
15029SOL    HW249935   5.940   7.668   4.969 -0.1983 -1.0966 -0.9229
15030SOL     OW49936   6.280   6.080   3.731  0.8820  0.1460 -0.1888
15030SOL    HW149937   6.284   6.072   3.636  3.4011 -0.3317 -0.0552
15030SOL    HW249938   6.301   5.993   3.763  0.9243  0.5298  0.8363
15031SOL     OW49939   4.983   9.497   5.086  0.1446 -0.3098 -0.6693
15031SOL    HW149940   5.010   9.587   5.102  0.9026 -0.6413 -0.0211
15031SOL    HW249941   4.949   9.497   4.996  2.2768  0.1424 -1.5129
15032SOL     OW49942   7.589   5.854   4.276 -0.2005 -0.2185  0.1847
15032SOL    HW149943   7.653   5.827   4.210  0.5997  0.9818  0.4609
15032SOL    HW249944   7.594   5.787   4.344 -0.1709 -0.8212 -0.4043
15033SOL     OW49945   5.635   4.949   2.043  0.1633 -0.3984 -0.4206
15033SOL    HW149946   5.611   4.984   2.129 -0.8615 -1.6419 -0.1817
15033SOL    HW249947   5.649   5.026   1.988  3.8368  0.5122  1.6071
15034SOL     OW49948   7.240   6.078   4.391 -0.5291  0.1221  0.2323
15034SOL    HW149949   7.189   6.095   4.312 -0.0604 -0.8460 -0.2895
15034SOL    HW249950   7.328   6.108   4.369 -0.1233 -1.2229 -0.0469
15035SOL     OW49951   3.321   5.466   8.361  0.6828 -0.6091 -0.1932
15035SOL    HW149952   3.358   5.505   8.441  0.1738 -2.7083  1.1002
15035SOL    HW249953   3.396   5.437   8.311  0.9614 -0.3755  0.0884
15036SOL     OW49954   5.515   6.065   2.591  0.3151  0.8964  0.5223
15036SOL    HW149955   5.524   6.112   2.508  0.4268  0.1524  0.1122
15036SOL    HW249956   5.434   6.016   2.582  1.3939 -0.8315  0.0239
15037SOL     OW49957   3.422   6.050   3.136 -0.2028  0.0727 -0.4785
15037SOL    HW149958   3.355   6.002   3.088 -1.5024  1.5643 -0.2240
15037SOL    HW249959   3.381   6.135   3.156  1.6196  0.8678  0.0300
15038SOL     OW49960   6.419   5.741   3.217 -0.1181 -0.0747 -0.6010
15038SOL    HW149961   6.448   5.828   3.245  1.4956 -0.8235  0.0940
15038SOL    HW249962   6.330   5.734   3.253  1.0870 -0.1345  2.5609
15039SOL     OW49963   5.617   7.568   3.059 -0.1409  0.3104  0.1375
15039SOL    HW149964   5.545   7.612   3.014  0.3261 -0.2923 -1.2355
15039SOL    HW249965   5.575   7.499   3.110 -0.5516 -0.0058 -0.6166
15040SOL     OW49966   3.491   6.970   4.245 -0.5279 -0.6760 -0.2787
15040SOL    HW149967   3.514   6.965   4.338 -0.7990  0.5927 -0.1323
15040SOL    HW249968   3.413   7.027   4.243  0.7386  1.0628 -1.4807
15041SOL     OW49969   4.474   3.786   3.842  0.5148 -1.2706 -0.3672
15041SOL    HW149970   4.415   3.819   3.910  0.5217 -1.2093 -0.3910
15041SOL    HW249971   4.433   3.812   3.760  0.3391 -1.6359 -0.3928
15042SOL     OW49972   4.484   6.582   2.229  0.8869 -0.2202 -0.1199
15042SOL    HW149973   4.431   6.523   2.282 -0.0173 -0.5466 -1.3666
15042SOL    HW249974   4.451   6.571   2.140  0.5386  2.3090 -0.3566
15043SOL     OW49975   6.412   7.009   6.881  0.1748  0.1439  0.2598
15043SOL    HW149976   6.376   7.094   6.906  0.4865 -0.0895  1.5291
15043SOL    HW249977   6.340   6.948   6.891 -0.4553  0.4640 -2.0337
15044SOL     OW49978   7.735   4.991   3.870  0.1232 -0.0626  0.1608
15044SOL    HW149979   7.752   4.918   3.929 -2.8684 -0.0129  1.1783
15044SOL    HW249980   7.762   5.068   3.920 -2.4660 -0.0153  1.5709
15045SOL     OW49981   3.040   5.171   3.531 -0.5515 -0.6628 -0.2806
15045SOL    HW149982   3.075   5.258   3.513  1.3439 -1.2156  0.5354
15045SOL    HW249983   2.964   5.162   3.473  0.7790  0.5232 -2.2456
15046SOL     OW49984   4.656   6.237   2.043 -0.3804  0.3035 -0.2599
15046SOL    HW149985   4.592   6.205   1.979  0.1963  0.8493 -1.1198
15046SOL    HW249986   4.741   6.216   2.005 -0.0231  1.0951  0.0855
15047SOL     OW49987   6.500   7.705   4.616 -0.1016  0.9344 -0.1299
15047SOL    HW149988   6.505   7.777   4.679 -1.2200  1.4055 -0.5648
15047SOL    HW249989   6.588   7.668   4.615 -0.0809  0.8727  1.7682
15048SOL     OW49990   5.733   2.709   4.865 -0.6690 -0.0933  0.3804
15048SOL    HW149991   5.767   2.731   4.952 -1.4223  5.2719 -0.5651
15048SOL    HW249992   5.654   2.761   4.856 -1.3462 -1.5799 -3.0627
15049SOL     OW49993   4.245   2.026   5.331 -0.4132  0.1760 -0.1261
15049SOL    HW149994   4.300   1.949   5.319  0.4919  0.9050 -0.7700
15049SOL    HW249995   4.229   2.030   5.426 -1.6774 -1.6002 -0.2426
15050SOL     OW49996   6.252   7.260   2.829  0.3117 -0.0508  0.1863
15050SOL    HW149997   6.334   7.216   2.804  0.0030 -1.2456  1.2055
15050SOL    HW249998   6.252   7.259   2.924 -0.5746  0.5508  0.1982
15051SOL     OW49999   6.370   4.993   2.749 -0.1508  0.3207 -0.4904
15051SOL    HW150000   6.318   5.006   2.670  0.1371  1.2405 -0.5335
15051SOL    HW250001   6.431   4.923   2.727  1.0631  1.7316 -1.6411
15052SOL     OW50002   7.686   4.963   2.613 -0.5285  0.0398  0.0359
15052SOL    HW150003   7.751   5.032   2.598  0.0449 -0.1274  1.6477
15052SOL    HW250004   7.732   4.898   2.665 -1.2549 -1.2875 -0.9659
15053SOL     OW50005   5.549   6.086   2.134 -0.0640  0.2895  0.2946
15053SOL    HW150006   5.479   6.105   2.071 -1.2974 -0.0140  1.5482
15053SOL    HW250007   5.523   6.132   2.214  0.5680 -0.7717  1.1292
15054SOL     OW50008   2.627   8.115   3.507 -0.0046  0.2323 -0.3898
15054SOL    HW150009   2.548   8.117   3.560 -0.0240  0.5454 -0.4344
15054SOL    HW250010   2.698   8.101   3.570  0.2309  2.8859 -0.0070
15055SOL     OW50011   5.478   5.833   1.409 -0.0885 -0.3289  0.5226
15055SOL    HW150012   5.468   5.745   1.372 -0.1288 -0.3241  0.5206
15055SOL    HW250013   5.445   5.824   1.498 -0.2152 -0.2844  0.4801
15056SOL     OW50014   6.676   9.686   6.253 -0.1233  0.4621 -0.7150
15056SOL    HW150015   6.641   9.619   6.195  1.1581 -1.5944  0.8224
15056SOL    HW250016   6.635   9.669   6.337  2.8896 -0.6454  0.5734
15057SOL     OW50017   5.626   4.125   2.235  0.0114 -0.5382  0.2762
15057SOL    HW150018   5.532   4.111   2.234  0.0935 -1.2675  2.1552
15057SOL    HW250019   5.653   4.112   2.143 -1.5828 -1.1025 -0.1214
15058SOL     OW50020   5.677   6.879   1.524 -0.3175  0.2128  0.6006
15058SOL    HW150021   5.606   6.860   1.584  0.2023 -0.9040  0.8840
15058SOL    HW250022   5.637   6.878   1.437 -0.6377 -0.4181  0.7593
15059SOL     OW50023   5.653   7.790   5.141 -0.3380 -0.5500  0.5088
15059SOL    HW150024   5.724   7.731   5.117 -0.2833 -0.8991  1.5363
15059SOL    HW250025   5.696   7.868   5.176 -0.3986  0.2470 -1.1171
15060SOL     OW50026   5.297   8.647   4.330  0.7384 -0.0987 -0.4130
15060SOL    HW150027   5.296   8.582   4.401 -1.0677  0.0625 -0.2756
15060SOL    HW250028   5.236   8.613   4.265  2.6293 -0.4065 -2.0856
15061SOL     OW50029   7.034   5.621   5.102 -0.1636 -0.4199 -1.0307
15061SOL    HW150030   7.104   5.686   5.101 -0.2649 -0.3114 -1.1130
15061SOL    HW250031   6.989   5.633   5.018 -0.9661  0.2562 -0.5134
15062SOL     OW50032   5.922   4.973   2.248 -0.0853 -0.1847  0.2710
15062SOL    HW150033   5.997   4.948   2.193  0.4132  2.5910 -0.3762
15062SOL    HW250034   5.897   5.060   2.216 -2.0297 -0.0233  2.1355
15063SOL     OW50035   5.266   7.042   3.058 -0.6222  0.1571 -0.0922
15063SOL    HW150036   5.226   7.093   3.128  0.3967  0.3431  0.3534
15063SOL    HW250037   5.330   7.101   3.017  0.2702 -0.6158  0.1685
15064SOL     OW50038   4.572   8.841   5.050 -0.0284  0.5158  0.0758
15064SOL    HW150039   4.656   8.868   5.088  0.4029 -0.3399 -0.2454
15064SOL    HW250040   4.521   8.809   5.123  0.3769 -0.0642  0.1158
15065SOL     OW50041   2.124   6.646   3.724  0.5150 -0.4104  0.4995
15065SOL    HW150042   2.171   6.563   3.726  1.2784 -0.0209 -0.7144
15065SOL    HW250043   2.183   6.706   3.679 -1.5482 -0.1924 -2.0639
15066SOL     OW50044   3.298   5.179   3.742 -0.5663 -0.3945  0.2165
15066SOL    HW150045   3.242   5.184   3.820 -1.0171  0.2804 -0.1506
15066SOL    HW250046   3.303   5.269   3.710 -2.1858 -1.0002 -1.8217
15067SOL     OW50047   7.077   3.822   4.681  0.4877  0.0011  0.1710
15067SOL    HW150048   7.073   3.816   4.585  1.6848  0.9948  0.0399
15067SOL    HW250049   7.061   3.733   4.711 -1.4760 -0.0370 -0.8890
15068SOL     OW50050   3.956   5.938   1.987  0.7747 -0.8977 -0.4175
15068SOL    HW150051   3.913   5.928   2.072  0.3252  3.2009 -0.0679
15068SOL    HW250052   3.922   5.866   1.934 -2.8053 -0.6108  1.3403
15069SOL     OW50053   4.700   6.589   2.922  0.0048  0.4434  0.0719
15069SOL    HW150054   4.743   6.589   2.837  0.5376 -2.1753  0.3057
15069SOL    HW250055   4.741   6.661   2.970  0.8591  0.8819 -1.3183
15070SOL     OW50056   4.102   8.520   6.997  0.1685 -0.0799  0.0434
15070SOL    HW150057   4.045   8.528   7.073  2.5110  1.4525  1.7057
15070SOL    HW250058   4.124   8.610   6.974 -1.7455 -0.4357 -3.4693
15071SOL     OW50059   4.535   7.854   4.729 -0.1737 -0.2988 -0.0262
15071SOL    HW150060   4.498   7.787   4.786 -0.8015  0.0930  0.0366
15071SOL    HW250061   4.573   7.918   4.789  1.9332 -1.4373 -0.1248
15072SOL     OW50062   5.236   4.804   2.445  0.1514  0.3504  0.0098
15072SOL    HW150063   5.254   4.857   2.368 -2.0924 -0.5388 -1.2000
15072SOL    HW250064   5.297   4.731   2.439 -0.0654  0.2416 -0.9899
15073SOL     OW50065   6.500   5.788   2.094 -0.0656 -0.7609 -0.5745
15073SOL    HW150066   6.525   5.801   2.003  1.2877 -1.0903 -0.2665
15073SOL    HW250067   6.449   5.707   2.093 -2.5514  0.7639 -1.4469
15074SOL     OW50068   5.348   8.143   6.133 -0.1991  0.0913  0.0858
15074SOL    HW150069   5.253   8.132   6.121 -0.1776 -3.0024  2.1247
15074SOL    HW250070   5.382   8.054   6.133  2.3389  1.0154  2.2290
15075SOL     OW50071   6.992   7.080   6.015 -0.1892  0.0156 -0.4710
15075SOL    HW150072   7.004   7.042   6.102 -0.1570  0.5523 -0.2399
15075SOL    HW250073   6.947   7.163   6.031  0.0674  0.2484 -0.9433
15076SOL     OW50074   8.247   6.288   4.377  0.1000  0.5131  0.8891
15076SOL    HW150075   8.312   6.358   4.387 -0.4540  0.8765  1.9645
15076SOL    HW250076   8.207   6.279   4.463 -1.7828  0.7908  0.0718
15077SOL     OW50077   6.729   7.093   4.931  0.5199 -0.3852 -0.1381
15077SOL    HW150078   6.750   7.085   4.838  0.9198  0.6557 -0.1390
15077SOL    HW250079   6.805   7.137   4.969  0.5432 -1.1757  0.7572
15078SOL     OW50080   2.786   6.910   4.923  0.2884 -0.5214 -0.1272
15078SOL    HW150081   2.690   6.907   4.916  0.3494  0.6147 -1.5230
15078SOL    HW250082   2.802   6.973   4.993  0.0439  0.0813 -0.6133
15079SOL     OW50083   3.920   6.416   2.821 -0.3804  0.2295  0.0482
15079SOL    HW150084   3.873   6.465   2.755 -1.1210  0.4324  0.7222
15079SOL    HW250085   3.996   6.470   2.842 -0.3264  0.3198 -0.3853
15080SOL     OW50086   2.372   7.358   6.670 -0.2479  0.7361  0.4278
15080SOL    HW150087   2.357   7.359   6.575 -0.0304  1.0570  0.3983
15080SOL    HW250088   2.316   7.286   6.701  1.2638 -0.7492 -0.1949
15081SOL     OW50089   2.439   4.197   2.145 -0.1966  0.1705 -0.0876
15081SOL    HW150090   2.460   4.232   2.059  1.1887  0.3216  0.2999
15081SOL    HW250091   2.514   4.220   2.200  0.2393 -2.3566  0.4709
15082SOL     OW50092   4.161   8.523   6.609 -0.2937  0.7334  0.0790
15082SOL    HW150093   4.176   8.431   6.586  1.2634  1.4377 -1.8193
15082SOL    HW250094   4.203   8.534   6.694  0.4850 -0.0367 -0.2069
15083SOL     OW50095   7.784   8.274   7.872 -0.4749 -0.4076  1.1252
15083SOL    HW150096   7.761   8.299   7.783 -0.9209 -0.2709  1.2761
15083SOL    HW250097   7.720   8.319   7.927  1.6927  2.0644  1.7492
15084SOL     OW50098   5.782   7.532   3.471  0.3531  0.0603 -0.1214
15084SOL    HW150099   5.750   7.621   3.457 -0.2451 -0.5061 -2.5359
15084SOL    HW250100   5.709   7.476   3.445  1.4250 -1.1596 -0.5487
15085SOL     OW50101   6.872   6.756   3.500 -0.8889  0.1232 -0.3972
15085SOL    HW150102   6.874   6.661   3.508  2.2379  0.3328  2.4221
15085SOL    HW250103   6.831   6.786   3.581 -1.4186  1.1993 -1.0583
15086SOL     OW50104   5.202   9.055   4.207 -0.1326  0.4137  0.2425
15086SOL    HW150105   5.165   9.017   4.127 -0.5359  0.5801  0.3474
15086SOL    HW250106   5.219   9.146   4.184 -2.1277  0.9879  0.9480
15087SOL     OW50107   3.788   8.357   3.208 -0.5853  0.5520 -0.2453
15087SOL    HW150108   3.800   8.340   3.115 -1.9001 -0.6321 -0.2082
15087SOL    HW250109   3.726   8.291   3.237  1.8543 -0.8345  2.0818
15088SOL     OW50110   2.912   7.762   7.249 -0.0152  0.0412  0.4664
15088SOL    HW150111   2.850   7.826   7.212  1.1099  0.8702 -0.0297
15088SOL    HW250112   2.972   7.815   7.302  1.2457 -0.5302 -0.3730
15089SOL     OW50113   6.656   5.374   3.788  0.0498 -0.9113 -0.2306
15089SOL    HW150114   6.650   5.348   3.880  3.1597 -3.2686 -0.5817
15089SOL    HW250115   6.647   5.469   3.789  0.3712 -0.8637  2.5637
15090SOL     OW50116   6.026   5.849   3.593  0.2323 -0.0599  0.3322
15090SOL    HW150117   6.010   5.943   3.584 -1.4130 -0.5328 -2.1106
15090SOL    HW250118   5.939   5.811   3.605  0.7969 -1.3691  0.3105
15091SOL     OW50119   3.645   9.310   4.201  0.1969 -0.2164  0.1367
15091SOL    HW150120   3.651   9.391   4.151 -0.5966 -0.3457 -0.1728
15091SOL    HW250121   3.590   9.252   4.148 -1.3479 -0.0647  1.5122
15092SOL     OW50122   4.496   5.619   2.822  0.1733 -0.5573 -0.4024
15092SOL    HW150123   4.463   5.674   2.893  2.1227  1.7979 -1.2730
15092SOL    HW250124   4.526   5.539   2.867 -2.3394 -0.8218  0.9070
15093SOL     OW50125   4.298   8.237   7.607 -0.1262 -0.4480 -0.0358
15093SOL    HW150126   4.256   8.158   7.573 -1.0095 -0.1711  0.3996
15093SOL    HW250127   4.227   8.301   7.614  0.4033  0.0876  0.5307
15094SOL     OW50128   5.042   9.643   4.149 -0.4358  0.2317 -0.0795
15094SOL    HW150129   5.135   9.630   4.168 -0.2690  0.1002 -0.9494
15094SOL    HW250130   4.996   9.593   4.217  0.1140  0.9290  0.8089
15095SOL     OW50131   4.239   7.605   5.111  0.5026  0.0157 -0.2641
15095SOL    HW150132   4.328   7.640   5.102  0.1008  1.8048  2.3696
15095SOL    HW250133   4.234   7.576   5.202 -2.0017  1.0258 -0.0558
15096SOL     OW50134   6.302   7.474   4.205 -0.0617 -0.1070  0.4876
15096SOL    HW150135   6.246   7.407   4.166  2.1481 -0.8867 -1.4544
15096SOL    HW250136   6.356   7.426   4.268  0.9883 -0.0568 -0.3486
15097SOL     OW50137   3.138   6.388   3.225 -0.0283  0.1055  0.0230
15097SOL    HW150138   3.169   6.327   3.159  1.9210  1.2700 -0.1708
15097SOL    HW250139   3.107   6.333   3.297 -2.4942 -1.1879 -1.9542
15098SOL     OW50140   5.241   6.236   2.389 -0.2339  0.0699 -0.6069
15098SOL    HW150141   5.212   6.219   2.479 -1.1604  2.9087 -0.2952
15098SOL    HW250142   5.219   6.156   2.341 -2.5119 -0.3775  1.0689
15099SOL     OW50143   5.945   5.585   3.011 -0.7077 -0.1612 -0.3593
15099SOL    HW150144   5.906   5.501   3.038 -2.2205 -0.0944 -2.2535
15099SOL    HW250145   6.036   5.564   2.994 -0.9024 -1.2679 -0.0873
15100SOL     OW50146   6.928   6.413   1.607  0.1477  0.2331  0.0573
15100SOL    HW150147   6.995   6.443   1.669 -0.5991  1.5128  0.2626
15100SOL    HW250148   6.957   6.326   1.581  2.6257  1.2844 -0.8772
15101SOL     OW50149   8.285   7.614   2.229  0.3558  0.6180  0.5115
15101SOL    HW150150   8.211   7.674   2.241  0.5782  0.8581  0.6956
15101SOL    HW250151   8.349   7.665   2.180 -0.0704  0.0277 -0.6811
15102SOL     OW50152   2.937   7.546   6.402 -0.1459  0.3220 -0.3405
15102SOL    HW150153   2.876   7.473   6.390 -0.2201  0.4110 -0.5013
15102SOL    HW250154   2.908   7.613   6.340 -0.4060  0.7002  0.1852
15103SOL     OW50155   5.396   8.260   3.431 -0.1468  0.6007  0.5091
15103SOL    HW150156   5.349   8.223   3.356 -0.5049  1.6102  0.2172
15103SOL    HW250157   5.330   8.312   3.477  0.3510  0.8963  0.8959
15104SOL     OW50158   3.549   7.638   3.174 -0.2488 -0.6034 -0.3373
15104SOL    HW150159   3.477   7.586   3.208  0.6789 -0.4735  1.8743
15104SOL    HW250160   3.517   7.728   3.173 -0.5488 -0.7119 -0.5988
15105SOL     OW50161   7.762   5.227   4.627  0.7330 -0.5236 -0.4821
15105SOL    HW150162   7.695   5.255   4.564 -0.3053 -0.5172  0.6007
15105SOL    HW250163   7.817   5.167   4.578  0.8379  0.6396 -1.8184
15106SOL     OW50164   3.672   8.204   5.660 -0.4238  0.1503  0.3006
15106SOL    HW150165   3.656   8.127   5.716  0.8241  0.3736  0.9901
15106SOL    HW250166   3.744   8.250   5.704  2.2795 -0.9484 -2.7820
15107SOL     OW50167   6.654   9.398   6.555 -0.1783 -0.1059 -0.1203
15107SOL    HW150168   6.585   9.439   6.502 -0.9988 -0.6638  0.5033
15107SOL    HW250169   6.720   9.370   6.491 -0.5475  0.3934 -0.7253
15108SOL     OW50170   4.325   7.967   5.790  0.0283 -0.1184  0.0534
15108SOL    HW150171   4.307   7.946   5.698  0.3517 -1.2966  0.2408
15108SOL    HW250172   4.400   8.026   5.787  0.6113 -0.8669 -0.4097
15109SOL     OW50173   6.178   8.965   6.363 -0.0104 -0.1513 -0.3405
15109SOL    HW150174   6.208   8.952   6.274  1.0888  0.2343 -0.0265
15109SOL    HW250175   6.084   8.980   6.355  0.3875  1.7579 -1.5973
15110SOL     OW50176   3.807   3.617   2.630 -0.0757 -0.0397 -0.4240
15110SOL    HW150177   3.781   3.593   2.541 -0.6950 -0.0481 -0.2453
15110SOL    HW250178   3.842   3.536   2.667 -2.9149 -0.9391  0.4500
15111SOL     OW50179   2.370   4.080   4.027  0.3605  0.0154  0.2433
15111SOL    HW150180   2.305   4.128   3.975 -1.0047 -2.0519 -0.0335
15111SOL    HW250181   2.318   4.030   4.090  1.7780 -0.5955  0.9448
15112SOL     OW50182   6.481   4.349   3.998 -0.2856 -0.3862 -0.2007
15112SOL    HW150183   6.522   4.310   4.075  1.1361 -0.3341 -0.9120
15112SOL    HW250184   6.464   4.440   4.023 -1.4963 -0.8347  0.6634
15113SOL     OW50185   4.304   3.293   4.370  0.6120  0.0253 -0.6138
15113SOL    HW150186   4.219   3.337   4.380  0.9280  0.2601  1.2520
15113SOL    HW250187   4.283   3.200   4.366  0.1999  0.1332 -0.9310
15114SOL     OW50188   4.814   6.971   2.686 -0.0340 -0.1164  0.2693
15114SOL    HW150189   4.737   6.977   2.630 -0.4573 -0.7228  0.7895
15114SOL    HW250190   4.885   7.005   2.631 -0.4217 -0.8117 -0.6881
15115SOL     OW50191   5.810   8.705   5.883  0.2885  0.2060  0.0440
15115SOL    HW150192   5.754   8.778   5.908  0.1694 -0.3374  1.4043
15115SOL    HW250193   5.806   8.645   5.957  1.3585 -0.6134 -0.5437
15116SOL     OW50194   5.693   7.977   4.157  0.3722  0.3370 -0.3614
15116SOL    HW150195   5.714   7.912   4.223 -0.1115 -1.3075 -1.8008
15116SOL    HW250196   5.691   7.929   4.074  0.4638  2.2525 -1.5223
15117SOL     OW50197   5.994   7.739   2.911 -0.3173  0.2243  0.2114
15117SOL    HW150198   5.942   7.786   2.976 -0.0577  0.2218  0.4186
15117SOL    HW250199   6.084   7.748   2.941 -0.1754  0.3980 -0.2538
15118SOL     OW50200   7.192   7.128   5.782 -0.0838  0.9965 -0.2623
15118SOL    HW150201   7.191   7.058   5.847  0.1511  1.1288 -0.1163
15118SOL    HW250202   7.191   7.209   5.833 -1.5080  1.1135 -0.4427
15119SOL     OW50203   2.046   8.003   3.991  0.3515 -0.4401  0.1833
15119SOL    HW150204   1.958   8.039   3.990  1.0363  1.2583 -2.5445
15119SOL    HW250205   2.082   8.022   3.904  3.7243 -0.2536  1.5211
15120SOL     OW50206   5.132   8.321   4.387 -0.4702 -0.1842  0.3634
15120SOL    HW150207   5.177   8.342   4.469 -0.9583 -0.4183  0.6981
15120SOL    HW250208   5.198   8.334   4.319  0.9994 -3.3410  1.0894
15121SOL     OW50209   6.075   4.824   2.808 -0.5590 -0.5279  0.0198
15121SOL    HW150210   6.120   4.905   2.783  1.1576 -1.5758 -0.3403
15121SOL    HW250211   6.029   4.847   2.888 -1.5597  1.3054 -1.0395
15122SOL     OW50212   6.326   6.043   8.002  0.2193  0.2544 -0.1836
15122SOL    HW150213   6.365   6.112   7.948  0.2137 -0.9405 -1.7636
15122SOL    HW250214   6.400   5.991   8.033  0.2682  1.2791  1.4822
15123SOL     OW50215   6.707   7.594   2.757 -0.0979 -0.4039  0.0079
15123SOL    HW150216   6.662   7.517   2.792 -0.9969 -1.5601 -3.4991
15123SOL    HW250217   6.648   7.667   2.775 -1.2518 -1.2145 -0.4635
15124SOL     OW50218   4.350   6.339   0.641 -0.0549 -0.0678 -0.1524
15124SOL    HW150219   4.275   6.393   0.620  1.7091  1.4195 -3.0059
15124SOL    HW250220   4.424   6.382   0.597  2.1376 -2.4666  1.0236
15125SOL     OW50221   4.885   8.722   4.151  0.3393  0.4869 -0.3750
15125SOL    HW150222   4.940   8.760   4.220 -0.7966  1.5580 -0.0634
15125SOL    HW250223   4.814   8.679   4.198 -0.0785  0.6440 -0.8683
15126SOL     OW50224   6.901   5.647   2.159 -0.1767  0.6228 -0.3053
15126SOL    HW150225   6.982   5.608   2.127 -0.2668 -1.0386  1.3678
15126SOL    HW250226   6.835   5.625   2.093  0.1771 -0.4028 -0.3194
15127SOL     OW50227   6.184   7.274   4.922 -0.8030  0.3502  0.1176
15127SOL    HW150228   6.251   7.274   4.991 -2.0082  1.7983  1.3484
15127SOL    HW250229   6.103   7.250   4.968 -1.2091 -0.9465 -1.2661
15128SOL     OW50230   3.133   7.663   6.837 -0.5408  0.6748  0.0039
15128SOL    HW150231   3.070   7.599   6.804 -0.3770 -0.0382  1.0213
15128SOL    HW250232   3.213   7.645   6.787 -0.0061 -1.0453  1.3987
15129SOL     OW50233   1.886   6.997   6.294  0.1816  0.0222 -0.7632
15129SOL    HW150234   1.793   6.997   6.274 -0.0718 -0.3409  0.4121
15129SOL    HW250235   1.929   6.984   6.209 -0.9279 -3.4415 -0.8766
15130SOL     OW50236   3.009   8.460   3.715  0.4228  0.0133 -0.3340
15130SOL    HW150237   3.021   8.540   3.766  0.5050 -0.1272 -0.1306
15130SOL    HW250238   2.915   8.447   3.711  0.3867  0.4012 -0.8049
15131SOL     OW50239   3.191   7.555   7.297 -0.1406 -0.5721  0.2865
15131SOL    HW150240   3.179   7.462   7.320 -0.5858 -0.8720 -1.1124
15131SOL    HW250241   3.169   7.602   7.378 -2.5172 -1.5611  0.2674
15132SOL     OW50242   8.020   7.276   5.155  0.1663 -0.3484  0.8554
15132SOL    HW150243   8.096   7.259   5.100 -0.7603  0.7952 -0.8163
15132SOL    HW250244   8.027   7.212   5.226  0.2025 -3.3192 -1.7423
15133SOL     OW50245   6.375   4.191   3.822 -0.1746  0.4781 -0.0731
15133SOL    HW150246   6.398   4.098   3.822  1.4563  0.7941 -2.8516
15133SOL    HW250247   6.434   4.230   3.885  0.5837 -0.0885 -0.4187
15134SOL     OW50248   4.807   8.164   6.111  0.0969  0.0020  0.7798
15134SOL    HW150249   4.719   8.187   6.141 -2.1128 -3.3735 -2.6099
15134SOL    HW250250   4.824   8.223   6.038 -0.5344 -1.1342 -0.2981
15135SOL     OW50251   3.250   8.156   4.216  0.5660 -0.5495  0.7771
15135SOL    HW150252   3.309   8.229   4.199 -0.9022  0.5071  0.0631
15135SOL    HW250253   3.220   8.128   4.130 -1.8412  0.5433  1.2236
15136SOL     OW50254   4.375   7.294   3.522  0.2178  0.2332 -0.6902
15136SOL    HW150255   4.310   7.304   3.453  0.5688  0.2181 -1.0209
15136SOL    HW250256   4.332   7.238   3.587 -1.2848  2.7169  0.5576
15137SOL     OW50257   3.936   5.346   3.177 -0.9324 -0.1560  0.1788
15137SOL    HW150258   3.951   5.439   3.195  0.1689 -0.1738 -0.6054
15137SOL    HW250259   3.911   5.343   3.085  1.7700 -0.8868 -0.5837
15138SOL     OW50260   5.023   3.982   1.617 -0.3306  0.1409  0.1500
15138SOL    HW150261   5.072   3.924   1.559  1.8093  3.5749 -1.6586
15138SOL    HW250262   5.033   3.943   1.704  1.3881 -1.9416 -0.9333
15139SOL     OW50263   4.699   6.003   2.813 -0.3536  0.2513  0.4009
15139SOL    HW150264   4.765   6.060   2.774  0.2259  0.6723  1.9356
15139SOL    HW250265   4.633   6.063   2.849 -0.9356 -0.1290 -0.0133
15140SOL     OW50266   6.743   6.905   3.704  0.1465 -0.3740  0.0492
15140SOL    HW150267   6.679   6.928   3.637 -0.0107 -0.2876  0.2300
15140SOL    HW250268   6.698   6.920   3.787  1.0158  1.5080  0.2097
15141SOL     OW50269   4.960   4.441   2.074 -0.0066  0.3571 -0.4370
15141SOL    HW150270   5.043   4.463   2.116 -0.5662  0.0674  0.8700
15141SOL    HW250271   4.964   4.482   1.988  1.4207  0.4712 -0.3232
15142SOL     OW50272   6.192   6.356   2.556 -0.3023  0.3437 -0.6415
15142SOL    HW150273   6.116   6.300   2.539  1.2501 -2.0514  0.1150
15142SOL    HW250274   6.189   6.372   2.651  0.0542  0.3886 -0.6376
15143SOL     OW50275   6.922   5.684   3.763  0.1345 -1.1184  0.1724
15143SOL    HW150276   6.827   5.686   3.753  0.1584  1.5534 -0.0052
15143SOL    HW250277   6.954   5.641   3.684 -0.8299  0.0358 -0.8654
15144SOL     OW50278   3.443   7.520   5.845  0.4490  0.2151  0.2572
15144SOL    HW150279   3.423   7.544   5.754  2.2601 -2.1221 -0.8323
15144SOL    HW250280   3.522   7.571   5.866 -0.1362  0.9757  0.6489
15145SOL     OW50281   4.700   7.395   2.989  0.6968 -0.5313 -0.4206
15145SOL    HW150282   4.745   7.312   3.001  0.8312 -0.8042 -2.6218
15145SOL    HW250283   4.745   7.437   2.915 -1.4283  0.0151 -1.4574
15146SOL     OW50284   4.058   7.799   4.917  0.3309  0.1473 -0.3705
15146SOL    HW150285   4.010   7.881   4.925  0.4231  0.2657 -1.0321
15146SOL    HW250286   3.997   7.739   4.873  0.6909  0.2235 -0.9796
15147SOL     OW50287   4.335   7.315   8.717 -0.0900 -0.4545 -0.7649
15147SOL    HW150288   4.330   7.225   8.685 -1.8418 -0.3672 -0.7999
15147SOL    HW250289   4.376   7.308   8.803 -0.0743 -1.2687 -0.8307
15148SOL     OW50290   6.023   8.640   6.169 -0.2613 -0.1992 -0.0244
15148SOL    HW150291   5.994   8.551   6.146 -0.6246 -0.1494  0.2322
15148SOL    HW250292   6.067   8.628   6.254  1.1628 -0.4020 -0.7863
15149SOL     OW50293   5.733   7.814   6.894 -0.0472 -0.1673  0.1767
15149SOL    HW150294   5.718   7.800   6.801  0.7171  0.9278 -0.1244
15149SOL    HW250295   5.679   7.749   6.938 -0.5113 -0.5968 -1.0327
15150SOL     OW50296   7.119   7.000   6.969 -0.0863  0.0142 -0.3730
15150SOL    HW150297   7.109   7.054   7.047 -1.0113 -1.1822  0.3396
15150SOL    HW250298   7.068   6.921   6.987 -1.1195  0.1354 -2.5537
15151SOL     OW50299   4.917   8.258   8.190  0.1009 -0.0473 -0.5056
15151SOL    HW150300   4.835   8.209   8.195  0.2521 -0.3222 -0.7079
15151SOL    HW250301   4.985   8.191   8.182  0.2464  0.2126 -1.5804
15152SOL     OW50302   3.880   7.594   7.405  0.1876 -0.0876  0.4219
15152SOL    HW150303   3.841   7.631   7.484 -1.7809  0.0814 -0.6089
15152SOL    HW250304   3.973   7.619   7.411 -0.4120  2.0822  1.4447
15153SOL     OW50305   2.346   6.043   7.986 -0.5896  0.0287 -0.5226
15153SOL    HW150306   2.357   5.963   8.037 -0.1861 -0.2305 -1.0172
15153SOL    HW250307   2.432   6.061   7.950 -0.8322  0.3155 -0.9611
15154SOL     OW50308   3.595   4.671   9.348 -0.2035  0.0963 -0.3049
15154SOL    HW150309   3.670   4.612   9.341  1.2837  2.0671 -1.3801
15154SOL    HW250310   3.561   4.656   9.436  0.7561 -1.6100 -0.1897
15155SOL     OW50311   7.265   7.199   6.407  0.1338  0.3407  0.6860
15155SOL    HW150312   7.334   7.257   6.440  1.6023 -0.7592 -0.3854
15155SOL    HW250313   7.189   7.257   6.395  0.9308  1.6147  1.6536
15156SOL     OW50314   6.054   7.860   9.539  0.6947  0.3617  0.2390
15156SOL    HW150315   6.027   7.772   9.567  0.4586  0.6367  0.8699
15156SOL    HW250316   6.148   7.854   9.527  0.7330  0.1212  0.6520
15157SOL     OW50317   2.071   4.775   7.938 -0.0326  0.2100 -0.1688
15157SOL    HW150318   2.033   4.858   7.910 -2.1932 -0.5679  0.3904
15157SOL    HW250319   2.017   4.746   8.011 -1.2893 -3.1697 -2.2772
15158SOL     OW50320   4.898   7.416   7.574 -0.2128  0.2358  0.0980
15158SOL    HW150321   4.882   7.434   7.481 -1.3228  0.8090  0.3984
15158SOL    HW250322   4.993   7.426   7.584 -0.3417  2.2777 -0.5223
15159SOL     OW50323   0.769   4.123   8.805 -0.2864  0.0882 -0.5677
15159SOL    HW150324   0.832   4.194   8.792 -0.7490  0.2496 -2.0536
15159SOL    HW250325   0.751   4.124   8.899 -1.1579  2.7304 -0.7093
15160SOL     OW50326   6.316   6.873   7.257  0.1736 -0.4610  0.3542
15160SOL    HW150327   6.361   6.942   7.307  0.7837 -1.3459  1.0359
15160SOL    HW250328   6.287   6.811   7.323  0.6330 -1.4449 -0.3616
15161SOL     OW50329   2.039   8.974   6.140  0.2204  0.0990 -0.1958
15161SOL    HW150330   2.047   9.025   6.220  1.8902  0.4397 -0.5676
15161SOL    HW250331   1.959   8.922   6.153 -0.2053  1.0546  1.1535
15162SOL     OW50332   4.830   8.758   6.119  0.0896  0.2777  0.1682
15162SOL    HW150333   4.910   8.761   6.066 -0.4097 -0.2435 -0.6279
15162SOL    HW250334   4.810   8.850   6.137  0.8845  0.4110  0.3983
15163SOL     OW50335   5.914   9.017   6.425  0.0440  0.0802  0.1908
15163SOL    HW150336   5.834   8.976   6.456 -0.1698  0.5494  0.2725
15163SOL    HW250337   5.904   9.109   6.449  0.3703  0.2399 -0.2790
15164SOL     OW50338   3.626   8.304   7.715 -0.4619  0.2290  0.4142
15164SOL    HW150339   3.669   8.350   7.644  0.1765 -0.1332  0.5593
15164SOL    HW250340   3.565   8.368   7.753  1.0311  1.2364  1.1748
15165SOL     OW50341   5.038   8.297   5.607 -0.0474  0.2736  0.3730
15165SOL    HW150342   5.053   8.301   5.512 -0.4266 -1.3378  0.2403
15165SOL    HW250343   4.943   8.303   5.616  0.0697  1.9063  0.7543
15166SOL     OW50344   7.356   7.341   6.647 -0.0457 -0.2721 -0.1306
15166SOL    HW150345   7.281   7.282   6.661  1.0348 -1.3345  1.4076
15166SOL    HW250346   7.428   7.298   6.694  1.1791  1.4391 -0.4330
15167SOL     OW50347   3.250   7.305   7.175  0.0991  0.1070  0.5791
15167SOL    HW150348   3.155   7.312   7.172  0.2429  2.2052  0.1572
15167SOL    HW250349   3.279   7.324   7.086  1.0818  3.1398  1.4844
15168SOL     OW50350   5.791   7.202   7.525  0.2467 -0.6788  0.0945
15168SOL    HW150351   5.842   7.271   7.482 -0.0963  0.5572  1.6126
15168SOL    HW250352   5.702   7.216   7.494  0.0793 -0.0761  0.8385
15169SOL     OW50353   3.124   7.621   5.864  0.1024 -0.1231 -0.6072
15169SOL    HW150354   3.047   7.675   5.844  1.2030  1.4189 -0.7903
15169SOL    HW250355   3.122   7.611   5.959 -0.3964 -0.2037 -0.6254
15170SOL     OW50356   6.757   7.186   5.499 -0.2110  0.5390 -0.3203
15170SOL    HW150357   6.791   7.103   5.465  1.6421  1.2363 -0.2157
15170SOL    HW250358   6.811   7.204   5.576 -2.6384  0.2999  1.5209
15171SOL     OW50359   4.347   8.021   4.001  0.1568  0.4665  0.1915
15171SOL    HW150360   4.356   7.935   4.042 -0.0226  0.4044  0.1004
15171SOL    HW250361   4.253   8.038   4.001 -0.3082 -1.4978 -4.1690
15172SOL     OW50362   3.437   6.942   9.121  0.5192  0.2248 -0.0424
15172SOL    HW150363   3.392   6.969   9.201 -0.9035 -0.4391 -0.6148
15172SOL    HW250364   3.446   7.022   9.070  1.9942  0.7777  1.0263
15173SOL     OW50365   4.125   8.017   8.377 -0.3817  0.3896  0.1395
15173SOL    HW150366   4.187   8.086   8.354  0.7301 -0.2010  1.2873
15173SOL    HW250367   4.051   8.063   8.416 -0.3866  1.0480 -0.6210
15174SOL     OW50368   6.466   8.051   5.663  0.3787  0.7360  0.2687
15174SOL    HW150369   6.449   8.018   5.575  0.5761  2.0291 -0.2751
15174SOL    HW250370   6.382   8.086   5.692  0.0300 -0.7437  1.0701
15175SOL     OW50371   4.416   7.975   7.480 -0.1149  0.0563  0.0872
15175SOL    HW150372   4.405   7.920   7.402 -2.1082 -0.2932  0.5781
15175SOL    HW250373   4.455   7.917   7.545 -1.9935 -0.7596  0.5279
15176SOL     OW50374   6.014   7.663   5.348 -0.3376 -0.4673  0.0115
15176SOL    HW150375   6.045   7.592   5.292  1.2313 -0.3382  0.7109
15176SOL    HW250376   5.949   7.621   5.405  0.5479 -1.3505  0.3985
15177SOL     OW50377   4.503   7.408   7.357 -0.0709 -0.1582  0.3775
15177SOL    HW150378   4.477   7.413   7.265  0.4112  2.5523  0.3373
15177SOL    HW250379   4.424   7.377   7.402 -0.1428 -2.0695 -0.9778
15178SOL     OW50380   4.611   7.566   9.654  0.7266  0.5695  0.6242
15178SOL    HW150381   4.575   7.578   9.566  0.8212 -1.8902  0.2122
15178SOL    HW250382   4.599   7.651   9.697 -0.6071  1.3784 -1.2922
15179SOL     OW50383   7.120   7.631   7.631  0.1932 -0.0095 -0.0438
15179SOL    HW150384   7.101   7.670   7.545  1.7867 -1.8249 -1.2592
15179SOL    HW250385   7.213   7.648   7.645 -0.1311  0.5413  1.4751
15180SOL     OW50386   7.225   6.996   7.298 -0.5050  0.2622 -0.6219
15180SOL    HW150387   7.141   6.951   7.303  0.3264 -1.1396  1.6357
15180SOL    HW250388   7.287   6.928   7.272 -0.0400  1.2751 -2.2339
15181SOL     OW50389   4.840   4.170   1.546  0.3979 -0.0786  0.8750
15181SOL    HW150390   4.908   4.106   1.568  0.9938  0.0110 -0.6826
15181SOL    HW250391   4.861   4.199   1.458  0.2480  2.4257  1.6142
15182SOL     OW50392   3.825   7.577   9.227  0.4287  0.4381 -0.4786
15182SOL    HW150393   3.788   7.526   9.299  0.1440  0.5040 -0.5744
15182SOL    HW250394   3.884   7.516   9.182 -0.7744 -0.1664 -1.2789
15183SOL     OW50395   6.756   7.252   5.231  0.3997  0.0880 -0.3156
15183SOL    HW150396   6.769   7.257   5.326 -1.0627  1.1584 -0.1323
15183SOL    HW250397   6.716   7.167   5.216  0.8462 -0.1767  0.0016
15184SOL     OW50398   3.817   7.320   7.411  0.4933 -0.2765  0.1432
15184SOL    HW150399   3.818   7.414   7.394  0.3392 -0.5898 -1.7540
15184SOL    HW250400   3.872   7.283   7.341 -0.8625 -1.7440 -0.1664
15185SOL     OW50401   2.603   5.460   7.736  0.3480 -0.3623 -0.1757
15185SOL    HW150402   2.571   5.395   7.674 -0.4064 -1.0515  0.9225
15185SOL    HW250403   2.654   5.521   7.682 -0.4282 -0.8487 -1.4829
15186SOL     OW50404   3.716   4.048   8.881 -0.2638  0.0307 -0.2041
15186SOL    HW150405   3.664   3.970   8.900 -0.9887  0.6818  0.5427
15186SOL    HW250406   3.806   4.015   8.872 -0.5641 -0.8925  0.0726
15187SOL     OW50407   5.466   7.342   7.181  0.3213 -0.3672 -0.0047
15187SOL    HW150408   5.403   7.410   7.157 -0.1831 -1.2572 -1.2720
15187SOL    HW250409   5.547   7.389   7.200 -0.5991  0.7543  1.2272
15188SOL     OW50410   3.019   6.766   6.173  0.3799  0.2417  0.1352
15188SOL    HW150411   2.963   6.766   6.095 -0.0949  1.1889  0.4680
15188SOL    HW250412   3.067   6.684   6.167 -0.4359 -0.2023 -0.5954
15189SOL     OW50413   3.259   5.985   8.536 -0.6946 -0.4603 -0.4778
15189SOL    HW150414   3.184   6.019   8.487  0.0120 -0.8970 -1.8985
15189SOL    HW250415   3.280   5.902   8.492  0.8056 -0.1910 -0.2986
15190SOL     OW50416   4.984   5.788   2.859 -0.4402 -0.1147  0.5112
15190SOL    HW150417   5.027   5.849   2.800 -1.3713  0.1352  0.0997
15190SOL    HW250418   4.895   5.781   2.827 -0.7454 -0.5563  1.4345
15191SOL     OW50419   6.136   7.502   7.510  0.2423 -0.1778 -0.2363
15191SOL    HW150420   6.209   7.457   7.467  0.3038  1.2820 -1.7636
15191SOL    HW250421   6.073   7.516   7.439  0.5519  2.7202  0.0120
15192SOL     OW50422   6.764   6.926   7.295 -0.1039  0.1959  0.6274
15192SOL    HW150423   6.849   6.956   7.264 -0.7483  1.8210  0.3826
15192SOL    HW250424   6.724   6.884   7.219  0.4886 -0.6265  0.7598
15193SOL     OW50425   5.300   7.736   6.856  0.5994  0.2797  0.2776
15193SOL    HW150426   5.231   7.695   6.908 -1.1814 -0.9717 -2.9430
15193SOL    HW250427   5.288   7.830   6.872 -0.6212 -0.0189  1.2437
15194SOL     OW50428   4.445   6.577   8.187  0.1627 -0.1773  0.7640
15194SOL    HW150429   4.416   6.620   8.268 -0.9054 -2.0119  1.4088
15194SOL    HW250430   4.387   6.501   8.179  0.1791  0.0504 -1.8139
15195SOL     OW50431   5.171   7.362   8.509  0.3790 -0.5615  0.2267
15195SOL    HW150432   5.078   7.380   8.524  0.0627 -0.0478 -2.1365
15195SOL    HW250433   5.217   7.434   8.552 -0.3455 -0.4608  0.8318
15196SOL     OW50434   4.884   7.074   7.636  0.3009  0.1320  0.3873
15196SOL    HW150435   4.834   7.091   7.556  0.5744 -3.4046 -0.6218
15196SOL    HW250436   4.841   7.127   7.703 -2.5643 -0.0700 -1.2103
15197SOL     OW50437   1.889   6.016   8.522 -0.9046  0.1006  0.0545
15197SOL    HW150438   1.812   5.999   8.577 -1.3390 -1.4999 -1.0050
15197SOL    HW250439   1.926   5.929   8.506  1.0019  0.8459  0.3455
15198SOL     OW50440   3.303   7.095   7.686  0.8010  0.0811 -0.1142
15198SOL    HW150441   3.375   7.080   7.746 -0.5919 -0.3579  1.4959
15198SOL    HW250442   3.260   7.174   7.719 -0.6987 -0.8461  0.2232
15199SOL     OW50443   3.830   7.216   7.676  0.8250 -0.3057  0.0136
15199SOL    HW150444   3.799   7.236   7.588  0.3721  1.2714  0.5249
15199SOL    HW250445   3.895   7.284   7.695  3.4528 -2.6021 -0.4090
15200SOL     OW50446   6.115   8.009   6.594 -0.2247  0.2686  0.2252
15200SOL    HW150447   6.021   8.028   6.588 -0.5266 -1.2576 -0.2784
15200SOL    HW250448   6.128   7.978   6.683 -1.0528 -3.5912 -0.8908
15201SOL     OW50449   2.441   6.920   8.543  0.1742 -0.1389  0.9016
15201SOL    HW150450   2.436   6.959   8.631 -0.4703  2.6292 -0.2896
15201SOL    HW250451   2.529   6.940   8.513 -0.8541  2.4663 -0.5681
15202SOL     OW50452   5.925   9.256   4.352 -0.1312  0.1809  0.4215
15202SOL    HW150453   5.870   9.293   4.421  0.3867 -0.3837  1.1394
15202SOL    HW250454   5.963   9.177   4.390  2.5009  1.4411  0.5162
15203SOL     OW50455   5.097   8.835   4.337 -0.7935  0.6825  0.6110
15203SOL    HW150456   5.182   8.791   4.327 -1.5235 -0.8513  1.0607
15203SOL    HW250457   5.112   8.923   4.304  0.3538 -0.2894 -1.5300
15204SOL     OW50458   6.387   8.458   5.804  0.0648  0.7505 -0.9840
15204SOL    HW150459   6.311   8.517   5.800  1.2389  2.5858  2.1234
15204SOL    HW250460   6.462   8.515   5.788  1.2478  0.2802  2.5053
15205SOL     OW50461   3.674   8.022   6.281 -0.2524 -0.3071  0.5452
15205SOL    HW150462   3.745   8.066   6.234  0.1478 -0.3286  1.1245
15205SOL    HW250463   3.594   8.059   6.243  0.0766  0.7548  0.8680
15206SOL     OW50464   4.714   9.137   7.324  0.0049 -0.2268 -0.2321
15206SOL    HW150465   4.760   9.216   7.298 -2.0294  0.7695 -0.8940
15206SOL    HW250466   4.728   9.076   7.252 -0.4957  0.4100 -0.8771
15207SOL     OW50467   2.289   6.588   6.005  0.4990  0.4956 -0.2836
15207SOL    HW150468   2.355   6.613   6.070 -0.2635 -0.4184  0.8711
15207SOL    HW250469   2.322   6.506   5.967 -0.1298 -0.1681  0.5683
15208SOL     OW50470   7.284   5.056   8.217  0.1702 -0.6353 -0.3210
15208SOL    HW150471   7.279   5.122   8.286  0.9176  1.2265 -2.0049
15208SOL    HW250472   7.256   4.975   8.259 -0.4640  0.6873  1.8690
15209SOL     OW50473   3.742   1.394   4.297 -0.1350 -0.3369  0.5219
15209SOL    HW150474   3.835   1.383   4.319  0.0425 -1.0322 -0.5432
15209SOL    HW250475   3.704   1.307   4.310 -0.5066 -0.2043  0.3333
15210SOL     OW50476   3.733   6.174   8.568 -0.3764 -0.0892 -0.3656
15210SOL    HW150477   3.680   6.220   8.502  0.7957 -0.3956 -1.5296
15210SOL    HW250478   3.693   6.088   8.575 -0.2908 -0.1745 -0.9295
15211SOL     OW50479   3.895   8.302   8.213  0.3603 -0.1331  0.0035
15211SOL    HW150480   3.886   8.383   8.262  0.2419 -0.7183  0.9789
15211SOL    HW250481   3.977   8.264   8.245  1.7550  0.8355 -2.3130
15212SOL     OW50482   4.751   6.171   8.281 -0.5387  0.3852 -0.4490
15212SOL    HW150483   4.675   6.114   8.292 -0.9236  1.1476  1.0539
15212SOL    HW250484   4.714   6.258   8.267 -0.0044  1.1348  2.3126
15213SOL     OW50485   2.779   7.230   6.969  0.6252  0.1182  0.2008
15213SOL    HW150486   2.715   7.174   6.923  0.9113 -0.5495  0.6121
15213SOL    HW250487   2.727   7.304   7.001  0.6382  1.2774 -2.3047
15214SOL     OW50488   5.796   5.768   8.740  0.0088  0.7042 -0.1531
15214SOL    HW150489   5.774   5.794   8.829 -0.7550 -0.7743  0.0977
15214SOL    HW250490   5.714   5.776   8.692  0.3725  1.2987 -0.6949
15215SOL     OW50491   5.570   7.355   7.462  0.8876  0.0310 -0.0102
15215SOL    HW150492   5.568   7.431   7.404  0.5301 -0.3260 -0.4744
15215SOL    HW250493   5.555   7.391   7.550 -0.8835  0.3293 -0.4184
15216SOL     OW50494   6.360   6.924   8.336 -0.3468  0.0422 -0.6669
15216SOL    HW150495   6.284   6.977   8.359  1.0783  2.2804 -0.9640
15216SOL    HW250496   6.399   6.898   8.419 -1.0733 -0.5821 -0.5214
15217SOL     OW50497   4.417   7.780   5.347  0.5951 -0.4179 -0.2335
15217SOL    HW150498   4.376   7.778   5.433 -0.5623 -0.8271 -0.7809
15217SOL    HW250499   4.484   7.848   5.353  0.2057 -0.1260  0.8438
15218SOL     OW50500   6.803   8.391   5.806 -0.1982 -0.2522  0.0757
15218SOL    HW150501   6.792   8.472   5.755 -0.1565 -0.6456 -0.5683
15218SOL    HW250502   6.735   8.395   5.873  0.9959  1.2239  1.2355
15219SOL     OW50503   6.637   6.573   8.129  0.3443 -0.2886  0.3378
15219SOL    HW150504   6.564   6.592   8.188 -0.4868  0.8871 -1.0400
15219SOL    HW250505   6.595   6.559   8.044  1.7537  0.8437 -0.5617
15220SOL     OW50506   4.954   7.417   7.037  0.0098  0.4130  0.0700
15220SOL    HW150507   4.965   7.328   7.004  1.8012  0.2755  1.0075
15220SOL    HW250508   4.915   7.465   6.963 -3.8168 -1.7766  0.5246
15221SOL     OW50509   3.794   7.563   5.150  0.5425 -0.1792 -0.1553
15221SOL    HW150510   3.815   7.543   5.241  0.4612  1.5182  0.2369
15221SOL    HW250511   3.698   7.558   5.146  0.5373 -0.1087 -0.1174
15222SOL     OW50512   6.893   6.928   5.475 -0.0019 -0.0762  0.3239
15222SOL    HW150513   6.836   6.872   5.423  0.1571 -0.9813  1.1086
15222SOL    HW250514   6.964   6.871   5.503 -0.7183  0.0897  2.5433
15223SOL     OW50515   7.463   5.129   5.946  0.0944 -0.6056 -0.1612
15223SOL    HW150516   7.487   5.095   5.859 -2.1332  0.6569 -1.3172
15223SOL    HW250517   7.464   5.053   6.003 -1.4942 -2.0271 -1.9869
15224SOL     OW50518   4.345   7.641   8.034 -0.3994  0.5772 -0.5050
15224SOL    HW150519   4.439   7.623   8.043 -0.3170  0.2444 -1.9405
15224SOL    HW250520   4.328   7.708   8.101  0.4820 -0.6191  0.9455
15225SOL     OW50521   3.163   5.974   8.203  0.5575 -0.0141  0.4986
15225SOL    HW150522   3.132   5.997   8.116  0.1333  2.7057  1.3154
15225SOL    HW250523   3.258   5.968   8.193  0.5730  0.9890 -0.0103
15226SOL     OW50524   3.572   6.642   8.691  0.0656 -0.1530  0.1175
15226SOL    HW150525   3.536   6.714   8.639 -1.3011  0.1349  1.4075
15226SOL    HW250526   3.587   6.572   8.628 -1.4127  0.2459 -0.7052
15227SOL     OW50527   5.573   7.201   7.766 -0.0273 -0.3113  0.7632
15227SOL    HW150528   5.538   7.289   7.753  1.0419 -0.0050 -0.0957
15227SOL    HW250529   5.497   7.148   7.787 -1.1491  0.1791 -1.8822
15228SOL     OW50530   4.983   6.062   9.115 -0.1313 -0.3373  0.1730
15228SOL    HW150531   4.943   6.145   9.090  3.0042  1.2169  0.0457
15228SOL    HW250532   4.974   6.058   9.211 -1.8823 -0.7449  0.0029
15229SOL     OW50533   7.192   4.601   8.479 -0.1235  0.3035 -0.0984
15229SOL    HW150534   7.162   4.618   8.390 -0.1250 -0.6517 -0.2881
15229SOL    HW250535   7.280   4.639   8.482  0.7840 -1.6162 -1.2118
15230SOL     OW50536   2.310   6.754   8.260 -0.5641 -0.6172  0.0321
15230SOL    HW150537   2.241   6.700   8.221 -0.9125  0.6978 -1.2029
15230SOL    HW250538   2.338   6.813   8.190 -0.3349  0.9354  1.3840
15231SOL     OW50539   5.959   8.517   4.798  0.5539  0.3263  0.5049
15231SOL    HW150540   5.892   8.448   4.793  0.0312  0.9679 -1.6794
15231SOL    HW250541   6.038   8.471   4.828 -0.5356 -0.6563  1.9575
15232SOL     OW50542   7.057   7.357   4.161  0.2387 -0.4289  0.5667
15232SOL    HW150543   7.116   7.294   4.205  0.9132  0.5826  1.1269
15232SOL    HW250544   7.046   7.321   4.073  2.6862 -0.0204  0.0591
15233SOL     OW50545   4.617   9.119   4.893 -0.1727 -0.7584  0.0682
15233SOL    HW150546   4.605   9.045   4.952  2.3398 -1.7283 -0.5747
15233SOL    HW250547   4.657   9.188   4.947  0.1944 -0.9149  0.0018
15234SOL     OW50548   5.450   8.622   8.113 -0.8043 -0.0149  0.6790
15234SOL    HW150549   5.420   8.602   8.202  0.7254  0.7582  1.3978
15234SOL    HW250550   5.539   8.656   8.125 -0.1654 -0.9103 -1.2332
15235SOL     OW50551   5.053   7.251   7.870 -0.4658 -0.4859 -0.2041
15235SOL    HW150552   4.958   7.243   7.875 -0.2790 -2.1005  1.4141
15235SOL    HW250553   5.069   7.300   7.790 -2.7880  2.4850  1.0352
15236SOL     OW50554   6.240   7.799   7.369  0.3030 -0.9715  0.2029
15236SOL    HW150555   6.200   7.712   7.366 -1.2637 -0.3894  2.6399
15236SOL    HW250556   6.257   7.814   7.462  1.7929  0.8046 -0.3250
15237SOL     OW50557   3.919   7.999   6.788 -0.1440 -0.5059  0.1665
15237SOL    HW150558   3.936   7.935   6.857 -0.1100 -0.0749  0.5601
15237SOL    HW250559   3.866   7.951   6.724 -0.6414 -0.7547  0.7537
15238SOL     OW50560   6.676   8.048   6.600 -0.1050  0.4419  0.3345
15238SOL    HW150561   6.598   8.083   6.558 -0.0934  2.5327  1.9962
15238SOL    HW250562   6.671   8.080   6.690  0.6288 -2.6835  1.5720
15239SOL     OW50563   4.971   5.783   8.671  0.5161 -0.0715  0.8447
15239SOL    HW150564   4.995   5.865   8.714 -3.1675  1.1053  0.8563
15239SOL    HW250565   4.904   5.808   8.607 -0.8022 -3.0586  0.9502
15240SOL     OW50566   5.187   8.199   7.847 -0.0751 -0.1992 -0.3025
15240SOL    HW150567   5.275   8.187   7.810 -0.5512 -1.1767 -1.1271
15240SOL    HW250568   5.130   8.146   7.792 -1.2162  0.5305  0.1500
15241SOL     OW50569   4.641   7.631   7.988  0.2680 -0.2523 -0.1143
15241SOL    HW150570   4.651   7.597   7.899  1.2349  1.5442 -0.7025
15241SOL    HW250571   4.649   7.726   7.979 -3.6029  0.2978  1.3366
15242SOL     OW50572   3.666   8.447   6.988  0.3158  0.1649  0.0989
15242SOL    HW150573   3.682   8.511   6.918  0.1855  0.3561  0.2424
15242SOL    HW250574   3.705   8.488   7.066  0.9280 -0.2777  0.0341
15243SOL     OW50575   2.791   5.632   8.820  0.1449  0.2282  0.1784
15243SOL    HW150576   2.700   5.605   8.831 -0.0495  0.7603 -0.1135
15243SOL    HW250577   2.814   5.603   8.732 -0.6213  2.5928 -0.8177
15244SOL     OW50578   3.799   6.513   8.469  0.1517 -0.3444  0.3104
15244SOL    HW150579   3.717   6.463   8.475 -1.0729  1.3848 -1.3153
15244SOL    HW250580   3.781   6.580   8.404  2.1967  1.3955  1.4710
15245SOL     OW50581   2.397   6.738   8.765  0.1710  0.1828  0.5768
15245SOL    HW150582   2.427   6.816   8.812  0.3192 -0.1308  1.0033
15245SOL    HW250583   2.468   6.675   8.775  0.2000  0.1168 -0.0659
15246SOL     OW50584   3.498   5.397   8.867 -0.0583  0.1812  0.4606
15246SOL    HW150585   3.560   5.339   8.911 -1.9686 -1.4569  1.0894
15246SOL    HW250586   3.470   5.348   8.790  0.0155  1.2193 -0.2292
15247SOL     OW50587   5.663   9.165   4.446 -0.0590  0.3191  0.3819
15247SOL    HW150588   5.626   9.235   4.393 -2.0723 -0.9557  0.0420
15247SOL    HW250589   5.732   9.126   4.391 -0.0415  0.9886 -0.0674
15248SOL     OW50590   4.874   7.794   6.659 -0.1750 -0.1470 -0.7145
15248SOL    HW150591   4.796   7.810   6.711 -0.9844  0.0819 -1.9734
15248SOL    HW250592   4.919   7.879   6.656  0.5115 -0.4464  0.6046
15249SOL     OW50593   7.705   9.711   5.589  0.2134 -0.0931  0.0896
15249SOL    HW150594   7.751   9.628   5.577  1.1638  0.6596 -1.8187
15249SOL    HW250595   7.642   9.714   5.518 -0.8835  0.1366  1.0672
15250SOL     OW50596   4.467   8.525   6.890 -0.0815 -0.4395 -0.2024
15250SOL    HW150597   4.441   8.585   6.960 -1.8285 -2.7923  1.2090
15250SOL    HW250598   4.560   8.510   6.904 -0.3672 -0.6764  1.4703
15251SOL     OW50599   4.491   9.650   6.845 -0.3104 -0.0185  0.2724
15251SOL    HW150600   4.497   9.580   6.910 -0.6110  0.8139  1.2021
15251SOL    HW250601   4.470   9.728   6.896  1.3818  1.0261 -0.5776
15252SOL     OW50602   6.418   6.644   9.503  0.5525  0.3830 -0.1939
15252SOL    HW150603   6.455   6.713   9.559 -0.2286  0.7841 -0.1717
15252SOL    HW250604   6.432   6.563   9.552  0.3602  0.6678  0.3330
15253SOL     OW50605   6.347   6.143   8.336 -0.0293  0.2069 -0.4275
15253SOL    HW150606   6.419   6.129   8.275 -0.4703 -0.6989 -0.7512
15253SOL    HW250607   6.324   6.235   8.325  2.1585  0.9532  0.8849
15254SOL     OW50608   3.113   5.637   8.336 -0.3554  0.3270 -0.3219
15254SOL    HW150609   3.176   5.564   8.332  0.7580  0.9983  3.1901
15254SOL    HW250610   3.154   5.706   8.285  0.9926  0.1597  0.4865
15255SOL     OW50611   3.068   6.334   8.764 -0.2754  0.4028 -0.4889
15255SOL    HW150612   3.054   6.241   8.747  0.3859  0.0965  0.5835
15255SOL    HW250613   3.161   6.347   8.747 -0.0131  0.4992  0.9693
15256SOL     OW50614   4.752   6.770   7.931 -0.3786  0.0010 -0.1574
15256SOL    HW150615   4.670   6.805   7.965 -1.0074 -1.1738 -0.4242
15256SOL    HW250616   4.779   6.832   7.864 -0.9976  0.4523  0.0075
15257SOL     OW50617   6.566   5.845   3.892 -0.7263 -0.3234  1.3895
15257SOL    HW150618   6.643   5.873   3.942 -0.6078 -1.5336  1.9034
15257SOL    HW250619   6.521   5.926   3.869  0.4601  0.3711  1.4767
15258SOL     OW50620   5.287   7.898   7.456 -0.4311 -0.0401 -0.3279
15258SOL    HW150621   5.199   7.928   7.432  0.2167 -0.3324 -3.3281
15258SOL    HW250622   5.341   7.977   7.453 -0.1313 -0.2589 -1.0640
15259SOL     OW50623   3.408   5.805   8.387 -0.3917  0.4460 -0.0258
15259SOL    HW150624   3.461   5.732   8.420 -1.7523  0.1097  1.4489
15259SOL    HW250625   3.469   5.879   8.383  0.3984 -0.1476  0.8205
15260SOL     OW50626   4.575   6.545   9.211  1.0221  0.3065  0.3930
15260SOL    HW150627   4.493   6.511   9.174  0.6937  1.6977 -0.1634
15260SOL    HW250628   4.554   6.560   9.303  0.6425  0.6999  0.2424
15261SOL     OW50629   6.336   5.774   8.595  0.0101 -0.0409  0.2974
15261SOL    HW150630   6.427   5.797   8.578 -0.3129  0.8235 -0.2617
15261SOL    HW250631   6.332   5.679   8.580  0.7275 -0.0117 -0.0666
15262SOL     OW50632   3.555   7.148   7.445  0.3778 -0.2822  0.1961
15262SOL    HW150633   3.512   7.231   7.462 -0.0754 -0.8094  1.6907
15262SOL    HW250634   3.630   7.170   7.390 -0.2154  0.9937 -0.1052
15263SOL     OW50635   7.259   8.429   6.457  0.3380  0.2476  0.0345
15263SOL    HW150636   7.206   8.472   6.524  2.2919  0.2599  1.6329
15263SOL    HW250637   7.281   8.498   6.394 -1.8115  0.1563 -0.8502
15264SOL     OW50638   5.686   6.878   8.558  0.1076 -0.1177 -0.2461
15264SOL    HW150639   5.668   6.972   8.551 -0.2274 -0.2901 -2.0048
15264SOL    HW250640   5.778   6.874   8.585 -0.1189  0.7212  0.6677
15265SOL     OW50641   4.586   6.892   8.313 -0.2027  0.2474  0.0016
15265SOL    HW150642   4.614   6.804   8.338 -1.7771 -0.5341 -0.9559
15265SOL    HW250643   4.562   6.934   8.396  0.3820 -0.2652  0.4366
15266SOL     OW50644   6.954   7.243   6.376 -0.6930 -0.5346 -0.3702
15266SOL    HW150645   6.907   7.255   6.458  1.4681 -0.1439  0.8684
15266SOL    HW250646   7.020   7.313   6.376  0.1782 -1.3283 -1.8119
15267SOL     OW50647   3.346   5.012   8.254 -0.0056  0.0797  0.1421
15267SOL    HW150648   3.400   5.051   8.323 -1.0446  2.5376 -0.3812
15267SOL    HW250649   3.256   5.024   8.284 -0.4559  0.8923 -1.5066
15268SOL     OW50650   4.312   5.279   9.672  0.0083  0.0564  0.2100
15268SOL    HW150651   4.399   5.243   9.687 -0.1791 -0.3206  0.3943
15268SOL    HW250652   4.255   5.202   9.666 -0.3608  0.3139  0.4088
15269SOL     OW50653   7.900   6.390   6.584 -0.3010 -0.4736  0.0223
15269SOL    HW150654   7.944   6.335   6.519  0.9231  0.2724  0.2004
15269SOL    HW250655   7.924   6.479   6.560 -2.1817 -0.0118 -0.1966
15270SOL     OW50656   3.229   6.075   7.755  0.0204  0.2530 -0.4164
15270SOL    HW150657   3.264   6.160   7.784 -1.3785  0.8603 -0.4255
15270SOL    HW250658   3.171   6.098   7.682 -1.0841 -0.6057  0.1825
15271SOL     OW50659   2.609   7.731   7.207 -0.0610 -0.0227  0.2194
15271SOL    HW150660   2.616   7.676   7.285  3.7657  0.5174  0.3396
15271SOL    HW250661   2.579   7.815   7.239 -2.2219 -0.8970  0.5548
15272SOL     OW50662   5.016   7.645   7.278  0.0192  0.2688  0.7430
15272SOL    HW150663   5.029   7.654   7.183  0.2478  0.2409  0.7714
15272SOL    HW250664   4.992   7.553   7.290  0.2560  0.2065  0.7417
15273SOL     OW50665   3.827   6.464   9.141 -0.2966 -0.3993  0.4672
15273SOL    HW150666   3.848   6.448   9.049  0.1220 -2.7580  0.9446
15273SOL    HW250667   3.748   6.517   9.139  0.2895  0.4499 -1.2530
15274SOL     OW50668   6.046   7.191   7.703 -0.8306  0.3754  0.2710
15274SOL    HW150669   6.073   7.244   7.628  1.8724 -1.4245 -0.0717
15274SOL    HW250670   6.111   7.211   7.770 -0.5119 -1.5493  0.5528
15275SOL     OW50671   1.967   7.628   7.146 -0.5358 -0.3221 -0.0592
15275SOL    HW150672   1.957   7.575   7.225 -0.9959  0.2562  0.2750
15275SOL    HW250673   1.989   7.565   7.077  0.8859 -0.7170  0.7337
15276SOL     OW50674   6.128   8.228   5.401  0.7072 -0.3805  0.2460
15276SOL    HW150675   6.168   8.227   5.314  0.8143 -1.4183  0.2975
15276SOL    HW250676   6.075   8.308   5.402 -0.7163 -1.2431 -1.4476
15277SOL     OW50677   3.702   8.616   7.209 -0.4816 -0.1159  0.0290
15277SOL    HW150678   3.679   8.644   7.298 -1.7226 -0.9621 -0.0133
15277SOL    HW250679   3.781   8.665   7.188 -0.5954  0.6412  1.3282
15278SOL     OW50680   6.839   6.275   6.246  0.0652  0.2054 -0.0295
15278SOL    HW150681   6.932   6.276   6.268  0.2711  0.2360 -0.8607
15278SOL    HW250682   6.809   6.364   6.261  0.4572  0.4949 -0.8989
15279SOL     OW50683   4.286   4.475   8.769 -0.3155  0.2121  0.2295
15279SOL    HW150684   4.358   4.506   8.714 -1.4460  0.2219 -1.2879
15279SOL    HW250685   4.240   4.555   8.795 -1.2335  0.0455 -0.8653
15280SOL     OW50686   2.243   5.842   7.637 -0.3292 -1.0245 -0.0592
15280SOL    HW150687   2.243   5.777   7.707 -1.2639 -0.6154  0.3244
15280SOL    HW250688   2.199   5.799   7.564 -0.0271 -1.1831 -0.1489
15281SOL     OW50689   5.339   6.011   8.913 -0.0820 -0.7790  0.4889
15281SOL    HW150690   5.406   6.045   8.855 -1.9294  0.9348 -0.7263
15281SOL    HW250691   5.367   6.036   9.001  1.6689 -1.5368  0.1504
15282SOL     OW50692   6.700   7.775   6.531  0.0240  0.3865 -0.8259
15282SOL    HW150693   6.681   7.868   6.542  0.4086  0.3448  0.2076
15282SOL    HW250694   6.744   7.770   6.446 -2.2643  0.8129 -2.0869
15283SOL     OW50695   5.678   7.525   7.275  0.4467  0.4002 -1.0092
15283SOL    HW150696   5.713   7.549   7.189 -0.5426  0.5524 -1.3734
15283SOL    HW250697   5.634   7.605   7.306  0.9308  0.3969 -0.2885
15284SOL     OW50698   3.464   7.668   7.895 -0.8610  0.3701 -0.0301
15284SOL    HW150699   3.418   7.707   7.821 -0.4338 -1.0698 -1.0755
15284SOL    HW250700   3.555   7.660   7.865 -0.8763 -1.1044  0.2631
15285SOL     OW50701   4.099   7.670   8.517  0.1758 -0.3849 -0.1516
15285SOL    HW150702   4.022   7.614   8.501 -0.0291  0.3129 -1.7206
15285SOL    HW250703   4.173   7.610   8.510 -0.1344 -0.7648 -0.2259
15286SOL     OW50704   4.500   8.776   8.351  0.8456 -0.1422  0.0646
15286SOL    HW150705   4.490   8.853   8.407  2.3220 -1.1809  1.8001
15286SOL    HW250706   4.559   8.804   8.281 -1.0235  1.1612 -1.0620
15287SOL     OW50707   8.156   7.528   6.234  0.2397 -0.2114  0.0716
15287SOL    HW150708   8.087   7.462   6.234  0.0405 -0.0570  2.0912
15287SOL    HW250709   8.236   7.480   6.258  0.8239 -0.3605 -2.0947
15288SOL     OW50710   4.898   9.227   5.114  0.4688 -0.2999  0.3995
15288SOL    HW150711   4.935   9.315   5.105  0.8247 -0.4811  0.1102
15288SOL    HW250712   4.974   9.171   5.130  0.2720 -0.6007  0.2714
15289SOL     OW50713   5.125   8.094   8.115 -0.3405  0.3431  0.1789
15289SOL    HW150714   5.190   8.026   8.096 -0.6153 -0.2152  1.2386
15289SOL    HW250715   5.132   8.154   8.041  0.2144 -0.6008 -0.5535
15290SOL     OW50716   6.127   8.274   7.022 -0.5766 -0.4607  0.2428
15290SOL    HW150717   6.056   8.293   6.960 -1.6806  0.0242  1.6412
15290SOL    HW250718   6.173   8.357   7.032  0.0468 -0.7093 -0.4542
15291SOL     OW50719   5.813   8.223   5.595  0.7930 -0.3557  0.3676
15291SOL    HW150720   5.785   8.209   5.505  0.3057 -0.7957  0.5833
15291SOL    HW250721   5.753   8.290   5.629  1.8012  0.7660 -0.0269
15292SOL     OW50722   5.474   6.758   8.691  0.0594  0.3577  0.1501
15292SOL    HW150723   5.553   6.790   8.648  0.4173 -1.3115 -0.4512
15292SOL    HW250724   5.409   6.827   8.676  0.8955  0.9414 -0.8566
15293SOL     OW50725   2.521   6.618   8.529 -0.5431  0.1878 -0.2045
15293SOL    HW150726   2.589   6.572   8.579 -1.8910 -0.0709  1.4617
15293SOL    HW250727   2.539   6.595   8.438 -0.4340 -2.6924  0.4738
15294SOL     OW50728   4.753   7.608   7.153  0.7276 -0.2724 -0.4362
15294SOL    HW150729   4.720   7.692   7.185 -2.7041 -1.7638  0.1851
15294SOL    HW250730   4.720   7.603   7.063  0.8776 -0.9467 -0.4538
15295SOL     OW50731   5.973   8.375   5.080  0.4918 -0.2502 -0.5401
15295SOL    HW150732   6.053   8.384   5.028  0.3125  0.3154 -0.7273
15295SOL    HW250733   5.961   8.461   5.120 -0.3805 -0.1275 -1.0472
15296SOL     OW50734   8.470   6.205   6.430  0.1380 -0.4223  0.4322
15296SOL    HW150735   8.468   6.245   6.517 -0.5430  0.5904 -0.0414
15296SOL    HW250736   8.391   6.238   6.386 -0.0679 -1.7345 -0.2175
15297SOL     OW50737   3.021   8.054   7.675  0.5937  0.0867  0.8305
15297SOL    HW150738   3.074   7.988   7.719  1.3725  0.8998  1.1201
15297SOL    HW250739   3.066   8.137   7.692 -0.7454  0.7857  1.0614
15298SOL     OW50740   5.092   7.998   6.494  0.0789  0.0745 -0.3852
15298SOL    HW150741   5.082   8.051   6.415 -0.9889 -1.8527 -1.5772
15298SOL    HW250742   5.016   8.019   6.547 -0.1679 -0.0003 -0.7072
15299SOL     OW50743   5.165   8.219   7.426  0.1954  0.0508  0.5699
15299SOL    HW150744   5.259   8.203   7.438  0.8938  1.5566 -2.4078
15299SOL    HW250745   5.130   8.134   7.399  1.0170 -0.1346  0.0524
15300SOL     OW50746   4.251   8.649   4.728  0.2744  0.3135  0.2602
15300SOL    HW150747   4.334   8.632   4.684 -0.5555  1.5444 -1.8625
15300SOL    HW250748   4.273   8.715   4.794  1.2040 -0.3079  0.5956
15301SOL     OW50749   5.571   8.628   6.497  1.1368 -0.1410  0.0224
15301SOL    HW150750   5.597   8.538   6.514  1.7255  0.2827  1.3887
15301SOL    HW250751   5.497   8.643   6.556  0.2918 -0.0976 -1.0381
15302SOL     OW50752   6.154   6.553   8.908  0.1415  0.1057  0.2408
15302SOL    HW150753   6.225   6.604   8.869 -0.8143  1.4380  0.2260
15302SOL    HW250754   6.136   6.595   8.992  1.2604 -1.9319  1.5663
15303SOL     OW50755   1.558   6.142   6.687 -0.1306  0.0248 -0.5552
15303SOL    HW150756   1.602   6.087   6.622 -1.0334  0.2341 -1.3574
15303SOL    HW250757   1.598   6.229   6.676 -0.6302  0.1818 -1.1897
15304SOL     OW50758   4.434   8.101   6.363 -0.1137  0.3542 -0.0916
15304SOL    HW150759   4.495   8.050   6.417 -0.0346 -0.1553 -0.6629
15304SOL    HW250760   4.357   8.044   6.355 -0.5131  0.8389  0.3068
15305SOL     OW50761   3.126   6.062   8.764  0.0724 -0.7431 -0.2608
15305SOL    HW150762   3.183   6.056   8.687  0.3107  0.7788 -0.2227
15305SOL    HW250763   3.184   6.084   8.836 -0.5493  1.0072 -0.2525
15306SOL     OW50764   5.669   8.114   4.854 -0.0321  0.1079 -0.1222
15306SOL    HW150765   5.592   8.059   4.870  0.4813 -0.5344  0.1606
15306SOL    HW250766   5.743   8.054   4.858  0.4345  0.6079 -1.0851
15307SOL     OW50767   4.948   8.120   7.070  0.4415 -0.8460 -0.5510
15307SOL    HW150768   5.044   8.127   7.077  0.3074 -0.2941  0.8196
15307SOL    HW250769   4.929   8.144   6.979  1.5220 -0.0106 -0.5623
15308SOL     OW50770   2.666   7.459   7.077  0.4282 -0.1610  0.1698
15308SOL    HW150771   2.688   7.460   7.170 -1.2360  0.3362  0.5737
15308SOL    HW250772   2.594   7.521   7.069  0.1645 -0.6501 -1.3538
15309SOL     OW50773   5.200   6.854   7.965  0.0348  0.1794  0.0492
15309SOL    HW150774   5.204   6.778   8.023 -2.1496  0.3205  0.4562
15309SOL    HW250775   5.160   6.821   7.885 -1.0462  0.8969  0.2760
15310SOL     OW50776   2.293   5.943   8.253 -0.1808  0.0566  0.9045
15310SOL    HW150777   2.247   5.992   8.321  1.6048 -0.8004  2.8009
15310SOL    HW250778   2.234   5.869   8.233 -1.3153  1.0476  0.5145
15311SOL     OW50779   5.299   8.713   6.985  0.1544  0.3657  0.2260
15311SOL    HW150780   5.357   8.656   7.035  1.9748  0.8707 -1.2312
15311SOL    HW250781   5.319   8.801   7.017  1.1259  0.6634 -1.1386
15312SOL     OW50782   2.526   4.667   4.979 -0.6348  0.5428  0.5394
15312SOL    HW150783   2.451   4.641   5.032 -0.9484 -0.3103 -0.3060
15312SOL    HW250784   2.555   4.586   4.936 -0.3752  1.2059 -0.5730
15313SOL     OW50785   7.250   5.918   8.752  0.1079  0.2377  0.6909
15313SOL    HW150786   7.213   5.961   8.829  0.8327  1.1882  0.5156
15313SOL    HW250787   7.345   5.929   8.761  0.2482 -0.4862  0.1583
15314SOL     OW50788   2.898   7.449   6.035 -0.5068  0.1310 -0.9120
15314SOL    HW150789   2.821   7.500   6.059 -0.4763 -0.2911  0.0987
15314SOL    HW250790   2.918   7.477   5.945 -1.3319  0.8492 -0.8803
15315SOL     OW50791   1.267   6.397   6.546  0.0354 -0.4005 -0.0906
15315SOL    HW150792   1.281   6.488   6.573 -1.3110  0.2745 -1.6202
15315SOL    HW250793   1.196   6.366   6.603 -0.0404 -0.2506 -0.1020
15316SOL     OW50794   2.702   5.848   9.156 -0.4735 -0.4871  0.1004
15316SOL    HW150795   2.608   5.851   9.173 -0.1671 -0.8700  1.9892
15316SOL    HW250796   2.740   5.905   9.224  0.6460 -0.2941 -0.6775
15317SOL     OW50797   2.140   3.735   2.083  0.0236 -0.3517 -0.4231
15317SOL    HW150798   2.233   3.749   2.105  0.6892 -0.9285 -2.7688
15317SOL    HW250799   2.137   3.646   2.050 -1.5543 -0.6372  0.4496
15318SOL     OW50800   5.569   7.648   7.019 -0.6255  0.1252 -0.1310
15318SOL    HW150801   5.492   7.693   7.053 -0.5780  1.0409 -1.1693
15318SOL    HW250802   5.536   7.594   6.947 -0.3484  0.2973 -0.3910
15319SOL     OW50803   3.386   4.322   2.670 -0.2924  0.4136  0.4356
15319SOL    HW150804   3.441   4.257   2.627 -0.4142 -0.3613  1.4535
15319SOL    HW250805   3.425   4.406   2.644  0.1456 -0.0659 -0.4903
15320SOL     OW50806   5.631   9.604   3.670  0.2070 -0.6909  0.5369
15320SOL    HW150807   5.599   9.634   3.585  1.0783  0.6137  0.6534
15320SOL    HW250808   5.716   9.648   3.680  0.8839 -2.1388  1.3312
15321SOL     OW50809   2.396   7.580   8.948  0.0872 -0.0268  0.1083
15321SOL    HW150810   2.350   7.552   8.869 -0.8770 -0.3989  0.7917
15321SOL    HW250811   2.487   7.589   8.920 -0.6078  2.0992 -1.5918
15322SOL     OW50812   4.275   7.590   7.494  0.6615  0.1170 -0.7081
15322SOL    HW150813   4.222   7.661   7.458 -0.4960 -0.0880  0.5470
15322SOL    HW250814   4.304   7.622   7.579  0.3252 -0.8133 -0.2358
15323SOL     OW50815   2.012   7.269   8.448 -0.5367  0.6255  0.4846
15323SOL    HW150816   2.073   7.196   8.454  1.3524  2.1745  0.5527
15323SOL    HW250817   2.041   7.331   8.514 -2.5993  1.1299  0.9669
15324SOL     OW50818   4.115   9.024   7.330 -0.8544  0.3048 -0.9149
15324SOL    HW150819   4.157   9.104   7.361 -1.5925 -1.0714  4.1072
15324SOL    HW250820   4.022   9.045   7.328 -1.1002 -0.5611  0.9498
15325SOL     OW50821   6.728   6.770   6.198 -0.0918 -0.2431 -0.2563
15325SOL    HW150822   6.704   6.837   6.262  3.0588  1.0528 -0.3730
15325SOL    HW250823   6.691   6.802   6.115  3.0252  2.4609 -0.7141
15326SOL     OW50824   5.029   7.978   7.387  0.1026 -0.3659 -0.2922
15326SOL    HW150825   4.981   7.975   7.304  0.1822  1.4010 -0.4170
15326SOL    HW250826   4.964   7.952   7.453 -0.7167  0.8866 -0.5950
15327SOL     OW50827   6.832   7.526   6.338  0.0471  0.0751  0.2686
15327SOL    HW150828   6.791   7.444   6.312 -0.9630  1.2697 -1.9892
15327SOL    HW250829   6.850   7.515   6.432 -0.4431 -2.5384  0.0916
15328SOL     OW50830   7.644   5.359   7.864  0.5291  0.1730  0.8917
15328SOL    HW150831   7.644   5.338   7.957 -1.5699 -2.3109  0.3866
15328SOL    HW250832   7.599   5.444   7.859 -1.0579 -0.5782  1.9792
15329SOL     OW50833   5.549   8.696   7.624  0.0013  0.5550  0.2031
15329SOL    HW150834   5.597   8.648   7.691  2.5145  3.3372  0.5079
15329SOL    HW250835   5.489   8.753   7.672 -0.5661  0.1648 -0.0360
15330SOL     OW50836   2.270   6.737   6.491  0.3947  0.3573  0.8161
15330SOL    HW150837   2.183   6.726   6.454  0.3801 -0.6414  1.1469
15330SOL    HW250838   2.296   6.649   6.518  2.4102  0.2501 -1.3124
15331SOL     OW50839   4.249   7.707   6.954 -0.7005 -0.0332  0.0355
15331SOL    HW150840   4.306   7.648   7.003  0.5871  0.5177 -0.7814
15331SOL    HW250841   4.269   7.689   6.862 -2.5463 -0.5151 -0.2979
15332SOL     OW50842   4.949   6.364   8.101 -0.3246 -0.5469 -0.1602
15332SOL    HW150843   4.919   6.440   8.150 -0.7852  0.1151 -1.4336
15332SOL    HW250844   4.890   6.293   8.127  1.8337 -1.2121  3.1337
15333SOL     OW50845   1.866   7.495   6.908  0.5396  0.2879  0.3740
15333SOL    HW150846   1.839   7.403   6.904 -1.5280  0.8433  0.8066
15333SOL    HW250847   1.891   7.516   6.818 -0.5225 -0.2741 -0.0685
15334SOL     OW50848   5.529   7.726   6.387 -0.6004 -0.0290 -0.1943
15334SOL    HW150849   5.515   7.757   6.297 -0.7952 -0.9217 -0.4735
15334SOL    HW250850   5.617   7.759   6.409  0.0947 -1.1006 -1.2741
15335SOL     OW50851   4.164   7.421   7.978  0.3269  0.0279  0.0852
15335SOL    HW150852   4.148   7.450   7.888 -0.6006 -0.7488  0.0006
15335SOL    HW250853   4.208   7.496   8.019 -1.4647  1.3293 -0.3177
15336SOL     OW50854   5.018   7.151   7.008 -0.0098 -0.1436 -0.3140
15336SOL    HW150855   5.098   7.134   7.058  1.6108  0.7413 -2.5152
15336SOL    HW250856   4.947   7.118   7.063  1.8154 -0.2824  1.9980
15337SOL     OW50857   4.791   7.391   7.327 -0.4455 -0.0425 -0.2840
15337SOL    HW150858   4.784   7.453   7.254  0.9244  0.1411 -0.2752
15337SOL    HW250859   4.707   7.398   7.372 -0.8493  0.7409 -1.1385
15338SOL     OW50860   6.394   6.909   7.540  0.2031 -0.0911  0.5454
15338SOL    HW150861   6.442   6.831   7.570 -0.9899 -0.9578  0.2651
15338SOL    HW250862   6.302   6.882   7.540 -0.0051  0.3750 -2.3072
15339SOL     OW50863   4.869   7.760   7.502  0.4399  0.0221  0.4612
15339SOL    HW150864   4.923   7.729   7.429  1.0672 -0.3543  1.0792
15339SOL    HW250865   4.780   7.736   7.478  0.6065  0.1404 -0.3050
15340SOL     OW50866   3.681   7.984   7.449  0.6314 -0.5471 -0.2495
15340SOL    HW150867   3.710   7.971   7.358  1.3866  0.5628 -0.1888
15340SOL    HW250868   3.747   8.043   7.486  1.0074 -1.9588  1.3939
15341SOL     OW50869   2.308   5.422   7.333  0.3267 -0.3602  0.2747
15341SOL    HW150870   2.254   5.423   7.412  0.8214 -0.1079  0.6104
15341SOL    HW250871   2.245   5.427   7.261 -0.0332  1.7462  0.7028
15342SOL     OW50872   3.903   7.067   8.148  0.5043 -0.9557  0.1652
15342SOL    HW150873   3.953   7.042   8.070 -0.2988  0.1050 -0.6981
15342SOL    HW250874   3.815   7.032   8.133  0.3510 -0.7730  0.6053
15343SOL     OW50875   5.865   7.497   6.977 -0.3885 -0.8686 -0.7365
15343SOL    HW150876   5.830   7.565   6.921 -1.1888  0.8638  1.7700
15343SOL    HW250877   5.822   7.416   6.948 -2.8183  0.4350 -0.8354
15344SOL     OW50878   7.899   6.118   7.592 -0.4244  0.1830 -0.4434
15344SOL    HW150879   7.905   6.029   7.558  0.3818 -0.8184  2.2563
15344SOL    HW250880   7.985   6.136   7.629 -0.3716  2.3539 -1.5116
15345SOL     OW50881   2.801   5.434   8.055 -0.1611 -0.1787 -0.6133
15345SOL    HW150882   2.769   5.436   7.965 -0.3419 -0.0665 -0.5469
15345SOL    HW250883   2.722   5.430   8.108 -0.0572 -0.1380 -0.4558
15346SOL     OW50884   6.849   6.809   6.777  0.0365  0.6167 -0.5256
15346SOL    HW150885   6.798   6.889   6.763 -1.1185 -0.0167  0.0184
15346SOL    HW250886   6.785   6.745   6.810  1.0346 -0.4007 -0.5401
15347SOL     OW50887   6.584   6.758   5.107  0.2360  0.0063  0.7056
15347SOL    HW150888   6.650   6.819   5.076 -0.8581 -0.0915 -1.9340
15347SOL    HW250889   6.518   6.757   5.038 -0.2221 -3.4280  1.1161
15348SOL     OW50890   6.402   8.150   6.601 -0.1564  0.4611  0.7202
15348SOL    HW150891   6.334   8.194   6.549 -0.4682  0.2232  0.9254
15348SOL    HW250892   6.413   8.205   6.678  0.2973  0.8065  0.4098
15349SOL     OW50893   4.072   6.150   8.994  0.4431 -0.0766  0.3706
15349SOL    HW150894   4.143   6.181   8.938 -0.1846 -0.4771 -0.6699
15349SOL    HW250895   4.106   6.157   9.083  0.4438  3.2320  0.1703
15350SOL     OW50896   4.081   9.058   4.083 -0.7615 -0.1541 -0.1725
15350SOL    HW150897   4.099   8.969   4.114 -4.2158 -1.1876 -0.9064
15350SOL    HW250898   3.998   9.082   4.125  0.3954  3.0001  0.4828
15351SOL     OW50899   5.331   7.873   5.894  0.6496 -0.3373 -0.0632
15351SOL    HW150900   5.252   7.927   5.882  1.1128  0.0553 -1.4781
15351SOL    HW250901   5.328   7.847   5.986 -1.3525 -0.6605 -0.1847
15352SOL     OW50902   2.360   8.270   6.488  0.3516 -0.1353 -0.0616
15352SOL    HW150903   2.364   8.232   6.576 -1.0522  0.6023  0.3277
15352SOL    HW250904   2.280   8.235   6.451  0.8862 -0.3525 -1.0240
15353SOL     OW50905   2.437   5.139   8.982  0.0326  0.7123 -0.3385
15353SOL    HW150906   2.346   5.164   8.966 -0.7198 -2.1096 -0.7021
15353SOL    HW250907   2.432   5.048   9.012  2.8029  0.2675 -1.1229
15354SOL     OW50908   3.025   7.135   9.626 -0.0917  0.3501  0.5190
15354SOL    HW150909   3.071   7.051   9.620  0.1501  0.6737 -2.8636
15354SOL    HW250910   3.083   7.191   9.678  1.4701 -0.4621 -0.3402
15355SOL     OW50911   4.445   7.785   8.587 -0.0535 -0.4191 -0.7748
15355SOL    HW150912   4.464   7.879   8.583  1.1980 -0.6107  0.1094
15355SOL    HW250913   4.418   7.762   8.498 -0.2700  0.7551 -1.0260
15356SOL     OW50914   6.568   9.146   8.879  0.2293 -0.2308  0.1633
15356SOL    HW150915   6.650   9.098   8.890  0.2748 -0.2830 -0.3927
15356SOL    HW250916   6.594   9.230   8.841 -0.0516 -0.5838 -0.8434
15357SOL     OW50917   4.281   7.423   8.488  0.0785 -0.3649 -0.3017
15357SOL    HW150918   4.301   7.401   8.579 -0.3722 -3.7788 -0.9615
15357SOL    HW250919   4.366   7.423   8.444  0.1557 -0.0246 -0.1564
15358SOL     OW50920   3.930   7.429   0.365 -0.4102 -0.2722 -0.2075
15358SOL    HW150921   3.862   7.370   0.333  0.4187 -0.6006 -1.4232
15358SOL    HW250922   3.972   7.463   0.285 -0.1229  1.0602  0.4997
15359SOL     OW50923   4.637   7.291   9.267 -0.0096 -0.0263  0.2154
15359SOL    HW150924   4.597   7.374   9.240  0.9187  0.2139 -0.4353
15359SOL    HW250925   4.729   7.299   9.243  0.2965 -0.8482  1.0838
15360SOL     OW50926   3.416   5.875   9.787 -0.2636 -0.1672 -0.5110
15360SOL    HW150927   3.349   5.832   9.733  1.3068 -1.3430 -1.5492
15360SOL    HW250928   3.392   5.851   9.877 -1.1775 -0.6549 -0.8702
15361SOL     OW50929   5.093   7.021   9.060 -0.3672 -0.1728  0.4495
15361SOL    HW150930   5.014   7.013   9.112 -0.3609  1.0639  0.6684
15361SOL    HW250931   5.119   7.113   9.069  0.2798 -0.2128 -0.7880
15362SOL     OW50932   5.440   5.759   0.165  0.4123 -0.4719 -0.1297
15362SOL    HW150933   5.415   5.731   0.077 -1.0318  0.2821  0.0242
15362SOL    HW250934   5.425   5.854   0.165  0.2202 -0.4987  0.9888
15363SOL     OW50935   6.001   7.057   9.280 -0.7001 -0.2759  0.1920
15363SOL    HW150936   6.084   7.081   9.320 -1.3168 -0.5062  1.6557
15363SOL    HW250937   5.957   7.004   9.346 -0.4874 -3.2733 -1.9445
15364SOL     OW50938   5.259   6.442   9.126 -0.3713  0.6043 -0.2265
15364SOL    HW150939   5.231   6.533   9.119 -0.0647  0.7273  0.1029
15364SOL    HW250940   5.259   6.409   9.036 -1.9145  0.4917 -0.1933
15365SOL     OW50941   4.315   5.916   0.163  0.3247 -0.2718  0.1337
15365SOL    HW150942   4.303   5.949   0.074 -1.2833 -0.4586  0.2590
15365SOL    HW250943   4.391   5.964   0.196  1.0973 -0.3869 -1.4173
15366SOL     OW50944   6.126   6.186   9.190  0.3968  0.8500  0.1397
15366SOL    HW150945   6.133   6.097   9.225 -1.9311  0.6214  0.0973
15366SOL    HW250946   6.184   6.186   9.114  1.2852 -0.2818  0.7927
15367SOL     OW50947   2.731   9.599   9.537 -0.3959  0.2457 -0.0633
15367SOL    HW150948   2.714   9.509   9.567 -0.9994  0.6538  0.8524
15367SOL    HW250949   2.770   9.642   9.613 -0.5351  0.8821 -0.3521
15368SOL     OW50950   3.108   6.765   0.099 -0.0261 -0.0466 -0.4990
15368SOL    HW150951   3.199   6.760   0.070 -0.0291  1.2262 -0.7698
15368SOL    HW250952   3.069   6.683   0.071  1.6425 -1.6652  1.7541
15369SOL     OW50953   2.212   4.972   5.795 -0.0656  0.4726 -0.1133
15369SOL    HW150954   2.294   5.014   5.770  0.2977  0.2100  0.6316
15369SOL    HW250955   2.167   5.037   5.848  0.0886  0.2581  0.2788
15370SOL     OW50956   3.875   8.586   8.100 -0.1047 -0.0240 -0.4812
15370SOL    HW150957   3.897   8.560   8.190  0.8489 -0.3640 -0.8088
15370SOL    HW250958   3.897   8.679   8.095  1.2054 -0.3498 -0.7894
15371SOL     OW50959   3.851   8.382   9.020  0.1556 -0.1091  0.5784
15371SOL    HW150960   3.849   8.477   9.007 -0.8713 -0.0664  0.9936
15371SOL    HW250961   3.892   8.371   9.106 -0.1980 -0.0177  0.7591
15372SOL     OW50962   3.197   5.062   8.543 -0.5928 -0.0895  0.1076
15372SOL    HW150963   3.169   5.100   8.459  1.3200  3.0935  0.8684
15372SOL    HW250964   3.116   5.027   8.581 -1.9751  0.9998 -1.7387
15373SOL     OW50965   4.179   6.722   9.320  0.2422  0.0458  0.1066
15373SOL    HW150966   4.093   6.680   9.321 -1.0761  2.6400  1.7685
15373SOL    HW250967   4.239   6.654   9.288 -2.8142 -0.9498 -3.8347
15374SOL     OW50968   5.469   8.024   8.219 -0.2200  0.3116  0.3290
15374SOL    HW150969   5.435   7.953   8.164  1.5204 -0.2184 -0.0972
15374SOL    HW250970   5.406   8.031   8.291 -1.4460 -0.3464 -0.6487
15375SOL     OW50971   3.741   8.620   8.629  0.7680  0.6985  0.1358
15375SOL    HW150972   3.794   8.547   8.596  2.2207  1.5084  0.6458
15375SOL    HW250973   3.756   8.620   8.723  0.5369  1.4722  0.1711
15376SOL     OW50974   5.745   7.274   9.077 -0.0619  0.9114  0.7131
15376SOL    HW150975   5.831   7.231   9.071 -0.0008  0.2895  4.7239
15376SOL    HW250976   5.760   7.363   9.046  1.8887  0.6360  0.8261
15377SOL     OW50977   4.394   4.949   8.953  0.3142 -0.7797 -0.1104
15377SOL    HW150978   4.426   5.035   8.928  0.3861 -0.2525  1.6914
15377SOL    HW250979   4.313   4.938   8.904 -0.2071  0.7529  0.3656
15378SOL     OW50980   2.626   5.798   8.088 -0.0765  0.2606 -0.1059
15378SOL    HW150981   2.658   5.853   8.016  0.1096  1.2105  0.6946
15378SOL    HW250982   2.705   5.776   8.138 -0.0211 -1.4883 -0.9156
15379SOL     OW50983   3.689   4.237   9.075 -0.4156  0.1493  0.2995
15379SOL    HW150984   3.745   4.191   9.013 -1.1893  0.1785 -0.4201
15379SOL    HW250985   3.635   4.169   9.115 -1.3682  0.3830 -0.5656
15380SOL     OW50986   7.432   7.540   9.392 -0.5575  0.0469  0.6856
15380SOL    HW150987   7.418   7.572   9.303 -2.1992  0.2054  0.9926
15380SOL    HW250988   7.350   7.499   9.416 -0.1338  0.0423  2.1510
15381SOL     OW50989   3.125   5.112   9.318 -0.3726 -0.2582  0.6242
15381SOL    HW150990   3.143   5.023   9.289 -2.5773 -1.0090  1.4611
15381SOL    HW250991   3.068   5.149   9.251 -0.1024  0.2496  0.6725
15382SOL     OW50992   4.305   6.910   8.308  0.1658 -0.1814  0.7088
15382SOL    HW150993   4.283   6.828   8.352  0.4195  0.2927  1.7398
15382SOL    HW250994   4.389   6.893   8.266 -1.7318 -1.7827 -2.6659
15383SOL     OW50995   4.840   7.008   9.179  0.6715  0.3099 -0.6599
15383SOL    HW150996   4.762   7.042   9.134  0.4805 -0.8469 -1.2143
15383SOL    HW250997   4.809   6.932   9.227  1.3910  0.0482 -0.6093
15384SOL     OW50998   4.252   8.607   7.941  0.0162 -0.0052  0.3133
15384SOL    HW150999   4.286   8.603   7.851  0.6779 -0.2843  0.5745
15384SOL    HW251000   4.198   8.528   7.950  2.1097 -1.3923  1.0289
15385SOL     OW51001   4.350   6.916   9.710  0.2999  0.3333 -0.1565
15385SOL    HW151002   4.417   6.981   9.731  1.1240 -0.3995 -0.4723
15385SOL    HW251003   4.363   6.898   9.617  0.2344 -0.4514 -0.0167
15386SOL     OW51004   5.374   7.779   7.174  0.3270  0.1569 -0.1883
15386SOL    HW151005   5.323   7.824   7.241  0.2116  0.0034 -0.1730
15386SOL    HW251006   5.465   7.786   7.204  0.0614 -2.0795  1.2595
15387SOL     OW51007   5.958   8.445   5.977 -0.1192 -0.0983 -0.1576
15387SOL    HW151008   6.028   8.489   5.929  0.3363 -0.3915  0.2272
15387SOL    HW251009   5.909   8.398   5.910 -0.4431  0.7824 -0.5303
15388SOL     OW51010   2.427   6.874   7.036  0.3584 -0.1882  0.1681
15388SOL    HW151011   2.504   6.828   7.068  0.8382  0.3795 -0.1601
15388SOL    HW251012   2.366   6.804   7.010  1.3201 -0.6435 -0.8877
15389SOL     OW51013   4.851   6.689   8.182 -0.2834  0.2601  0.1143
15389SOL    HW151014   4.832   6.722   8.094 -2.6237 -2.6044 -0.5378
15389SOL    HW251015   4.945   6.671   8.181 -0.5396 -1.2934 -2.4220
15390SOL     OW51016   2.618   4.594   7.662 -0.1420  0.2649  0.3569
15390SOL    HW151017   2.616   4.667   7.724  1.4079 -0.3447  1.1489
15390SOL    HW251018   2.711   4.574   7.652 -0.3571  0.3097 -2.1347
15391SOL     OW51019   4.251   7.132   7.926 -0.6274 -0.4192  0.9044
15391SOL    HW151020   4.205   7.214   7.911  1.6812  0.3932 -2.3091
15391SOL    HW251021   4.245   7.118   8.021 -1.9847  2.8680  1.3746
15392SOL     OW51022   4.332   5.264   9.147  0.4300 -0.0106 -0.3180
15392SOL    HW151023   4.419   5.242   9.181  0.3504 -1.0690 -0.7941
15392SOL    HW251024   4.325   5.216   9.065 -0.0631  1.1780 -0.9859
15393SOL     OW51025   5.114   5.782   9.212  0.3768  0.2618 -0.1612
15393SOL    HW151026   5.090   5.815   9.125  0.9724 -0.5062 -0.6268
15393SOL    HW251027   5.203   5.814   9.226  0.2516  0.4498  0.2031
15394SOL     OW51028   4.019   5.547   9.098  0.1171  0.1541  0.0031
15394SOL    HW151029   3.942   5.534   9.154 -1.3306 -3.1221 -2.5306
15394SOL    HW251030   4.090   5.565   9.159 -2.0129  0.0207  2.6479
15395SOL     OW51031   3.357   3.607   7.772 -0.4411 -0.5007 -0.6636
15395SOL    HW151032   3.425   3.611   7.705 -0.2644 -1.2991 -0.5397
15395SOL    HW251033   3.378   3.529   7.823 -0.0184  0.6222  0.9268
15396SOL     OW51034   4.923   6.938   8.579 -0.1146  0.2696 -0.1024
15396SOL    HW151035   4.907   6.966   8.489 -1.5761 -0.4881 -0.0876
15396SOL    HW251036   4.903   6.845   8.580  1.5327 -0.0943  0.6199
15397SOL     OW51037   6.235   5.753   9.581 -0.0599  0.2341  0.0564
15397SOL    HW151038   6.197   5.666   9.564 -1.0578  0.5253  0.7345
15397SOL    HW251039   6.302   5.763   9.513  2.1854 -2.3074  1.7655
15398SOL     OW51040   4.947   6.664   0.196  0.1307 -0.5815 -0.2872
15398SOL    HW151041   4.972   6.691   0.285  0.5245 -0.6460 -0.3747
15398SOL    HW251042   4.869   6.715   0.176  0.5706  0.1166 -0.2508
15399SOL     OW51043   6.910   5.936   7.643 -0.4771  0.2008  0.6598
15399SOL    HW151044   6.975   5.884   7.596 -0.1942  1.1933 -0.0757
15399SOL    HW251045   6.954   6.019   7.660 -2.3857  1.8943 -2.2048
15400SOL     OW51046   3.083   5.145   7.353  0.2091 -0.2846  0.2078
15400SOL    HW151047   3.065   5.054   7.328 -0.1285 -0.2858  0.4552
15400SOL    HW251048   3.118   5.138   7.442 -3.2939  0.1111  1.6959
15401SOL     OW51049   4.700   8.068   7.362 -0.5286  0.5053  0.0166
15401SOL    HW151050   4.694   7.983   7.318 -2.4505 -0.1213  1.3865
15401SOL    HW251051   4.703   8.131   7.290  1.8843 -0.7468 -1.0322
15402SOL     OW51052   5.859   6.094   9.142 -0.7797 -0.0311  0.2440
15402SOL    HW151053   5.807   6.060   9.214 -0.1819  1.9213  1.6295
15402SOL    HW251054   5.929   6.144   9.184 -1.5264  2.7565 -1.7019
15403SOL     OW51055   4.668   7.487   8.258  0.2457 -0.1574 -0.5077
15403SOL    HW151056   4.602   7.428   8.221  0.5418  0.4767 -2.1000
15403SOL    HW251057   4.695   7.541   8.184  1.2558  0.7918  0.5429
15404SOL     OW51058   3.652   7.759   9.816  0.4322  0.0751  0.2666
15404SOL    HW151059   3.695   7.681   9.781  1.5324  0.5468  0.5363
15404SOL    HW251060   3.675   7.759   9.909 -0.5889  0.0615  0.5257
15405SOL     OW51061   3.554   8.180   9.181 -0.1932  0.4326  1.0229
15405SOL    HW151062   3.636   8.149   9.141 -0.6449 -0.5522  0.8519
15405SOL    HW251063   3.486   8.124   9.144 -1.1426  2.1694  0.0634
15406SOL     OW51064   6.810   6.589   9.372  0.1960 -0.1688  0.5032
15406SOL    HW151065   6.723   6.580   9.334  0.4433  0.7822 -0.3030
15406SOL    HW251066   6.796   6.632   9.456 -0.1135 -0.1460  0.4391
15407SOL     OW51067   3.425   6.723   9.539  0.5256  0.0334 -0.1139
15407SOL    HW151068   3.430   6.797   9.478  1.3798  0.0459 -0.0469
15407SOL    HW251069   3.379   6.758   9.615  1.2662  0.6152  0.0735
15408SOL     OW51070   4.252   7.139   8.196 -0.2625  0.0555  0.2716
15408SOL    HW151071   4.195   7.190   8.253 -0.0818  1.5147 -0.8505
15408SOL    HW251072   4.257   7.053   8.239 -0.2936  1.0510  2.3484
15409SOL     OW51073   3.012   6.048   9.377 -0.2456 -0.4854  0.1039
15409SOL    HW151074   3.070   6.078   9.447 -0.9478  0.9494  0.0872
15409SOL    HW251075   2.933   6.019   9.421 -1.0238  1.2280 -0.1426
15410SOL     OW51076   5.859   6.440   9.164 -0.0955 -0.0410 -0.0152
15410SOL    HW151077   5.923   6.410   9.100  0.6703  0.2363  0.6184
15410SOL    HW251078   5.843   6.363   9.219  2.2893  0.8125  1.9572
15411SOL     OW51079   4.327   7.829   8.232  0.2428 -0.0060 -0.1747
15411SOL    HW151080   4.374   7.902   8.272  1.0383 -0.0907 -0.9661
15411SOL    HW251081   4.243   7.826   8.279  0.5991  0.8027  0.5092
15412SOL     OW51082   5.318   7.087   0.271  0.0401 -0.3343  0.1200
15412SOL    HW151083   5.379   7.044   0.330 -0.2884 -0.6734  0.2161
15412SOL    HW251084   5.370   7.154   0.226  0.3341 -0.2033  0.6524
15413SOL     OW51085   3.644   8.327   7.288  0.5220 -0.4896  0.4560
15413SOL    HW151086   3.737   8.309   7.278  0.0027 -2.4626 -1.1190
15413SOL    HW251087   3.620   8.373   7.207  0.1046 -0.0235  0.8382
15414SOL     OW51088   5.014   8.536   8.921  0.9640  0.2006 -0.5457
15414SOL    HW151089   5.094   8.537   8.974  1.2285 -0.3069 -0.9257
15414SOL    HW251090   4.980   8.447   8.933 -0.1683  0.7707  0.5446
15415SOL     OW51091   3.108   6.598   8.181  0.5278  0.6035  0.2469
15415SOL    HW151092   3.101   6.655   8.259 -0.7554 -0.7712  1.1643
15415SOL    HW251093   3.126   6.511   8.217 -0.5999 -0.1371 -0.9601
15416SOL     OW51094   5.227   5.239   9.108  0.2459 -0.2312  0.3145
15416SOL    HW151095   5.167   5.287   9.165 -0.6399  0.7628 -1.3954
15416SOL    HW251096   5.303   5.296   9.099 -0.6009  0.6822 -1.3264
15417SOL     OW51097   5.269   4.979   0.331 -0.0223 -0.1698  0.2021
15417SOL    HW151098   5.268   4.961   0.237 -1.3712  0.9591 -0.0208
15417SOL    HW251099   5.245   5.071   0.338  2.5856  0.4608  1.5230
15418SOL     OW51100   3.946   6.217   0.235  0.4283  0.1584 -0.6107
15418SOL    HW151101   3.987   6.138   0.272 -0.8511 -0.8609 -1.3240
15418SOL    HW251102   3.898   6.256   0.307  0.8279  0.1283 -0.3264
15419SOL     OW51103   3.861   6.547   9.568  1.0423  1.0622  0.6579
15419SOL    HW151104   3.880   6.483   9.636  0.2194  0.5830  0.4426
15419SOL    HW251105   3.844   6.629   9.616 -3.1258 -0.0811  1.3265
15420SOL     OW51106   4.833   5.511   9.594 -0.4012 -0.3732 -0.3763
15420SOL    HW151107   4.851   5.476   9.682  0.0045 -1.0508 -0.7214
15420SOL    HW251108   4.783   5.591   9.610 -0.5199 -0.6060  0.4680
15421SOL     OW51109   4.932   7.433   8.577 -0.1650 -0.2638  0.2797
15421SOL    HW151110   4.858   7.384   8.541 -0.0690 -0.0311 -0.2408
15421SOL    HW251111   4.893   7.512   8.615 -0.2872 -0.5998  0.8536
15422SOL     OW51112   7.910   5.252   8.187 -0.1279  0.5646  0.1122
15422SOL    HW151113   7.817   5.258   8.165 -0.1283  1.2502  0.2766
15422SOL    HW251114   7.926   5.328   8.243  0.6030  0.6441 -0.1990
15423SOL     OW51115   2.781   4.865   9.483 -0.3404  0.1288  0.3682
15423SOL    HW151116   2.776   4.950   9.526 -1.4198  0.6982 -0.8524
15423SOL    HW251117   2.777   4.885   9.389 -2.0141 -1.3473  0.1022
15424SOL     OW51118   4.537   7.251   8.126  0.3068  0.3802 -0.1947
15424SOL    HW151119   4.445   7.254   8.155  0.0382  1.2008 -1.1010
15424SOL    HW251120   4.551   7.160   8.099 -0.2889  0.2829 -0.1879
15425SOL     OW51121   4.894   5.019   0.209 -0.0464  0.1885 -0.2445
15425SOL    HW151122   4.946   5.083   0.259 -0.9078  0.3898  0.4032
15425SOL    HW251123   4.856   4.962   0.275  0.8666 -1.1182 -0.8425
15426SOL     OW51124   5.122   7.286   9.092 -0.0281  0.0416 -0.1525
15426SOL    HW151125   5.175   7.366   9.103 -2.1018  1.7177 -1.7969
15426SOL    HW251126   5.054   7.292   9.159 -0.6002  0.0130 -0.7260
15427SOL     OW51127   3.661   5.639   8.422  0.1725  0.2714  0.3664
15427SOL    HW151128   3.633   5.563   8.370  1.3223  0.0462  0.0641
15427SOL    HW251129   3.689   5.602   8.505  1.0833  0.3284  0.0832
15428SOL     OW51130   4.028   8.485   7.347 -0.2752  0.2583  0.7443
15428SOL    HW151131   4.058   8.418   7.408  2.2320  0.6306 -0.0406
15428SOL    HW251132   3.962   8.441   7.293  1.5470 -1.7054  0.0437
15429SOL     OW51133   2.765   7.759   8.736 -0.6424  0.4454 -0.0726
15429SOL    HW151134   2.781   7.700   8.810 -0.5889  0.6657  0.0920
15429SOL    HW251135   2.792   7.709   8.659  0.5947  0.7070  0.1800
15430SOL     OW51136   7.235   8.290   8.490  0.1366  0.0975  0.4923
15430SOL    HW151137   7.252   8.201   8.459  1.1039  0.3351  0.3427
15430SOL    HW251138   7.304   8.308   8.554 -0.5828  0.4134  1.1920
15431SOL     OW51139   3.582   5.999   9.531 -0.4162 -0.4698  0.4836
15431SOL    HW151140   3.524   5.992   9.607  0.2062 -1.7483  0.8540
15431SOL    HW251141   3.597   6.093   9.521 -2.4355 -0.1308  0.4528
15432SOL     OW51142   3.339   5.186   9.760  0.5644 -0.2791 -0.5029
15432SOL    HW151143   3.261   5.238   9.782  0.5941 -0.4271 -0.0395
15432SOL    HW251144   3.306   5.096   9.752  0.6366 -0.2974 -0.5784
15433SOL     OW51145   3.683   5.901   8.392  0.1240 -0.2570 -0.3308
15433SOL    HW151146   3.671   5.806   8.387  0.0701 -0.3651  1.5217
15433SOL    HW251147   3.742   5.914   8.466  1.3029  1.0838 -1.4757
15434SOL     OW51148   4.872   4.544   0.185  0.0920  0.0873 -0.1500
15434SOL    HW151149   4.889   4.530   0.278 -0.2499  0.7933  0.0282
15434SOL    HW251150   4.958   4.549   0.144  0.2650  0.8123  0.2960
15435SOL     OW51151   4.472   5.767   9.460 -0.2937  0.1293  0.3546
15435SOL    HW151152   4.406   5.828   9.426 -0.4713  0.2515  0.9167
15435SOL    HW251153   4.422   5.703   9.510 -0.0284 -0.0392  0.4061
15436SOL     OW51154   5.432   8.259   8.048 -0.2258 -0.3001  0.2850
15436SOL    HW151155   5.484   8.289   7.973 -0.2458 -0.5068  0.1880
15436SOL    HW251156   5.468   8.173   8.069 -1.0414 -0.7901 -0.2788
15437SOL     OW51157   5.537   6.518   0.136  0.1652 -0.4346 -0.3486
15437SOL    HW151158   5.608   6.479   0.086  0.8197  2.7359 -2.0382
15437SOL    HW251159   5.580   6.574   0.201 -0.7319  0.2384 -0.3120
15438SOL     OW51160   6.972   6.461   6.553 -0.0079 -0.1547 -0.2224
15438SOL    HW151161   6.899   6.501   6.505  0.1225  1.2135  0.6769
15438SOL    HW251162   7.049   6.480   6.500 -0.0509  0.1001 -0.1920
15439SOL     OW51163   5.587   6.402   9.519  0.0341  0.3132  0.8231
15439SOL    HW151164   5.512   6.354   9.483  1.4104 -1.9382  0.8544
15439SOL    HW251165   5.577   6.491   9.486  0.1363 -1.1486 -3.4571
15440SOL     OW51166   4.348   7.679   7.747  0.5443  0.6911  0.1591
15440SOL    HW151167   4.355   7.629   7.829  0.5608 -0.5434 -0.5811
15440SOL    HW251168   4.363   7.770   7.773 -1.6044  0.5982  1.8779
15441SOL     OW51169   5.312   7.715   8.459 -0.4565  0.1633  0.1374
15441SOL    HW151170   5.357   7.651   8.514 -0.3948  0.8609  0.9211
15441SOL    HW251171   5.272   7.776   8.522  0.4473  1.5355 -0.6129
15442SOL     OW51172   4.026   5.304   9.355  0.2818 -0.4140 -0.3247
15442SOL    HW151173   3.974   5.367   9.406  0.3491 -0.1307 -0.6051
15442SOL    HW251174   4.097   5.356   9.318  0.2261 -0.6142 -0.7186
15443SOL     OW51175   5.234   7.783   7.697  0.1638  0.1055  0.1583
15443SOL    HW151176   5.140   7.800   7.701 -0.1357 -1.1581 -1.3084
15443SOL    HW251177   5.260   7.812   7.610  1.0662  0.0441  0.4016
15444SOL     OW51178   5.728   7.205   0.190  0.5182 -0.0216 -0.2189
15444SOL    HW151179   5.771   7.122   0.210  0.6335  0.1498  0.2566
15444SOL    HW251180   5.781   7.271   0.235 -0.3572  0.1710  0.5399
15445SOL     OW51181   6.528   7.820   7.943  0.2947 -0.0847 -0.1094
15445SOL    HW151182   6.493   7.739   7.978  1.1220 -0.5172 -0.2758
15445SOL    HW251183   6.594   7.847   8.008  0.1504  0.3575 -0.1437
15446SOL     OW51184   4.789   7.262   8.430  0.4210 -0.2002  0.0524
15446SOL    HW151185   4.811   7.176   8.392 -0.1872  0.0797 -0.9645
15446SOL    HW251186   4.740   7.306   8.361  1.3015  1.2315  0.3201
15447SOL     OW51187   3.417   7.656   8.345 -0.0528  0.1617  0.3039
15447SOL    HW151188   3.481   7.725   8.366 -0.6886  0.6996  0.4940
15447SOL    HW251189   3.450   7.616   8.265  0.5740  0.3818  0.4509
15448SOL     OW51190   4.945   5.716   9.406 -0.1017  0.3410  0.0338
15448SOL    HW151191   4.986   5.718   9.320  0.6957  1.1527  0.4169
15448SOL    HW251192   5.016   5.694   9.466 -1.1413 -2.6875  0.2431
15449SOL     OW51193   4.763   5.751   0.489  0.3418  0.9151 -0.1509
15449SOL    HW151194   4.685   5.741   0.544 -0.4814  1.4767 -1.2062
15449SOL    HW251195   4.831   5.702   0.535 -0.7395  0.0677  0.5616
15450SOL     OW51196   4.601   6.239   8.987 -0.3066  0.1478  0.2709
15450SOL    HW151197   4.646   6.273   9.065  0.7128  0.7163 -0.5600
15450SOL    HW251198   4.642   6.154   8.970 -0.6391 -0.0492  0.4397
15451SOL     OW51199   3.113   6.798   8.368 -0.1484 -0.8194 -0.3494
15451SOL    HW151200   3.146   6.805   8.458 -1.7037  0.8749  0.1264
15451SOL    HW251201   3.138   6.881   8.328 -1.7237 -0.5164 -0.7047
15452SOL     OW51202   5.609   5.961   9.205  0.1118 -0.1560 -0.3499
15452SOL    HW151203   5.547   6.028   9.176 -1.4804 -1.7458 -0.6614
15452SOL    HW251204   5.556   5.900   9.256  1.7018 -0.7656  0.6025
15453SOL     OW51205   4.973   6.625   0.777  0.5969  0.3500  0.0476
15453SOL    HW151206   4.919   6.635   0.856  0.0718 -1.1381 -0.1141
15453SOL    HW251207   5.023   6.707   0.772  0.5230  0.5310  1.8421
15454SOL     OW51208   2.349   6.303   8.720 -0.7693 -0.2611  0.0624
15454SOL    HW151209   2.266   6.327   8.677 -0.3602 -1.5401 -1.4840
15454SOL    HW251210   2.395   6.250   8.655  2.7529  3.0820 -0.3886
15455SOL     OW51211   5.321   6.274   8.556  0.9446  0.2978  0.3444
15455SOL    HW151212   5.381   6.239   8.491 -0.7450  1.5309 -1.9822
15455SOL    HW251213   5.249   6.211   8.558 -0.7906  2.0991 -1.8354
15456SOL     OW51214   6.273   8.700   7.676 -0.0269 -0.5208 -0.4545
15456SOL    HW151215   6.253   8.693   7.582  0.4722 -1.0550 -0.5201
15456SOL    HW251216   6.203   8.755   7.711  2.0628  3.2001 -1.8756
15457SOL     OW51217   4.851   7.508   8.993 -0.1787  0.4742 -0.4658
15457SOL    HW151218   4.928   7.558   8.964 -0.6234  1.8097  0.6525
15457SOL    HW251219   4.798   7.499   8.914  1.7853 -1.7543 -1.6189
15458SOL     OW51220   5.479   7.063   9.071 -0.0272  0.0674  0.1507
15458SOL    HW151221   5.559   7.084   9.118  1.2685  0.6445 -2.2284
15458SOL    HW251222   5.431   7.146   9.066  0.7740  0.4648 -1.2360
15459SOL     OW51223   4.231   7.246   9.007 -0.0552 -0.3767 -0.4766
15459SOL    HW151224   4.199   7.188   8.938  0.2894 -2.0679  0.7572
15459SOL    HW251225   4.314   7.208   9.034  0.0875  0.5897  0.4899
15460SOL     OW51226   3.527   5.397   8.193 -0.2838 -0.1955  0.1591
15460SOL    HW151227   3.572   5.456   8.133 -0.9001  1.1180  0.9806
15460SOL    HW251228   3.597   5.358   8.245  0.2970 -1.6317 -1.6234
15461SOL     OW51229   5.073   7.294   8.795 -0.1616 -0.6108 -0.1824
15461SOL    HW151230   5.049   7.345   8.872  0.5302  0.3899 -0.6176
15461SOL    HW251231   5.016   7.328   8.726  0.3942 -0.3421 -0.5077
15462SOL     OW51232   4.048   5.186   0.032  0.1460  0.0308  0.0931
15462SOL    HW151233   3.965   5.152  -0.001 -0.7560  1.9005  0.3404
15462SOL    HW251234   4.112   5.118   0.012 -1.8771 -2.6614  2.2434
15463SOL     OW51235   4.257   6.263   9.788 -0.1989 -0.4747 -0.3478
15463SOL    HW151236   4.330   6.321   9.811  0.3013 -1.2110 -0.0415
15463SOL    HW251237   4.191   6.279   9.855 -1.4165  2.0956 -2.0867
15464SOL     OW51238   4.056   7.770   8.266  0.2004  0.0378 -0.1610
15464SOL    HW151239   4.055   7.862   8.289 -0.0132 -0.4328  1.8110
15464SOL    HW251240   4.085   7.725   8.346 -0.4266 -1.6502 -0.8441
15465SOL     OW51241   3.561   6.852   7.772  0.1575  0.0069 -0.5867
15465SOL    HW151242   3.581   6.946   7.771 -1.0392  0.2880  0.2682
15465SOL    HW251243   3.505   6.838   7.695  0.4460 -0.0226 -0.7881
15466SOL     OW51244   4.028   7.203   8.367 -0.2262  0.2065 -0.0596
15466SOL    HW151245   3.977   7.196   8.286 -0.6182  0.1834  0.1886
15466SOL    HW251246   4.011   7.292   8.398 -0.1767  0.1742  0.0621
15467SOL     OW51247   3.791   6.842   9.343  0.2658 -0.2193 -0.8744
15467SOL    HW151248   3.879   6.852   9.379 -0.0323 -0.1683 -0.1509
15467SOL    HW251249   3.744   6.920   9.372  0.0700 -0.0814 -1.5428
15468SOL     OW51250   4.208   8.336   6.208 -0.3144  0.4024  0.4819
15468SOL    HW151251   4.294   8.372   6.229 -0.4956  1.8957 -1.1640
15468SOL    HW251252   4.147   8.408   6.224 -1.1069 -0.2623  0.4785
15469SOL     OW51253   5.042   5.908   0.105 -0.1457 -0.1430 -0.2255
15469SOL    HW151254   5.127   5.869   0.126 -0.1838 -0.2353 -0.2433
15469SOL    HW251255   5.030   5.977   0.171 -1.0993 -1.6463  1.2252
15470SOL     OW51256   2.415   7.140   8.326  0.1226  0.4087 -0.0727
15470SOL    HW151257   2.471   7.157   8.401  0.9905 -1.2823 -0.2925
15470SOL    HW251258   2.369   7.059   8.348 -0.4425  0.4933 -0.8942
15471SOL     OW51259   7.882   8.029   7.623  0.1849 -0.4342  0.0302
15471SOL    HW151260   7.973   8.009   7.601 -0.5962 -2.6252 -1.4057
15471SOL    HW251261   7.854   7.955   7.677 -0.8010  0.1161  0.2758
15472SOL     OW51262   4.389   7.954   7.847  0.3572  0.4033 -0.2471
15472SOL    HW151263   4.443   7.954   7.926  0.3017 -1.1860 -0.1930
15472SOL    HW251264   4.328   8.027   7.860  0.3772  0.1904  1.1592
15473SOL     OW51265   4.357   6.636   9.728  0.2103  0.3970  0.0925
15473SOL    HW151266   4.277   6.616   9.776 -0.8865  2.8446 -0.6321
15473SOL    HW251267   4.355   6.731   9.716  2.9783  0.4580 -0.3866
15474SOL     OW51268   4.599   7.902   8.013  0.3994  0.0892 -0.4666
15474SOL    HW151269   4.582   7.959   8.088 -1.1848  1.0579 -1.5200
15474SOL    HW251270   4.693   7.907   7.999  0.6242  0.3657  1.0860
15475SOL     OW51271   3.701   6.105   0.115 -0.0264  0.1306  0.5668
15475SOL    HW151272   3.660   6.174   0.062 -1.0253 -0.5157  0.4806
15475SOL    HW251273   3.791   6.134   0.127 -0.1187  0.8760 -0.4782
15476SOL     OW51274   6.486   6.799   9.026  0.1705  0.0409  0.6749
15476SOL    HW151275   6.467   6.727   8.967  2.0527 -0.3883  0.5438
15476SOL    HW251276   6.563   6.842   8.988 -0.1480  1.3377  1.4267
15477SOL     OW51277   5.320   8.483   7.804 -0.0013  0.0424  0.4859
15477SOL    HW151278   5.354   8.395   7.824  1.4150  0.7856  1.4118
15477SOL    HW251279   5.309   8.482   7.709  1.8983 -0.4938  0.2472
15478SOL     OW51280   5.182   5.005   9.231 -0.1447 -0.2884  0.0089
15478SOL    HW151281   5.217   5.005   9.320 -0.9697 -1.5179  0.3638
15478SOL    HW251282   5.213   5.086   9.192 -1.9669  1.6019  2.3065
15479SOL     OW51283   2.679   6.961   7.599  0.2527  0.8929  0.5452
15479SOL    HW151284   2.763   6.961   7.645  1.0693 -0.3195 -0.8873
15479SOL    HW251285   2.702   6.950   7.507 -1.5230 -0.5577  0.2358
15480SOL     OW51286   5.532   5.796   8.678  0.0101  0.0188  0.2029
15480SOL    HW151287   5.509   5.790   8.585 -0.2303 -0.4248  0.2909
15480SOL    HW251288   5.501   5.882   8.704  0.4577  0.3147 -0.2351
15481SOL     OW51289   5.085   5.504   9.216  0.3858 -0.5183  0.6494
15481SOL    HW151290   5.109   5.595   9.236  1.7453 -0.4489 -1.1926
15481SOL    HW251291   5.012   5.512   9.155  2.2330 -0.5845 -1.6442
15482SOL     OW51292   2.591   7.045   6.817 -0.1051  0.6158 -0.0146
15482SOL    HW151293   2.645   6.977   6.856 -0.4543  0.3833  0.0710
15482SOL    HW251294   2.509   7.001   6.795 -0.1537  0.8938 -0.4105
15483SOL     OW51295   3.883   7.457   8.469 -0.2841  0.2757 -0.5792
15483SOL    HW151296   3.820   7.447   8.398 -0.1628  0.8982 -0.7775
15483SOL    HW251297   3.830   7.484   8.544 -0.5216 -1.1423 -0.2152
15484SOL     OW51298   2.768   7.414   7.816 -0.1422  0.4839  0.4991
15484SOL    HW151299   2.680   7.448   7.832  0.4769  1.9925  0.7621
15484SOL    HW251300   2.826   7.477   7.858  1.2347  1.2620 -2.4771
15485SOL     OW51301   6.196   6.476   9.771 -0.3148 -0.1415  0.1455
15485SOL    HW151302   6.171   6.410   9.835  1.2837  0.0089  0.9549
15485SOL    HW251303   6.164   6.442   9.687 -1.9689 -0.5775  0.9470
15486SOL     OW51304   4.664   4.945   9.162 -0.6495  0.2535  0.5476
15486SOL    HW151305   4.667   4.924   9.068  1.9450  2.4704  0.0747
15486SOL    HW251306   4.588   4.897   9.195 -1.4361 -0.7966 -2.6317
15487SOL     OW51307   3.805   6.190   9.553  0.1588  0.4712  0.0071
15487SOL    HW151308   3.754   6.183   9.472  0.8602  0.1947 -0.4136
15487SOL    HW251309   3.896   6.198   9.524  0.6747 -1.9900  0.7757
15488SOL     OW51310   5.781   6.469   0.006 -0.0488 -0.1742 -0.1297
15488SOL    HW151311   5.789   6.472  -0.090  1.2653  0.3653 -0.0104
15488SOL    HW251312   5.814   6.553   0.035 -2.3452  0.4841  0.7034
15489SOL     OW51313   4.159   4.703   8.864 -0.4672 -0.1182  0.0374
15489SOL    HW151314   4.078   4.706   8.916 -0.6665  1.4005 -0.3279
15489SOL    HW251315   4.188   4.794   8.861 -0.0821 -0.2968 -1.9333
15490SOL     OW51316   7.123   7.310   7.354 -0.6846  0.0981 -0.1103
15490SOL    HW151317   7.143   7.315   7.447  0.3303  1.4665 -0.3837
15490SOL    HW251318   7.207   7.291   7.312 -1.6267 -3.3865 -0.5318
15491SOL     OW51319   3.804   6.982   8.996 -0.0255 -0.1519  0.6026
15491SOL    HW151320   3.721   6.952   8.958  0.8150 -0.8027 -0.7909
15491SOL    HW251321   3.837   6.907   9.045  1.9218 -1.5119 -2.6190
15492SOL     OW51322   4.133   6.584   9.058  0.1475 -0.2776 -0.5230
15492SOL    HW151323   4.173   6.663   9.021  1.1848 -1.8321 -2.8023
15492SOL    HW251324   4.074   6.553   8.990 -0.2784 -1.4659  0.3781
15493SOL     OW51325   4.703   6.099   9.324  0.2692  0.2164  0.0251
15493SOL    HW151326   4.610   6.101   9.345  0.1228  2.8780 -0.7399
15493SOL    HW251327   4.739   6.176   9.367  2.0210 -0.4392 -0.2231
15494SOL     OW51328   4.382   7.677   8.841  0.0604  0.1894 -0.0706
15494SOL    HW151329   4.415   7.712   8.758  0.7569  1.5071  0.7479
15494SOL    HW251330   4.461   7.650   8.889 -0.0415  2.8686  1.6769
15495SOL     OW51331   3.711   8.029   9.378 -0.6112  0.3212 -0.4842
15495SOL    HW151332   3.660   7.948   9.365 -1.1729  0.4889  0.6186
15495SOL    HW251333   3.715   8.040   9.473 -0.3891  1.4988 -0.6214
15496SOL     OW51334   4.495   6.365   8.484  0.0383 -0.0685  0.7322
15496SOL    HW151335   4.564   6.320   8.532 -0.5844 -1.4661  0.3462
15496SOL    HW251336   4.490   6.452   8.524  3.3726  0.7685 -0.5246
15497SOL     OW51337   5.538   6.509   8.806 -0.5160  0.0093 -0.1290
15497SOL    HW151338   5.478   6.581   8.786  0.8865  1.5530  1.0878
15497SOL    HW251339   5.615   6.527   8.751  0.5993  0.5089  1.5629
15498SOL     OW51340   4.120   9.151   8.861 -0.3028 -0.2371  0.4227
15498SOL    HW151341   4.115   9.223   8.924 -2.7424 -0.1702  0.2210
15498SOL    HW251342   4.112   9.072   8.914 -1.1358 -0.2237  0.3233
15499SOL     OW51343   5.898   8.497   0.225  0.1623  0.7340 -0.0221
15499SOL    HW151344   5.903   8.489   0.129  1.6274  0.9509  0.0153
15499SOL    HW251345   5.820   8.448   0.249 -0.3412  0.8528 -1.3555
15500SOL     OW51346   6.041   7.630   9.179 -0.2892  0.2080  0.0275
15500SOL    HW151347   5.971   7.653   9.241 -2.1644  2.6938 -2.9013
15500SOL    HW251348   6.083   7.713   9.158  1.3891 -0.8311 -0.8237
15501SOL     OW51349   3.597   6.511   9.480  0.0191  0.3909 -0.5271
15501SOL    HW151350   3.687   6.514   9.512  0.5806 -1.5489 -1.8246
15501SOL    HW251351   3.550   6.576   9.532  2.2532  1.7074 -0.1235
15502SOL     OW51352   6.206   9.106   7.556 -0.2062 -0.0772  0.2630
15502SOL    HW151353   6.202   9.201   7.560  0.5416 -0.1000  1.6616
15502SOL    HW251354   6.297   9.085   7.574 -0.0803 -1.0118 -1.3080
15503SOL     OW51355   4.240   7.094   8.549 -0.6692 -0.3242  0.7966
15503SOL    HW151356   4.248   7.000   8.533  1.4933 -0.1639  0.7425
15503SOL    HW251357   4.169   7.122   8.492 -1.6355 -2.0090  1.1599
15504SOL     OW51358   3.717   8.233   9.884  0.0410  0.8741  0.2854
15504SOL    HW151359   3.691   8.255   9.794 -1.0040 -0.6644  0.1998
15504SOL    HW251360   3.714   8.317   9.930  2.4268  2.0248 -1.5211
15505SOL     OW51361   4.369   6.866   9.445 -0.7331  0.0855  0.3510
15505SOL    HW151362   4.408   6.933   9.389  0.2955 -1.4809 -0.8749
15505SOL    HW251363   4.286   6.844   9.401 -0.1852 -0.7536 -0.2825
15506SOL     OW51364   4.669   7.587   8.527  0.2596  0.1927  0.0956
15506SOL    HW151365   4.593   7.645   8.529 -0.6476 -0.8866 -1.6080
15506SOL    HW251366   4.683   7.568   8.434  2.1117 -0.2839  0.4465
15507SOL     OW51367   3.837   7.980   8.804 -0.2099  0.8957  0.7675
15507SOL    HW151368   3.924   7.972   8.765  0.1273 -1.9239  1.9741
15507SOL    HW251369   3.795   8.049   8.754  1.9657  0.8233 -1.2588
15508SOL     OW51370   6.024   9.036   9.328  0.7291  0.2155  0.4064
15508SOL    HW151371   6.054   8.951   9.295 -3.0057 -0.8846 -0.3436
15508SOL    HW251372   5.960   9.015   9.396 -1.7073  2.3710 -1.1188
15509SOL     OW51373   7.492   7.879   7.562  0.1561 -0.3821  0.5870
15509SOL    HW151374   7.527   7.889   7.650  1.9831  0.4773 -0.2067
15509SOL    HW251375   7.453   7.791   7.561  2.0347 -1.2417  1.6117
15510SOL     OW51376   2.977   5.375   7.295  0.7171  0.0731 -0.2694
15510SOL    HW151377   2.971   5.382   7.199  0.2727 -1.0056 -0.3360
15510SOL    HW251378   2.986   5.281   7.311  1.3653  0.3044  0.7266
15511SOL     OW51379   2.663   6.637   7.676 -0.8686 -0.1193 -0.2669
15511SOL    HW151380   2.732   6.617   7.739 -0.2700 -2.3100 -1.5629
15511SOL    HW251381   2.645   6.730   7.688 -0.4840 -0.4073  2.8402
15512SOL     OW51382   5.988   7.189   9.042  0.0585  0.2259  0.1584
15512SOL    HW151383   6.052   7.152   8.981  0.6544 -0.3635  1.1326
15512SOL    HW251384   6.008   7.147   9.126 -2.7366 -1.3279  0.0986
15513SOL     OW51385   3.826   7.644   7.694  0.2599  0.6963  0.2521
15513SOL    HW151386   3.789   7.613   7.777 -0.2215  2.2445  0.6355
15513SOL    HW251387   3.756   7.699   7.657  0.4419 -0.0608 -1.2113
15514SOL     OW51388   5.611   7.792   7.314  0.0623 -0.7015 -0.4378
15514SOL    HW151389   5.703   7.807   7.289  0.6461 -1.0315  1.3945
15514SOL    HW251390   5.578   7.879   7.337 -0.6982 -0.2891 -2.9997
15515SOL     OW51391   3.936   7.719   8.999 -0.4653 -0.2280 -0.1809
15515SOL    HW151392   3.860   7.668   9.027 -1.4581  0.2496 -1.9621
15515SOL    HW251393   3.909   7.758   8.916  0.4077  2.8578  0.9326
15516SOL     OW51394   4.963   7.581   7.849 -0.4187  0.2603 -0.1294
15516SOL    HW151395   5.001   7.605   7.764 -1.7620  0.2925 -0.7478
15516SOL    HW251396   4.868   7.585   7.834 -0.6708 -1.1304  0.9852
15517SOL     OW51397   4.703   6.441   8.234 -0.1752  0.4242  0.1778
15517SOL    HW151398   4.611   6.451   8.257 -0.4768  1.8879 -1.4920
15517SOL    HW251399   4.735   6.531   8.221  1.1191 -0.1122 -0.5479
15518SOL     OW51400   3.860   8.136   7.592 -0.5070 -0.2541 -0.1094
15518SOL    HW151401   3.821   8.188   7.662 -2.0773  0.2681 -1.3390
15518SOL    HW251402   3.950   8.121   7.620 -0.7057  1.1566  1.3363
15519SOL     OW51403   5.982   7.529   9.754  0.0880 -0.3074  0.2713
15519SOL    HW151404   5.960   7.561   9.667 -0.3423  1.5855  1.0544
15519SOL    HW251405   6.015   7.440   9.739  1.4700  0.5443 -1.9813
15520SOL     OW51406   1.350   6.342   5.812 -0.2364 -0.2361 -0.0257
15520SOL    HW151407   1.396   6.283   5.753 -0.4612  0.9328 -1.4058
15520SOL    HW251408   1.287   6.388   5.755  0.5137  1.9138  0.8539
15521SOL     OW51409   4.256   5.535   9.220  0.0405 -0.2566  0.0766
15521SOL    HW151410   4.334   5.581   9.189  0.0704 -0.4714 -0.1709
15521SOL    HW251411   4.276   5.442   9.207  0.0802 -0.3557  0.8109
15522SOL     OW51412   3.449   5.446   9.655  0.6036 -0.3080 -0.1196
15522SOL    HW151413   3.443   5.351   9.661  0.4777 -0.2235  1.3049
15522SOL    HW251414   3.361   5.477   9.676  1.2670  0.2066  2.0393
15523SOL     OW51415   3.315   5.545   9.022  0.0839  0.0645  0.1717
15523SOL    HW151416   3.383   5.498   8.974  0.6481  1.4050 -0.3697
15523SOL    HW251417   3.353   5.631   9.040 -2.0792  1.4459 -1.6302
15524SOL     OW51418   4.907   6.267   8.915 -0.1074 -0.1463 -0.4001
15524SOL    HW151419   4.856   6.303   8.988 -1.0018 -2.5539  0.2193
15524SOL    HW251420   4.969   6.336   8.892 -1.2033  1.4342  1.2726
15525SOL     OW51421   2.163   6.131   6.903 -0.0357  0.2311  0.5722
15525SOL    HW151422   2.176   6.116   6.809  0.8892 -0.1812  0.7596
15525SOL    HW251423   2.122   6.217   6.908 -2.3551 -0.7983 -0.3435
15526SOL     OW51424   5.190   8.825   7.882  0.0647 -0.0019 -0.2165
15526SOL    HW151425   5.100   8.830   7.849  0.6348  0.5867 -1.6794
15526SOL    HW251426   5.188   8.877   7.963 -0.9775 -0.2482 -0.0721
15527SOL     OW51427   4.265   6.367   0.298  0.0283  0.0299 -0.1528
15527SOL    HW151428   4.239   6.275   0.294 -0.1158  0.0634  0.0324
15527SOL    HW251429   4.360   6.365   0.307  0.2727 -0.0796 -2.4461
15528SOL     OW51430   6.783   8.760   8.726 -0.2828 -0.6630  0.2522
15528SOL    HW151431   6.781   8.852   8.751  1.1820 -0.4788 -0.2246
15528SOL    HW251432   6.855   8.723   8.777 -0.9029 -1.5550  0.4912
15529SOL     OW51433   3.922   5.199   8.671  0.3878  0.3692 -0.6374
15529SOL    HW151434   3.873   5.227   8.749 -1.7065  0.3395 -1.9057
15529SOL    HW251435   3.989   5.266   8.658 -0.0599  1.0331  0.4468
15530SOL     OW51436   2.781   5.673   0.470  0.2069 -0.4085 -0.0251
15530SOL    HW151437   2.747   5.593   0.429 -1.8724 -0.0986  0.9895
15530SOL    HW251438   2.842   5.709   0.406 -2.0219 -0.5866 -2.3440
15531SOL     OW51439   4.574   7.501   0.500 -0.5259  0.0344  0.1195
15531SOL    HW151440   4.515   7.474   0.570  0.3376  0.1317  0.8875
15531SOL    HW251441   4.568   7.430   0.436 -0.8583 -0.3414  0.5618
15532SOL     OW51442   7.273   8.149   7.831  0.7305  0.0466  0.0896
15532SOL    HW151443   7.306   8.065   7.862 -0.3081 -1.0933 -1.7899
15532SOL    HW251444   7.293   8.211   7.901  1.8920 -1.6799  1.3057
15533SOL     OW51445   4.736   6.411   8.703 -0.5159  0.2919  0.1339
15533SOL    HW151446   4.766   6.431   8.792 -0.1587 -2.6719  0.7431
15533SOL    HW251447   4.748   6.316   8.695  0.6842  0.6988 -3.5494
15534SOL     OW51448   4.832   6.991   0.019  0.1189 -0.9627  0.6387
15534SOL    HW151449   4.917   6.998   0.062 -0.1215 -1.5564  1.2175
15534SOL    HW251450   4.788   7.074   0.040  0.9669 -0.1820 -0.5855
15535SOL     OW51451   4.483   6.552   0.153 -0.1239  0.4661  0.0909
15535SOL    HW151452   4.397   6.594   0.155  0.0601  0.8266  0.6626
15535SOL    HW251453   4.519   6.566   0.241 -0.6142 -2.1083  0.7447
15536SOL     OW51454   4.278   9.682   6.657 -0.5558  0.3745  0.2356
15536SOL    HW151455   4.344   9.683   6.727 -0.6472  0.5844  0.3192
15536SOL    HW251456   4.235   9.767   6.664  2.5553  2.3823 -3.0559
15537SOL     OW51457   4.534   8.033   8.587  0.5872  0.3758 -0.0531
15537SOL    HW151458   4.599   8.014   8.654 -0.4475  3.0900  1.8034
15537SOL    HW251459   4.575   8.005   8.505  2.4015 -1.7862  1.5379
15538SOL     OW51460   4.681   8.136   8.227 -0.0458  0.2670 -0.0309
15538SOL    HW151461   4.684   8.168   8.317 -0.2726  0.3497 -0.0507
15538SOL    HW251462   4.588   8.139   8.204  0.2589  2.8613 -1.1924
15539SOL     OW51463   5.647   8.547   7.845 -0.0472  0.0265  0.1627
15539SOL    HW151464   5.716   8.482   7.832 -0.8744 -0.3591 -2.5947
15539SOL    HW251465   5.574   8.496   7.880  0.2238 -0.0188  0.6679
15540SOL     OW51466   4.510   5.670   9.204  0.5187  0.1742  0.0659
15540SOL    HW151467   4.585   5.610   9.199 -1.3362 -2.4765  2.4067
15540SOL    HW251468   4.529   5.726   9.279  0.3358 -0.3017  0.4744
15541SOL     OW51469   3.941   5.450   9.710 -0.1579 -0.2234  0.3545
15541SOL    HW151470   3.897   5.491   9.785 -1.9686 -0.5596 -0.4952
15541SOL    HW251471   4.026   5.495   9.705 -1.5444  2.5317  0.2568
15542SOL     OW51472   3.812   6.562   1.434 -0.3924 -0.4375  0.1007
15542SOL    HW151473   3.898   6.590   1.404 -0.7558 -0.2624 -0.7770
15542SOL    HW251474   3.761   6.643   1.440 -1.2604 -0.8237 -1.8379
15543SOL     OW51475   5.551   7.913   7.905  0.2028  0.0477 -0.0386
15543SOL    HW151476   5.594   7.958   7.832  1.7499 -1.1105  0.1132
15543SOL    HW251477   5.487   7.855   7.863 -1.0856  1.6271 -0.2842
15544SOL     OW51478   1.843   5.144   8.210  0.2284  0.4071 -0.4712
15544SOL    HW151479   1.846   5.184   8.123 -1.6152 -0.5609 -0.9987
15544SOL    HW251480   1.797   5.061   8.197 -1.8069  1.1332  1.7444
15545SOL     OW51481   3.736   7.988   9.046 -0.4658 -0.0702  0.6352
15545SOL    HW151482   3.748   7.990   8.951 -1.4787  1.0317  0.5202
15545SOL    HW251483   3.818   8.022   9.082  0.1692 -1.0992  0.1895
15546SOL     OW51484   5.081   6.494   8.506  0.6912  0.4047 -0.4999
15546SOL    HW151485   5.160   6.443   8.525  0.0208  0.3219  2.2030
15546SOL    HW251486   5.027   6.435   8.453  1.6626 -0.1996 -0.8301
15547SOL     OW51487   5.537   6.640   9.384  0.2756  0.7644  0.5186
15547SOL    HW151488   5.579   6.717   9.345 -0.7146  0.2687 -1.6251
15547SOL    HW251489   5.447   6.668   9.400 -0.0568  0.0883 -0.1587
15548SOL     OW51490   6.541   5.126   8.500  0.2810  0.1708  0.3102
15548SOL    HW151491   6.560   5.038   8.534 -1.0199 -0.1828  0.1614
15548SOL    HW251492   6.521   5.178   8.578 -1.4474 -0.3217  0.2294
15549SOL     OW51493   4.518   7.934   9.029 -0.3270  0.3153 -0.5355
15549SOL    HW151494   4.446   7.987   9.060  0.2996  1.5139 -1.1098
15549SOL    HW251495   4.539   7.969   8.942  1.3705  0.4145 -0.0989
15550SOL     OW51496   5.288   7.151   7.626 -0.0449  0.4387 -0.7511
15550SOL    HW151497   5.249   7.084   7.683  0.5928  0.0805 -0.7330
15550SOL    HW251498   5.349   7.102   7.571 -0.6173  0.7931 -1.7017
15551SOL     OW51499   4.648   8.272   9.014  0.0216 -0.3401 -0.3053
15551SOL    HW151500   4.647   8.354   8.965  0.6711  0.4066  0.9075
15551SOL    HW251501   4.558   8.240   9.010 -0.1507  0.2388 -1.0955
15552SOL     OW51502   4.858   6.991   8.327  0.8171  0.1243 -0.1012
15552SOL    HW151503   4.802   6.917   8.302  0.7997  0.1802 -0.2293
15552SOL    HW251504   4.901   7.016   8.245 -0.2396  1.1691 -0.3522
15553SOL     OW51505   5.993   5.855   8.581 -0.0463  0.1862 -0.4521
15553SOL    HW151506   5.914   5.820   8.622  0.4990 -1.0081 -0.4073
15553SOL    HW251507   6.006   5.801   8.503  1.3934 -0.4025  0.1811
15554SOL     OW51508   5.519   6.096   8.723  0.1504  0.1403 -0.0276
15554SOL    HW151509   5.548   6.116   8.634 -0.0657 -0.3792 -0.2198
15554SOL    HW251510   5.480   6.177   8.755  0.6813  0.4756 -0.2247
15555SOL     OW51511   3.145   6.881   8.644  0.3381  0.2810  0.0512
15555SOL    HW151512   3.223   6.916   8.688 -0.2595  0.5878  0.8806
15555SOL    HW251513   3.129   6.797   8.686  0.5903 -0.0785 -0.5604
15556SOL     OW51514   5.399   7.487   8.629  0.4700  0.1009 -0.3828
15556SOL    HW151515   5.419   7.413   8.686 -1.0723 -1.6605 -2.0417
15556SOL    HW251516   5.480   7.504   8.581  0.9406 -0.3034  0.2728
15557SOL     OW51517   5.399   5.386   8.492  0.1267  0.3070  0.3956
15557SOL    HW151518   5.477   5.442   8.496  0.6065 -0.2169 -1.4130
15557SOL    HW251519   5.392   5.360   8.401 -2.7708  1.1588  0.3167
15558SOL     OW51520   6.378   6.136   8.831  0.3261  0.2694  0.3056
15558SOL    HW151521   6.466   6.168   8.851  0.3260  0.7998 -0.5259
15558SOL    HW251522   6.369   6.057   8.884  0.9510  0.7287  1.1128
15559SOL     OW51523   3.102   6.408   0.173 -0.6303  0.2709 -0.0548
15559SOL    HW151524   3.071   6.472   0.109 -2.7706 -0.4688  0.2053
15559SOL    HW251525   3.098   6.324   0.127 -1.7523 -0.2031  0.8996
15560SOL     OW51526   3.313   5.314   0.072  0.8550  0.0912  0.2217
15560SOL    HW151527   3.253   5.364   0.128  2.3285 -0.7871  2.6669
15560SOL    HW251528   3.265   5.301  -0.009 -1.0981  2.0044  1.0181
15561SOL     OW51529   4.750   8.010   0.594  0.0556  0.3700 -0.1227
15561SOL    HW151530   4.722   7.970   0.511  0.7766 -0.3371 -0.0288
15561SOL    HW251531   4.830   8.057   0.572  0.3414  0.0382  0.2100
15562SOL     OW51532   4.078   7.694   9.359  0.0998 -0.4349  0.4617
15562SOL    HW151533   4.094   7.674   9.451  2.1770 -1.0125  0.0089
15562SOL    HW251534   4.009   7.634   9.333  0.7894 -1.5725  1.1843
15563SOL     OW51535   4.295   5.975   9.374 -0.5390 -0.6762 -0.5012
15563SOL    HW151536   4.206   5.995   9.403 -0.4615 -0.6503 -0.2744
15563SOL    HW251537   4.347   6.049   9.405 -0.7105  0.0952 -2.0350
15564SOL     OW51538   6.954   8.079   8.299 -0.3205  0.8585  0.2477
15564SOL    HW151539   6.991   7.999   8.336 -0.5565 -0.0384 -1.4014
15564SOL    HW251540   6.872   8.091   8.346 -0.9988 -0.6987 -0.4935
15565SOL     OW51541   3.816   7.005   0.313  0.6114 -0.1217  0.2696
15565SOL    HW151542   3.870   7.006   0.234  1.8274 -0.0991  1.0920
15565SOL    HW251543   3.868   6.957   0.377  0.4316  1.4512  1.6278
15566SOL     OW51544   5.679   5.046   0.044 -0.1872  0.7020  0.1408
15566SOL    HW151545   5.624   5.079  -0.027 -0.3229  0.6889  0.2383
15566SOL    HW251546   5.761   5.023   0.002 -0.7572 -0.6371 -0.2580
15567SOL     OW51547   6.065   7.083   0.473  0.0231 -0.2972 -0.7844
15567SOL    HW151548   6.156   7.105   0.495 -0.1257 -0.6576  0.2094
15567SOL    HW251549   6.013   7.152   0.513 -0.1636 -0.2676 -1.0802
15568SOL     OW51550   4.280   5.033   0.028  0.2193  1.0330 -0.1232
15568SOL    HW151551   4.356   5.032  -0.030 -0.4623  1.0637 -1.0277
15568SOL    HW251552   4.250   4.942   0.031  1.1183  0.7747  1.3428
15569SOL     OW51553   5.618   7.584   7.944  0.1368  0.1723 -0.0415
15569SOL    HW151554   5.535   7.622   7.915 -0.9451 -1.5366  0.7606
15569SOL    HW251555   5.682   7.617   7.881 -1.0388  1.9422 -0.3602
15570SOL     OW51556   5.704   5.335   0.763 -0.3100  0.1497  0.2570
15570SOL    HW151557   5.711   5.390   0.841  0.2839  0.9927 -0.3791
15570SOL    HW251558   5.622   5.287   0.774 -0.8585  1.2012  0.8064
15571SOL     OW51559   3.727   6.658   0.462  0.0489  0.8392  0.1712
15571SOL    HW151560   3.656   6.705   0.419 -0.4946 -0.9285 -0.9120
15571SOL    HW251561   3.760   6.719   0.528 -2.1005  1.9027  0.3073
15572SOL     OW51562   4.290   5.631   0.262 -0.1294  0.3390  0.4412
15572SOL    HW151563   4.272   5.725   0.264  0.8568  0.5185  1.4577
15572SOL    HW251564   4.384   5.625   0.278 -0.0424 -0.7830 -0.4574
15573SOL     OW51565   3.458   6.100   0.380 -0.2118 -0.1807 -0.5438
15573SOL    HW151566   3.526   6.163   0.357  1.0678 -1.5615 -0.5443
15573SOL    HW251567   3.393   6.109   0.310 -0.1131  1.2388 -0.4647
15574SOL     OW51568   5.239   8.762   0.989 -0.1470  0.0031  0.8030
15574SOL    HW151569   5.228   8.794   1.079 -1.4100 -1.6883  1.2761
15574SOL    HW251570   5.178   8.689   0.982  3.5241 -3.2066  0.1906
15575SOL     OW51571   3.764   5.444   9.299  0.0639 -0.3118  0.0535
15575SOL    HW151572   3.729   5.383   9.234 -1.4844  0.3189  0.2685
15575SOL    HW251573   3.760   5.397   9.382 -2.3203  0.4852  0.4283
15576SOL     OW51574   3.378   7.211   0.868 -0.3018  0.3336  0.2333
15576SOL    HW151575   3.457   7.237   0.819  1.7050  0.4098  3.4048
15576SOL    HW251576   3.364   7.281   0.931 -1.8265 -0.6115  0.9823
15577SOL     OW51577   5.256   7.651   9.947 -0.4763 -0.2583 -0.2790
15577SOL    HW151578   5.212   7.736   9.944  0.1624  0.0894  0.0546
15577SOL    HW251579   5.298   7.649  10.033 -2.3595 -1.8645  0.6437
15578SOL     OW51580   5.241   7.511   9.165 -0.6670 -0.2362  0.1291
15578SOL    HW151581   5.217   7.583   9.106 -0.4620 -0.7995 -0.6574
15578SOL    HW251582   5.230   7.547   9.253  1.1032  1.3028 -0.2599
15579SOL     OW51583   4.697   7.508   8.787  0.0891 -0.1361 -0.8879
15579SOL    HW151584   4.665   7.528   8.699  0.7878 -0.0558 -1.1301
15579SOL    HW251585   4.648   7.431   8.814 -1.7204  1.1327 -0.4626
15580SOL     OW51586   5.304   5.304   0.354 -0.0985  0.5576 -0.2720
15580SOL    HW151587   5.322   5.344   0.269 -0.7834 -0.8334 -1.0822
15580SOL    HW251588   5.391   5.289   0.392  0.1629  2.7704  0.0339
15581SOL     OW51589   4.662   7.188   1.327 -0.0238 -0.1500 -0.0195
15581SOL    HW151590   4.596   7.225   1.269 -0.8510 -1.6203 -0.0550
15581SOL    HW251591   4.624   7.196   1.414 -1.1645 -2.7947 -0.2289
15582SOL     OW51592   5.594   5.339   9.929  0.4536 -0.3904 -0.1190
15582SOL    HW151593   5.559   5.396   9.861 -0.7494  0.3899  1.1312
15582SOL    HW251594   5.589   5.251   9.891 -1.4685 -0.1215 -0.5275
15583SOL     OW51595   3.469   5.449   9.379 -0.0930 -0.3423  0.2008
15583SOL    HW151596   3.465   5.537   9.341 -0.8163 -1.3111 -2.0656
15583SOL    HW251597   3.459   5.463   9.473 -1.3583  1.9081 -0.2295
15584SOL     OW51598   5.464   7.227   9.437 -0.1883  0.1473  0.1208
15584SOL    HW151599   5.374   7.218   9.468  0.1506  0.0982  1.0980
15584SOL    HW251600   5.505   7.142   9.454  0.1002  0.2316 -0.1410
15585SOL     OW51601   2.768   7.287   0.339  0.6255  0.4051 -0.3098
15585SOL    HW151602   2.766   7.301   0.244 -0.7779 -1.2689 -0.5617
15585SOL    HW251603   2.689   7.330   0.371  0.9772  0.7654  0.0751
15586SOL     OW51604   3.735   5.780   0.451  0.7416  0.1283 -0.1698
15586SOL    HW151605   3.804   5.718   0.427  1.1165  0.9177 -1.1496
15586SOL    HW251606   3.767   5.823   0.530  1.5841  0.8307 -0.8913
15587SOL     OW51607   5.425   6.518   1.383  0.4320  0.1269 -0.0511
15587SOL    HW151608   5.341   6.475   1.372  0.8227 -1.3324  2.1876
15587SOL    HW251609   5.485   6.469   1.327  0.2487 -0.2882  0.1141
15588SOL     OW51610   5.883   5.961   9.473 -0.1639  0.3407  0.2064
15588SOL    HW151611   5.796   5.997   9.460  0.3497  1.6230  0.2673
15588SOL    HW251612   5.868   5.874   9.509 -1.4069  0.8110  0.8470
15589SOL     OW51613   4.858   7.748   8.644 -0.2556 -0.5662  0.1833
15589SOL    HW151614   4.799   7.686   8.601  1.0228 -1.1499 -0.7773
15589SOL    HW251615   4.869   7.819   8.580  0.6202 -0.7958  0.0780
15590SOL     OW51616   2.769   4.761   1.253 -0.6580 -0.4985  0.1171
15590SOL    HW151617   2.725   4.840   1.283  0.8137 -0.0990  1.2071
15590SOL    HW251618   2.845   4.792   1.205  0.5013 -1.2626  1.4308
15591SOL     OW51619   5.970   5.723   0.199 -0.2841 -0.0807 -0.4403
15591SOL    HW151620   5.993   5.816   0.211 -1.7766  0.1981  0.3327
15591SOL    HW251621   5.879   5.724   0.170 -0.9773 -1.3858  1.6124
15592SOL     OW51622   4.270   8.052   8.705  0.3175 -0.1350  0.4435
15592SOL    HW151623   4.331   8.075   8.636 -1.0351  1.6478 -0.2088
15592SOL    HW251624   4.317   8.072   8.786  0.8549  0.5500 -0.0295
15593SOL     OW51625   5.917   6.965   0.066  0.2030  0.1016  0.6106
15593SOL    HW151626   6.004   6.962   0.104  0.4008  1.1800  0.2706
15593SOL    HW251627   5.926   7.022  -0.011 -0.2118 -1.9110 -0.9712
15594SOL     OW51628   5.442   6.066   9.740  0.3073  0.3661  0.8214
15594SOL    HW151629   5.364   6.022   9.772 -0.4736  1.0747 -0.0740
15594SOL    HW251630   5.501   5.994   9.715 -0.6161 -0.1887  0.1854
15595SOL     OW51631   5.434   7.446   7.713  0.0476  0.9261 -0.2404
15595SOL    HW151632   5.448   7.521   7.771  0.4957  1.1527 -0.6383
15595SOL    HW251633   5.343   7.421   7.728  0.5827  0.0089  1.6999
15596SOL     OW51634   3.407   6.828   0.179  0.2957 -0.0746  0.0726
15596SOL    HW151635   3.477   6.789   0.232 -0.3715  0.1562  1.1349
15596SOL    HW251636   3.453   6.873   0.109  1.3995  2.8488  2.5765
15597SOL     OW51637   4.729   6.106   9.708 -1.3932 -0.5190 -0.6242
15597SOL    HW151638   4.757   6.157   9.632  0.8232 -0.3763  0.2444
15597SOL    HW251639   4.726   6.170   9.780 -1.6814 -0.9934 -0.2128
15598SOL     OW51640   5.744   5.790   9.024 -0.5576 -0.3953  0.2275
15598SOL    HW151641   5.836   5.798   9.049 -0.4994  0.4583 -0.2294
15598SOL    HW251642   5.700   5.859   9.074 -1.3735 -2.4156  2.3875
15599SOL     OW51643   3.933   5.571   0.833 -0.0300  0.0859 -0.1250
15599SOL    HW151644   3.945   5.525   0.916  0.4222  0.1973 -0.1296
15599SOL    HW251645   3.980   5.653   0.844  0.3331 -0.0563 -0.6253
15600SOL     OW51646   5.529   5.126   9.186  0.5455 -0.1266  0.0232
15600SOL    HW151647   5.565   5.179   9.116  1.8027 -0.7189  0.2147
15600SOL    HW251648   5.511   5.189   9.256  0.9021  0.2178 -0.1910
15601SOL     OW51649   6.797   3.954   9.022  0.1987  0.6672 -0.0747
15601SOL    HW151650   6.812   3.862   9.044  1.6107  0.8005 -0.4924
15601SOL    HW251651   6.712   3.974   9.062 -0.5343 -1.0556 -0.7442
15602SOL     OW51652   4.716   5.744   0.207 -0.0361  0.1932 -0.4488
15602SOL    HW151653   4.746   5.739   0.297 -0.7167 -0.2981 -0.2495
15602SOL    HW251654   4.629   5.704   0.207 -0.2530  0.6318 -1.2243
15603SOL     OW51655   4.694   5.942   0.005 -0.8494 -0.1528 -0.2773
15603SOL    HW151656   4.686   6.015   0.067 -0.0720 -0.3069  0.0066
15603SOL    HW251657   4.709   5.865   0.060  0.4644 -0.1957 -0.6838
15604SOL     OW51658   3.762   7.820   1.051 -1.1334 -0.2840 -0.0539
15604SOL    HW151659   3.784   7.748   0.992 -0.4541 -1.7337  1.9084
15604SOL    HW251660   3.671   7.843   1.029 -0.3894  0.2442 -2.6739
15605SOL     OW51661   2.699   6.990   8.476 -0.1040 -0.1535  0.1662
15605SOL    HW151662   2.777   6.996   8.531  0.2860  0.0251 -0.3978
15605SOL    HW251663   2.719   7.044   8.400 -0.9428  0.2316  0.2029
15606SOL     OW51664   3.151   7.096   1.135 -0.5375  0.3693  0.1294
15606SOL    HW151665   3.109   7.096   1.049 -0.1867 -0.1205 -0.0396
15606SOL    HW251666   3.151   7.188   1.161 -1.4930  0.4067  0.0230
15607SOL     OW51667   7.151   8.068   9.771 -0.5731 -0.7465  0.1458
15607SOL    HW151668   7.056   8.077   9.777 -0.6131 -1.5451  0.8302
15607SOL    HW251669   7.173   8.000   9.835  0.2051 -2.0909 -1.4891
15608SOL     OW51670   5.600   6.994   9.481  0.6507  0.2998 -0.4576
15608SOL    HW151671   5.658   7.006   9.557  1.2989  0.9219 -1.0435
15608SOL    HW251672   5.526   6.943   9.515  1.5045 -0.4341  0.3206
15609SOL     OW51673   4.913   7.247   9.525 -0.2858 -0.0117  0.1321
15609SOL    HW151674   4.865   7.328   9.509  1.7729  2.0347  3.5880
15609SOL    HW251675   4.975   7.242   9.453 -0.4559  1.4972 -0.1430
15610SOL     OW51676   5.330   7.303   9.792  0.1625  0.0629 -0.2563
15610SOL    HW151677   5.412   7.252   9.789  0.6635  0.8648 -0.2089
15610SOL    HW251678   5.309   7.317   9.700  0.8060  1.0155 -0.2648
15611SOL     OW51679   5.524   6.833   0.217 -0.2501  0.0039 -0.1078
15611SOL    HW151680   5.602   6.830   0.162 -0.0144 -0.3955  0.2482
15611SOL    HW251681   5.460   6.882   0.165 -0.7770 -2.2886 -1.7266
15612SOL     OW51682   3.744   5.912   1.257  0.1954 -0.3611 -0.5715
15612SOL    HW151683   3.788   5.955   1.183 -0.0961  1.2541  0.1613
15612SOL    HW251684   3.765   5.820   1.247  1.4819  0.0397 -1.7829
15613SOL     OW51685   4.767   4.207   0.166  0.1536  0.4222  0.5256
15613SOL    HW151686   4.713   4.168   0.097 -0.0420 -1.0920  1.5062
15613SOL    HW251687   4.856   4.206   0.131 -0.1648  1.0938 -0.3134
15614SOL     OW51688   4.699   7.738   9.085 -0.4898  0.1065  0.0655
15614SOL    HW151689   4.691   7.661   9.030 -0.5699  1.5821 -2.0258
15614SOL    HW251690   4.629   7.796   9.056  1.5384  2.3037 -0.6316
15615SOL     OW51691   5.144   5.407   0.729 -0.6549  0.4377 -0.0258
15615SOL    HW151692   5.206   5.352   0.682  0.1451 -0.0314  1.5323
15615SOL    HW251693   5.071   5.419   0.669 -0.2419 -1.2290 -0.8789
15616SOL     OW51694   4.763   6.687   0.440 -0.2366  0.2379  0.3843
15616SOL    HW151695   4.742   6.689   0.347 -0.4290 -0.3263  0.4161
15616SOL    HW251696   4.853   6.720   0.445 -0.4991  1.0011  0.0781
15617SOL     OW51697   4.071   7.882   7.980  0.5473  0.3294  0.3386
15617SOL    HW151698   3.988   7.911   8.017  1.0215 -0.2065  1.8669
15617SOL    HW251699   4.116   7.839   8.053  2.4716  1.2629 -0.2594
15618SOL     OW51700   4.521   5.060   9.920 -0.3715  0.5307 -0.0584
15618SOL    HW151701   4.561   5.121   9.982  0.7672 -0.4486  0.1873
15618SOL    HW251702   4.589   4.995   9.903 -2.0987 -1.6419  1.0173
15619SOL     OW51703   5.057   5.190   0.357 -0.0229 -0.0399  0.0646
15619SOL    HW151704   5.013   5.226   0.434 -0.7867 -0.5096 -0.1490
15619SOL    HW251705   5.135   5.246   0.346  0.0931  0.0256  1.1657
15620SOL     OW51706   4.658   6.721   9.800  0.1621 -0.0450  0.7585
15620SOL    HW151707   4.580   6.744   9.850 -0.0964 -0.6440  0.6363
15620SOL    HW251708   4.683   6.802   9.757 -0.3579  0.1681  0.8496
15621SOL     OW51709   5.884   5.125   0.227 -0.4215 -0.0114 -0.2878
15621SOL    HW151710   5.804   5.149   0.180  0.4723 -0.2327 -1.9526
15621SOL    HW251711   5.935   5.206   0.230  1.1086 -0.8308 -2.9261
15622SOL     OW51712   3.174   5.994   9.167 -0.0565 -0.3727 -0.2673
15622SOL    HW151713   3.134   6.064   9.219  1.2452  1.4885 -1.7327
15622SOL    HW251714   3.199   5.928   9.232  1.5457  1.8930  1.5040
15623SOL     OW51715   4.651   8.770   0.311 -0.3995 -0.8753 -0.0902
15623SOL    HW151716   4.706   8.765   0.233  0.9397  4.2287  0.3728
15623SOL    HW251717   4.563   8.785   0.277 -0.0317  0.0426 -0.6595
15624SOL     OW51718   3.442   8.916   1.689 -0.4004  0.2650 -0.4577
15624SOL    HW151719   3.406   8.853   1.628 -0.9437  0.2117 -0.0879
15624SOL    HW251720   3.387   8.994   1.679 -2.6876 -0.8978  2.4051
15625SOL     OW51721   4.181   7.576   1.036  0.3809 -0.3488  0.3326
15625SOL    HW151722   4.173   7.607   0.946 -0.2898 -0.5393  0.3231
15625SOL    HW251723   4.113   7.509   1.045  0.3897 -0.2765  1.0077
15626SOL     OW51724   2.956   9.410   9.469  0.3494 -0.1993  0.1430
15626SOL    HW151725   2.968   9.436   9.560  0.4877  1.1913 -0.2504
15626SOL    HW251726   2.964   9.492   9.420 -0.4890 -0.8135 -1.0483
15627SOL     OW51727   5.512   8.094   9.975 -0.1596 -0.0871  0.1541
15627SOL    HW151728   5.594   8.141   9.955  1.2625 -2.1829  0.9296
15627SOL    HW251729   5.525   8.007   9.938 -2.4210 -0.1901 -0.4537
15628SOL     OW51730   5.020   7.330   0.522  0.6057 -0.2080 -0.4101
15628SOL    HW151731   5.008   7.385   0.445 -0.6388  0.9741  0.6057
15628SOL    HW251732   5.050   7.390   0.590 -1.9396 -0.5463  1.0380
15629SOL     OW51733   6.879   7.280   9.837 -0.2753 -1.1661  0.1774
15629SOL    HW151734   6.871   7.271   9.742  0.9397  0.1106 -0.0714
15629SOL    HW251735   6.826   7.357   9.859 -0.8081 -1.6481  0.5728
15630SOL     OW51736   4.532   8.417   0.536  0.2311 -0.0565 -0.1483
15630SOL    HW151737   4.466   8.447   0.475 -0.6821  0.5981  1.1418
15630SOL    HW251738   4.509   8.326   0.554  1.6628 -0.8775 -2.2815
15631SOL     OW51739   6.055   5.956   3.291  0.7301 -0.3902  0.3244
15631SOL    HW151740   5.988   5.888   3.292 -2.4797  2.6071 -0.5085
15631SOL    HW251741   6.059   5.987   3.382  0.9724 -0.5406  0.3657
15632SOL     OW51742   4.312   8.317   1.776 -0.1101  0.5591  0.0384
15632SOL    HW151743   4.297   8.233   1.733  0.5920  0.4747 -0.0452
15632SOL    HW251744   4.278   8.382   1.715 -1.4696  0.2815  0.4976
15633SOL     OW51745   5.525   9.516   1.579  0.3445 -0.2070  0.3679
15633SOL    HW151746   5.589   9.445   1.573  0.9483  0.5280 -2.5946
15633SOL    HW251747   5.446   9.481   1.538  0.3945  0.5482 -0.3833
15634SOL     OW51748   4.168   8.796   0.829 -0.2657 -0.0724  0.2707
15634SOL    HW151749   4.226   8.808   0.754 -1.2069  2.3800 -0.0988
15634SOL    HW251750   4.127   8.711   0.815 -0.0518  0.1453 -1.7546
15635SOL     OW51751   5.040   9.119   0.618  0.3795 -0.1200  0.4333
15635SOL    HW151752   4.979   9.156   0.681  0.5546  0.8163  0.0610
15635SOL    HW251753   5.111   9.183   0.612  1.9067 -1.6463  1.6045
15636SOL     OW51754   3.181   7.534   2.500  0.4750  0.3838 -0.0667
15636SOL    HW151755   3.207   7.626   2.504  3.1799 -0.3563  0.9231
15636SOL    HW251756   3.217   7.496   2.581 -0.7547 -1.5062 -0.3740
15637SOL     OW51757   3.332   7.400   1.062  0.4333 -0.6136 -0.5508
15637SOL    HW151758   3.325   7.422   1.154 -0.3869 -0.2340 -0.6979
15637SOL    HW251759   3.406   7.452   1.030  1.5669 -1.7377  0.1689
15638SOL     OW51760   5.009   9.494   9.886 -0.4185 -0.2153 -0.6221
15638SOL    HW151761   5.025   9.400   9.873  0.3654 -0.1344 -0.2270
15638SOL    HW251762   5.054   9.536   9.813 -2.4168 -0.2674 -1.9157
15639SOL     OW51763   4.172   9.506   1.291  1.0529 -0.2768 -0.1872
15639SOL    HW151764   4.201   9.577   1.233  0.2741 -0.5240 -0.9081
15639SOL    HW251765   4.076   9.513   1.290  1.0702  0.2624  1.7905
15640SOL     OW51766   2.764   0.206   9.744  0.3062  0.1962 -0.2486
15640SOL    HW151767   2.698   0.240   9.804  0.3795  0.0793 -0.1022
15640SOL    HW251768   2.844   0.254   9.766  1.1946 -2.2043  2.0420
15641SOL     OW51769   4.597   8.566   1.104 -0.0056 -0.3696  0.4586
15641SOL    HW151770   4.621   8.602   1.019 -0.4498 -0.5428  0.2555
15641SOL    HW251771   4.673   8.514   1.131  0.1293 -0.3264  0.1608
15642SOL     OW51772   4.858   9.698   1.850  0.0013  0.6244 -0.1089
15642SOL    HW151773   4.914   9.632   1.808  1.8616  0.6761  2.2056
15642SOL    HW251774   4.899   9.782   1.828 -0.0646  0.7588  0.2830
15643SOL     OW51775   3.724   7.690   0.066  0.0511  0.6059  0.6886
15643SOL    HW151776   3.705   7.752   0.137  0.4025  0.8703  0.5523
15643SOL    HW251777   3.813   7.659   0.084 -0.8050 -1.2939  1.8168
15644SOL     OW51778   6.270   7.512   0.415 -0.2025  0.3044  0.5339
15644SOL    HW151779   6.177   7.515   0.393 -0.8032  0.1867  2.8919
15644SOL    HW251780   6.308   7.454   0.349 -1.4534  1.7133 -1.5015
15645SOL     OW51781   1.618   7.214   1.485  0.1203  0.4819 -0.0219
15645SOL    HW151782   1.530   7.186   1.459  0.6776 -0.1933 -1.2503
15645SOL    HW251783   1.625   7.190   1.577 -0.4395 -0.8648 -0.3146
15646SOL     OW51784   6.217   9.396   0.024  0.4736  0.8043  0.4844
15646SOL    HW151785   6.159   9.413   0.098 -0.5936  0.0679 -0.1811
15646SOL    HW251786   6.241   9.304   0.033 -2.2478 -0.2183 -1.8600
15647SOL     OW51787   4.575   8.261   1.150  0.0843 -0.2612  0.1012
15647SOL    HW151788   4.669   8.244   1.151 -0.1729 -1.8211 -0.8495
15647SOL    HW251789   4.539   8.205   1.218  0.0088  1.4744  1.5187
15648SOL     OW51790   4.659   8.170   0.317  0.6924  0.2602 -0.1899
15648SOL    HW151791   4.738   8.220   0.338  1.5801 -0.9563 -0.6045
15648SOL    HW251792   4.680   8.080   0.343 -1.5506  0.3797  2.2956
15649SOL     OW51793   6.056   7.488   0.788 -0.1233 -0.0631 -0.4594
15649SOL    HW151794   6.012   7.490   0.704  2.8743  0.1317 -2.1025
15649SOL    HW251795   6.122   7.557   0.782  1.5336 -1.4353  1.2161
15650SOL     OW51796   4.381   9.350   0.639 -0.2678  0.0659 -0.0172
15650SOL    HW151797   4.404   9.432   0.596 -0.6544 -0.6309 -1.6151
15650SOL    HW251798   4.369   9.373   0.731  2.5086  1.2356  0.0809
15651SOL     OW51799   3.442   8.448   2.205 -0.1305  0.4051  0.0055
15651SOL    HW151800   3.431   8.503   2.128 -2.0159 -0.4231 -0.3268
15651SOL    HW251801   3.354   8.439   2.242  0.3293 -1.3950  0.7257
15652SOL     OW51802   4.573   7.148   9.998 -0.1189  0.5611  0.0069
15652SOL    HW151803   4.496   7.160  10.053  0.9447  0.7919  1.4490
15652SOL    HW251804   4.561   7.212   9.927 -0.3905  1.8468  1.1856
15653SOL     OW51805   4.268   7.317   7.455  0.8281  0.5185 -0.3550
15653SOL    HW151806   4.194   7.296   7.398  1.9719  0.9426 -2.0429
15653SOL    HW251807   4.256   7.409   7.476 -0.3481  0.0210  1.2618
15654SOL     OW51808   4.600   8.342   1.722  0.0869 -0.7907  0.2050
15654SOL    HW151809   4.576   8.434   1.726  0.6497 -0.6698  0.9462
15654SOL    HW251810   4.517   8.295   1.717 -0.2216 -0.2667  0.4318
15655SOL     OW51811   4.475   7.579   0.005 -0.1613 -0.8397 -0.4436
15655SOL    HW151812   4.415   7.612  -0.061  1.3436  3.1084  0.0094
15655SOL    HW251813   4.423   7.573   0.085 -0.0984  2.3363 -0.1045
15656SOL     OW51814   4.846   9.457   3.239 -0.2660  0.5271  0.0966
15656SOL    HW151815   4.821   9.430   3.327 -1.0196  0.8242 -0.0219
15656SOL    HW251816   4.793   9.534   3.221 -0.0175  0.5494 -0.5642
15657SOL     OW51817   2.689   6.669   0.882  0.2703  0.2452  0.3093
15657SOL    HW151818   2.658   6.692   0.795 -1.6098 -1.9010  0.3635
15657SOL    HW251819   2.755   6.601   0.868 -0.3683 -0.4387  0.5535
15658SOL     OW51820   5.207   7.450   2.628 -0.3549 -0.2516  0.5921
15658SOL    HW151821   5.271   7.408   2.685  0.7183  0.6118  0.0272
15658SOL    HW251822   5.200   7.540   2.661 -1.2052 -0.3069  0.5883
15659SOL     OW51823   3.468   9.350   9.490  0.3964 -0.1203 -0.4264
15659SOL    HW151824   3.393   9.391   9.446  2.0614  3.9729  0.2893
15659SOL    HW251825   3.436   9.330   9.578 -0.4474 -0.3324 -0.7713
15660SOL     OW51826   4.031   7.985   1.560 -0.4081 -0.2923  0.1408
15660SOL    HW151827   4.051   7.892   1.552 -1.5088 -0.4519 -0.9130
15660SOL    HW251828   3.956   7.999   1.502  1.4338  1.8108 -1.8582
15661SOL     OW51829   3.811   8.311   0.225  0.2262 -0.5781  0.6751
15661SOL    HW151830   3.765   8.374   0.171  0.2461  0.0442  1.3865
15661SOL    HW251831   3.895   8.298   0.180 -0.8651 -2.2031 -0.9713
15662SOL     OW51832   5.302   8.427   2.648  0.4857 -0.1583  0.3434
15662SOL    HW151833   5.315   8.379   2.729  2.7133  2.4502  1.6236
15662SOL    HW251834   5.380   8.406   2.596 -0.1202 -0.4853 -0.4410
15663SOL     OW51835   3.882   8.040   0.782  0.1035  0.0674  0.2379
15663SOL    HW151836   3.863   8.010   0.871  1.5561  2.2736  1.3350
15663SOL    HW251837   3.797   8.060   0.744 -0.5629 -1.3312  0.9371
15664SOL     OW51838   4.500   8.143   0.595 -0.0339 -0.0971  0.4349
15664SOL    HW151839   4.469   8.126   0.684 -1.2423  1.4069  0.3218
15664SOL    HW251840   4.592   8.119   0.597 -0.3009 -1.0725  1.8075
15665SOL     OW51841   5.563   6.386   1.205  0.2618 -0.0682  0.3151
15665SOL    HW151842   5.559   6.291   1.192 -0.7288 -0.1152  0.9422
15665SOL    HW251843   5.545   6.422   1.118  0.9143 -0.4518  0.0138
15666SOL     OW51844   4.235   8.106   9.757  0.3234 -0.5649 -0.1891
15666SOL    HW151845   4.299   8.051   9.803 -0.8608  0.1736  2.4135
15666SOL    HW251846   4.272   8.117   9.669  1.8350 -3.3738  0.0382
15667SOL     OW51847   7.510   6.758   2.170  0.0909  0.2916  0.0832
15667SOL    HW151848   7.469   6.841   2.194 -2.2593 -0.9985  0.8378
15667SOL    HW251849   7.542   6.723   2.253 -2.2509 -1.2009  0.4232
15668SOL     OW51850   4.445   9.421   0.249  0.1631  0.2694  0.0124
15668SOL    HW151851   4.372   9.468   0.209  0.9467  1.3565 -0.1832
15668SOL    HW251852   4.405   9.367   0.318 -0.5522  2.6737  1.5357
15669SOL     OW51853   2.765   8.955   0.836 -0.2256 -0.6864  0.2489
15669SOL    HW151854   2.746   9.034   0.784 -1.2456 -0.9572  0.2128
15669SOL    HW251855   2.683   8.934   0.880 -0.5175 -2.8121 -1.2006
15670SOL     OW51856   4.446   9.603   0.525  0.6235 -0.4595  0.0719
15670SOL    HW151857   4.459   9.681   0.578 -0.5021  0.4171 -0.9267
15670SOL    HW251858   4.402   9.634   0.446  2.0170 -1.7816 -1.2704
15671SOL     OW51859   3.200   9.130   0.373  0.0537  0.4890  0.0094
15671SOL    HW151860   3.194   9.064   0.443 -2.7572 -1.4549 -1.9411
15671SOL    HW251861   3.110   9.158   0.359  0.5885  1.0142 -2.6565
15672SOL     OW51862   4.315   6.456   2.395  0.0036 -0.5557 -0.1687
15672SOL    HW151863   4.256   6.400   2.446  0.5491 -1.2897 -0.3379
15672SOL    HW251864   4.339   6.526   2.455 -1.3583 -0.0212 -0.2184
15673SOL     OW51865   4.810   9.696   9.973  0.0966 -0.3993 -0.1941
15673SOL    HW151866   4.740   9.723   9.913  1.0920  0.3258 -1.0483
15673SOL    HW251867   4.857   9.628   9.926  0.0767 -0.7717  0.3164
15674SOL     OW51868   3.962   8.030   9.394 -0.5420  0.1496  0.6692
15674SOL    HW151869   3.957   8.074   9.479 -3.1392  2.9549 -0.8175
15674SOL    HW251870   3.872   8.027   9.363  0.1250 -2.5010 -1.2167
15675SOL     OW51871   4.577   9.476   1.197  0.5409  0.4511 -0.2778
15675SOL    HW151872   4.568   9.533   1.273 -0.1590  1.6813 -1.2635
15675SOL    HW251873   4.534   9.394   1.223 -0.1792  1.0590  0.4511
15676SOL     OW51874   5.884   9.482   8.954  0.2567  0.0427 -0.0560
15676SOL    HW151875   5.856   9.395   8.925  0.1612  1.0134 -3.1166
15676SOL    HW251876   5.802   9.531   8.961  0.4516  0.3818 -0.1506
15677SOL     OW51877   3.163   8.109   2.798  0.4908 -0.3307  0.0141
15677SOL    HW151878   3.172   8.197   2.761 -1.0977  0.3364  1.1982
15677SOL    HW251879   3.077   8.079   2.770  0.7171 -1.2344  0.2530
15678SOL     OW51880   4.593   8.462   0.242  0.0261  0.3766 -0.7488
15678SOL    HW151881   4.541   8.532   0.202  0.0817  1.4322  0.9673
15678SOL    HW251882   4.678   8.502   0.260  0.1568 -0.2115 -0.0198
15679SOL     OW51883   3.340   9.613   0.781 -0.5412 -0.4497 -0.1404
15679SOL    HW151884   3.348   9.686   0.720 -1.1226  1.7572  2.2819
15679SOL    HW251885   3.254   9.624   0.821  0.0888 -1.3959  1.5615
15680SOL     OW51886   3.837   8.415   2.238 -0.0029 -0.2113 -0.0287
15680SOL    HW151887   3.789   8.386   2.316 -0.7628 -0.4343 -0.5786
15680SOL    HW251888   3.776   8.403   2.166  0.9574 -0.7360 -0.7716
15681SOL     OW51889   4.216   8.460   0.661  0.0756 -0.2893  0.2053
15681SOL    HW151890   4.255   8.454   0.574  0.4573 -0.8864  0.4127
15681SOL    HW251891   4.222   8.553   0.684 -1.0190  0.0464 -0.8504
15682SOL     OW51892   3.704   9.372   1.554  0.7102 -0.2737 -0.4701
15682SOL    HW151893   3.616   9.408   1.555 -0.0063 -2.0334  0.5690
15682SOL    HW251894   3.700   9.298   1.495  1.5363 -0.2691 -0.5433
15683SOL     OW51895   5.692   8.462   0.683  0.8770 -0.7317 -0.4085
15683SOL    HW151896   5.718   8.374   0.657 -0.5191 -1.0785 -0.6645
15683SOL    HW251897   5.661   8.452   0.773 -1.9970 -1.0677 -1.3831
15684SOL     OW51898   4.597   8.415   9.931  0.1276 -0.0289  0.1829
15684SOL    HW151899   4.636   8.499   9.904  0.4636 -0.5376 -0.9516
15684SOL    HW251900   4.596   8.363   9.851  0.4543 -1.3229  1.0149
15685SOL     OW51901   3.898   8.382   1.786 -0.0153 -0.0464  0.6988
15685SOL    HW151902   3.916   8.291   1.764 -0.1722 -0.2142  1.2568
15685SOL    HW251903   3.948   8.433   1.722  0.9918 -0.5148  1.1036
15686SOL     OW51904   5.117   9.553   1.712 -0.0678 -0.6138 -0.6159
15686SOL    HW151905   5.160   9.570   1.628 -0.5393 -2.7921 -1.3336
15686SOL    HW251906   5.162   9.476   1.747 -0.6241 -0.4042  0.5939
15687SOL     OW51907   4.879   8.515   0.267  0.1194 -0.3882  0.3744
15687SOL    HW151908   4.921   8.569   0.334  2.0452 -0.7157 -0.5247
15687SOL    HW251909   4.887   8.426   0.300  0.8425 -0.5261 -0.1564
15688SOL     OW51910   4.751   8.900   0.966  0.3835  0.6828 -0.1743
15688SOL    HW151911   4.728   8.990   0.990  0.8130  0.7562 -0.0427
15688SOL    HW251912   4.838   8.886   1.004  1.2271  0.9015 -1.9739
15689SOL     OW51913   5.290   6.680   9.462  0.3194 -0.0871 -0.0214
15689SOL    HW151914   5.219   6.700   9.401  1.7586  2.1825 -1.0188
15689SOL    HW251915   5.262   6.599   9.506 -0.2578 -2.4806 -4.5009
15690SOL     OW51916   6.459   8.093   7.931  0.1663  0.5602  0.0100
15690SOL    HW151917   6.461   7.998   7.917  0.7922  0.5641  0.0754
15690SOL    HW251918   6.407   8.104   8.011  0.5290  0.2365  0.2949
15691SOL     OW51919   2.786   7.765   1.934  0.6476 -0.0339  0.4605
15691SOL    HW151920   2.739   7.836   1.889  2.9660  2.0190  1.1512
15691SOL    HW251921   2.754   7.685   1.893 -1.1569  1.4839 -1.1954
15692SOL     OW51922   3.680   7.958   0.240 -0.3709  0.1631  0.2162
15692SOL    HW151923   3.765   7.994   0.265 -0.2015 -0.0865  0.0062
15692SOL    HW251924   3.654   7.904   0.314 -0.0409 -0.2794  0.0141
15693SOL     OW51925   4.025   8.567   0.200 -0.8760 -0.2965 -0.0333
15693SOL    HW151926   4.068   8.608   0.124  1.1195 -0.7618  0.8045
15693SOL    HW251927   3.968   8.635   0.235  1.1578  1.2767  0.3617
15694SOL     OW51928   5.483   9.855   0.599 -0.4167  0.4349  0.3124
15694SOL    HW151929   5.565   9.904   0.587  0.0074  0.1873  2.0022
15694SOL    HW251930   5.494   9.777   0.545  0.4376  0.4532  0.4409
15695SOL     OW51931   4.533   8.451   9.574  0.3109 -0.5886 -0.3406
15695SOL    HW151932   4.603   8.513   9.593 -0.1909  0.0185 -0.4388
15695SOL    HW251933   4.568   8.395   9.505  0.7324 -0.3465 -0.3221
15696SOL     OW51934   3.186   7.914   9.698 -0.5562  0.1521  0.7488
15696SOL    HW151935   3.212   7.892   9.787  1.4465  0.3167  0.2308
15696SOL    HW251936   3.259   7.885   9.643 -1.0664  1.4536 -0.6827
15697SOL     OW51937   3.824   7.984   1.393 -0.2325  0.1148  0.3490
15697SOL    HW151938   3.836   8.038   1.315  1.0265  1.0090  1.1478
15697SOL    HW251939   3.730   7.988   1.411 -0.0138  2.9343  1.0362
15698SOL     OW51940   3.783   4.577   2.835 -0.2579  0.4911 -0.0846
15698SOL    HW151941   3.716   4.645   2.827 -1.1115 -0.3606 -0.2752
15698SOL    HW251942   3.851   4.602   2.771 -0.6603  1.0450 -0.3003
15699SOL     OW51943   4.201   6.608   1.788 -0.0485 -0.0033 -0.3963
15699SOL    HW151944   4.250   6.616   1.706  1.0589  0.7536  0.3413
15699SOL    HW251945   4.187   6.513   1.797  0.6723 -0.1723 -0.9554
15700SOL     OW51946   5.451   7.059   2.288 -0.0820 -0.1324 -0.0850
15700SOL    HW151947   5.398   6.983   2.313 -1.1723  0.5117 -0.4271
15700SOL    HW251948   5.460   7.110   2.369 -1.8163  0.8650 -0.5130
15701SOL     OW51949   4.757   9.434   2.925 -0.0517 -0.0005 -0.2634
15701SOL    HW151950   4.721   9.519   2.901 -0.7848 -0.1072  0.4039
15701SOL    HW251951   4.791   9.446   3.014  1.8350  0.1640 -0.9879
15702SOL     OW51952   6.116   7.325   0.158  0.0669  0.1325  0.0590
15702SOL    HW151953   6.090   7.242   0.197  0.9507  1.0591  2.6921
15702SOL    HW251954   6.211   7.331   0.174  0.1045  1.4095 -0.5672
15703SOL     OW51955   4.682   0.222   1.795  0.4837  0.5047  0.4341
15703SOL    HW151956   4.620   0.242   1.866 -0.3904 -0.0823 -0.1489
15703SOL    HW251957   4.726   0.305   1.778  0.6305  0.6809  1.5871
15704SOL     OW51958   3.897   7.758   1.287  0.3036 -0.3949  0.1920
15704SOL    HW151959   3.874   7.831   1.344 -0.4442 -0.4720 -0.0147
15704SOL    HW251960   3.863   7.782   1.202 -1.3284 -1.6841  0.4606
15705SOL     OW51961   5.695   9.117   0.004 -0.3194  0.5469 -0.0086
15705SOL    HW151962   5.765   9.056   0.027 -0.0856  1.2541  1.2233
15705SOL    HW251963   5.732   9.203   0.021 -1.1084  0.9697 -0.4192
15706SOL     OW51964   4.962   8.835   0.678 -0.0505  0.5425  0.0041
15706SOL    HW151965   5.052   8.802   0.687  0.4856  0.5089 -4.4528
15706SOL    HW251966   4.968   8.927   0.702  1.0171  0.3481  0.5261
15707SOL     OW51967   4.196   7.764   1.244 -0.2694 -0.2392  0.3441
15707SOL    HW151968   4.199   7.690   1.182  0.0906  0.0145  0.0558
15707SOL    HW251969   4.114   7.752   1.292 -1.3841  0.4911 -1.3337
15708SOL     OW51970   4.107   9.784   0.501 -0.1228  0.2244 -0.2848
15708SOL    HW151971   4.156   9.728   0.442  0.5079 -0.6863  1.0811
15708SOL    HW251972   4.036   9.730   0.534  0.9642 -0.0789  1.6710
15709SOL     OW51973   4.445   8.701   0.083 -0.9741 -0.2454 -0.0741
15709SOL    HW151974   4.496   8.663   0.012 -0.2609 -1.5822  1.1248
15709SOL    HW251975   4.393   8.770   0.041  0.2899 -0.2304 -1.6693
15710SOL     OW51976   3.811   6.025   3.068 -0.0654  0.5147 -0.5414
15710SOL    HW151977   3.811   5.952   3.006 -1.2503 -0.1152  0.1974
15710SOL    HW251978   3.747   6.087   3.032 -1.0151 -0.0108  0.2352
15711SOL     OW51979   3.934   9.532   2.957 -0.4407  0.1183 -0.1253
15711SOL    HW151980   3.869   9.463   2.944 -0.7995  0.9317 -3.1279
15711SOL    HW251981   3.898   9.587   3.027 -0.8417 -1.8652  1.2667
15712SOL     OW51982   4.892   7.537   9.488 -0.2095  0.0977 -0.2174
15712SOL    HW151983   4.819   7.593   9.514 -1.1747 -2.5480  3.2116
15712SOL    HW251984   4.961   7.557   9.551 -0.2364 -1.7951  0.4570
15713SOL     OW51985   2.731   9.131   1.170  0.0946 -0.2404  0.4877
15713SOL    HW151986   2.654   9.082   1.198  2.1822 -2.3356  2.8120
15713SOL    HW251987   2.795   9.064   1.147  1.1803  1.4580 -1.6190
15714SOL     OW51988   5.159   8.341   1.030 -0.0675 -0.4172  0.0988
15714SOL    HW151989   5.113   8.286   0.967  0.1356 -0.7050  0.2017
15714SOL    HW251990   5.094   8.361   1.097 -0.4827  0.4546 -0.5450
15715SOL     OW51991   2.757   9.943   0.434 -0.1807  0.1266 -0.6054
15715SOL    HW151992   2.717   9.987   0.509 -0.5018  1.8475 -1.7442
15715SOL    HW251993   2.699   9.964   0.361  0.2324 -1.3612 -1.3718
15716SOL     OW51994   4.186   6.265   9.524  0.5176 -0.1440  0.7305
15716SOL    HW151995   4.137   6.345   9.506 -0.6597 -0.9160  0.4932
15716SOL    HW251996   4.170   6.246   9.616  2.9430  1.3294  1.5198
15717SOL     OW51997   4.305   7.537   2.179 -0.0398  0.0876  0.2255
15717SOL    HW151998   4.355   7.487   2.243 -1.4984 -1.4424  0.2069
15717SOL    HW251999   4.234   7.577   2.230  0.8515  1.7895  0.1592
15718SOL     OW52000   3.578   9.143   0.334 -0.5022 -0.0451 -0.2318
15718SOL    HW152001   3.534   9.121   0.416 -1.8271  1.4422 -0.5288
15718SOL    HW252002   3.662   9.181   0.361 -0.4326 -0.6207  0.3815
15719SOL     OW52003   4.545   6.830   0.902 -0.4732  0.0967  0.1927
15719SOL    HW152004   4.611   6.866   0.843 -0.6653 -1.1693 -0.8248
15719SOL    HW252005   4.480   6.789   0.845 -2.3749  1.6617  1.1699
15720SOL     OW52006   5.458   7.280   0.156 -0.0827 -0.3820  0.4171
15720SOL    HW152007   5.538   7.228   0.163 -0.5709 -0.9283  2.4581
15720SOL    HW252008   5.488   7.371   0.160  0.3026 -0.5827  3.8628
15721SOL     OW52009   3.772   9.914   0.448 -0.3419 -0.4055 -0.1720
15721SOL    HW152010   3.777   9.891   0.540 -3.8699  2.7707  0.9428
15721SOL    HW252011   3.856   9.956   0.429 -0.1900  0.3856  2.0768
15722SOL     OW52012   2.611   7.429   2.016 -0.3060  0.2549 -0.9594
15722SOL    HW152013   2.521   7.399   2.022 -0.4111  0.6841 -0.3575
15722SOL    HW252014   2.626   7.477   2.098  0.6683 -0.3823 -0.7530
15723SOL     OW52015   3.894   8.872   0.777  0.5254 -0.5427  0.0428
15723SOL    HW152016   3.941   8.900   0.698  0.5334  0.7907  0.5184
15723SOL    HW252017   3.944   8.797   0.809 -0.2290 -1.9588 -1.9573
15724SOL     OW52018   4.862   7.706   4.316  0.7270 -0.1729 -0.1377
15724SOL    HW152019   4.832   7.794   4.295  0.5361 -0.2758 -0.2943
15724SOL    HW252020   4.857   7.701   4.412  1.3210  0.1945 -0.0842
15725SOL     OW52021   5.210   6.303   1.790  0.0401 -0.3656  0.8191
15725SOL    HW152022   5.262   6.301   1.709 -1.3409 -2.3935 -0.0636
15725SOL    HW252023   5.131   6.351   1.766 -0.3345 -0.8978  0.9858
15726SOL     OW52024   5.316   7.933   1.175  0.0233 -0.3745  0.4706
15726SOL    HW152025   5.322   8.029   1.172 -0.8018 -0.2546  2.0508
15726SOL    HW252026   5.377   7.903   1.107  1.0314  1.2522  0.6209
15727SOL     OW52027   4.421   8.445   1.418  0.4283 -0.2295  0.5883
15727SOL    HW152028   4.411   8.466   1.325 -3.0604 -1.9715  0.4773
15727SOL    HW252029   4.446   8.353   1.419 -0.6134 -0.5054  1.4104
15728SOL     OW52030   2.894   8.344   2.822 -0.6018 -1.0728  0.0778
15728SOL    HW152031   2.805   8.378   2.813 -0.0934  0.7594  1.5017
15728SOL    HW252032   2.939   8.371   2.742 -0.5502  0.6240  0.6462
15729SOL     OW52033   3.315   7.265   1.949 -0.3162  0.0377 -0.2546
15729SOL    HW152034   3.342   7.327   1.882 -0.0556  0.5373  0.3068
15729SOL    HW252035   3.396   7.222   1.977 -0.5348 -0.7958 -0.8697
15730SOL     OW52036   4.842   8.206   2.514  0.4005  0.4351 -0.3775
15730SOL    HW152037   4.890   8.282   2.548  0.8359  0.3429 -0.7785
15730SOL    HW252038   4.880   8.131   2.561  3.0951 -0.0564 -3.1366
15731SOL     OW52039   4.384   9.128   0.443  0.1250 -0.1547  0.1080
15731SOL    HW152040   4.413   9.047   0.483  0.9343  0.1959  0.2417
15731SOL    HW252041   4.367   9.187   0.517 -0.6404 -0.2610  0.0204
15732SOL     OW52042   4.025   7.156   0.590 -0.6438 -0.0494 -0.1004
15732SOL    HW152043   4.118   7.167   0.569 -0.3477 -0.5629  0.8856
15732SOL    HW252044   4.011   7.062   0.583 -1.6598  0.2333 -2.4709
15733SOL     OW52045   5.538   0.411   0.066  0.2638 -0.3269  0.0021
15733SOL    HW152046   5.448   0.427   0.036  1.3276  1.8681 -2.1641
15733SOL    HW252047   5.568   0.337   0.013 -0.5859 -1.8074  1.5176
15734SOL     OW52048   4.924   8.411   1.807 -0.4676  0.1388 -0.2548
15734SOL    HW152049   4.978   8.462   1.747 -1.3895  0.6884 -0.6285
15734SOL    HW252050   4.871   8.476   1.853 -1.0777 -0.4218 -0.1550
15735SOL     OW52051   4.954   7.167   9.801  0.1937  0.1405 -0.1212
15735SOL    HW152052   4.881   7.106   9.815  2.2907 -2.6723 -0.8884
15735SOL    HW252053   4.950   7.187   9.708 -0.5350  1.2531  0.1452
15736SOL     OW52054   4.221   7.355   9.776 -0.0304 -0.1545  0.3145
15736SOL    HW152055   4.285   7.413   9.818 -0.8299  0.2546  0.9931
15736SOL    HW252056   4.144   7.410   9.764 -0.5769 -0.9076  0.3567
15737SOL     OW52057   3.006   5.830   3.552  0.4694 -0.1291  0.5324
15737SOL    HW152058   2.924   5.860   3.592  0.0424  0.2089 -0.5993
15737SOL    HW252059   2.979   5.766   3.487  1.0996  0.1174  0.0298
15738SOL     OW52060   4.367   8.223   2.911  0.3561 -0.1552 -0.0871
15738SOL    HW152061   4.382   8.235   2.817 -0.3027  1.1656 -0.0427
15738SOL    HW252062   4.388   8.308   2.950 -1.8365  0.1001  0.6290
15739SOL     OW52063   4.046   9.880   0.221  0.1547  0.3385 -0.2752
15739SOL    HW152064   3.977   9.946   0.216 -0.7007 -0.4096  1.2837
15739SOL    HW252065   4.100   9.907   0.296 -1.4705 -1.8634  1.7806
15740SOL     OW52066   2.310   8.798   1.713  0.3632  0.4022  0.6880
15740SOL    HW152067   2.367   8.755   1.649  0.7176  2.3136 -0.2995
15740SOL    HW252068   2.366   8.864   1.754 -0.2222  0.0519  2.0912
15741SOL     OW52069   3.962   0.865   0.909 -0.0463 -0.6403  0.2087
15741SOL    HW152070   3.887   0.807   0.924  0.3380 -0.6321  2.3067
15741SOL    HW252071   3.929   0.931   0.848 -2.6319  0.9571  3.1655
15742SOL     OW52072   4.725   9.553   0.588  0.9225  0.2933 -0.2057
15742SOL    HW152073   4.746   9.490   0.520  0.6083  0.0489 -0.0767
15742SOL    HW252074   4.644   9.595   0.559  1.2154  0.7576 -0.3724
15743SOL     OW52075   3.754   8.486   0.039 -0.1407  0.8444 -0.4916
15743SOL    HW152076   3.753   8.569   0.086 -0.1777 -0.1414  1.3134
15743SOL    HW252077   3.832   8.490  -0.015 -1.7674  3.2967 -2.7827
15744SOL     OW52078   4.218   8.529   2.775  0.1006 -0.6115  0.2762
15744SOL    HW152079   4.313   8.537   2.776  0.0833 -0.2602  2.0491
15744SOL    HW252080   4.194   8.523   2.868 -1.7401  1.2062 -0.0403
15745SOL     OW52081   2.714   6.821   2.287  0.4677 -0.2974  0.0761
15745SOL    HW152082   2.804   6.814   2.318  0.5065 -2.6891 -0.4721
15745SOL    HW252083   2.721   6.857   2.198  0.7713  0.6514  0.4738
15746SOL     OW52084   6.276   9.109   2.277  0.2620  0.7355 -0.7890
15746SOL    HW152085   6.186   9.138   2.259 -1.0143 -2.4259  0.1774
15746SOL    HW252086   6.284   9.026   2.230  1.4983 -0.7385  1.9039
15747SOL     OW52087   3.973   7.731   2.575 -0.1340  0.6571 -0.2132
15747SOL    HW152088   3.932   7.684   2.647  1.4043 -0.1126  0.1733
15747SOL    HW252089   4.043   7.782   2.616  0.1676  0.9230 -1.0383
15748SOL     OW52090   4.802   8.988   1.439  0.3561  0.0449 -0.3061
15748SOL    HW152091   4.728   8.979   1.380 -0.4420  2.1973  0.3494
15748SOL    HW252092   4.835   9.077   1.424 -0.1136  0.7915  2.7280
15749SOL     OW52093   4.385   9.083   2.122  0.0114 -0.9031 -1.2448
15749SOL    HW152094   4.477   9.108   2.113 -0.1642 -0.3477 -1.5091
15749SOL    HW252095   4.356   9.065   2.032  0.7094 -4.1486 -0.8979
15750SOL     OW52096   5.836   0.481   1.654  0.1061  0.1750  0.5406
15750SOL    HW152097   5.764   0.536   1.624  0.0692  0.5866  1.3837
15750SOL    HW252098   5.827   0.401   1.602  1.9914  2.0873 -2.9077
15751SOL     OW52099   5.902   8.621   0.603  0.1241 -0.1586  0.2533
15751SOL    HW152100   5.967   8.638   0.670  1.6175  1.2583 -1.5114
15751SOL    HW252101   5.849   8.549   0.638  1.8772 -0.5237  2.2090
15752SOL     OW52102   5.759   0.963   1.746 -0.0123 -0.3115 -0.1396
15752SOL    HW152103   5.691   0.980   1.681 -0.6575 -1.0749  0.3175
15752SOL    HW252104   5.838   0.949   1.695 -0.3081  0.0632 -0.7086
15753SOL     OW52105   5.104   9.275   1.035 -0.3504  0.5396 -0.3055
15753SOL    HW152106   5.023   9.322   1.056 -0.6825  0.7253 -1.9471
15753SOL    HW252107   5.077   9.206   0.975  0.3461 -0.9653  1.0627
15754SOL     OW52108   2.851   9.893   1.128 -0.4991 -0.0704  0.8224
15754SOL    HW152109   2.908   9.954   1.176 -0.8748  0.3195  0.7755
15754SOL    HW252110   2.774   9.945   1.105 -0.1991 -0.1697 -0.4604
15755SOL     OW52111   4.182   9.602   1.915  0.2196 -0.6127  0.3191
15755SOL    HW152112   4.190   9.581   1.822 -0.5228 -0.1259  0.1345
15755SOL    HW252113   4.163   9.518   1.957  0.0630 -0.7563 -0.0341
15756SOL     OW52114   5.582   8.629   0.080  0.7792  0.1305 -0.2047
15756SOL    HW152115   5.510   8.685   0.054  1.6954  1.1453 -0.5893
15756SOL    HW252116   5.604   8.579   0.002  1.5969  1.0514 -0.5760
15757SOL     OW52117   4.008   8.320   2.032 -0.3037 -0.5685 -0.2619
15757SOL    HW152118   3.974   8.352   1.948 -0.4503  0.4809  0.1870
15757SOL    HW252119   3.940   8.343   2.096 -0.1678 -1.3093  0.1592
15758SOL     OW52120   4.256   8.218   1.210 -0.4746 -0.3670  0.0174
15758SOL    HW152121   4.202   8.282   1.257  0.2368 -1.2746  2.1300
15758SOL    HW252122   4.298   8.269   1.141 -0.0848  1.4182  1.5263
15759SOL     OW52123   3.462   9.821   0.537  0.3812  0.1126 -0.2344
15759SOL    HW152124   3.520   9.845   0.465  1.5756 -1.8102  0.0463
15759SOL    HW252125   3.416   9.743   0.506  0.2341 -0.2000  0.7399
15760SOL     OW52126   4.004   9.600   9.931 -0.2646  0.5029  0.1399
15760SOL    HW152127   4.041   9.681   9.963 -1.0285  0.5868  0.8279
15760SOL    HW252128   4.038   9.591   9.842  2.9129 -0.3859  1.3746
15761SOL     OW52129   3.369   8.730   1.484 -0.0063  0.3392 -0.2680
15761SOL    HW152130   3.399   8.648   1.522  0.5222  0.3254 -0.7079
15761SOL    HW252131   3.289   8.706   1.436 -0.7454  0.3838  0.9178
15762SOL     OW52132   5.670   9.165   0.361 -0.1262 -0.1747 -0.0267
15762SOL    HW152133   5.580   9.142   0.338  0.0969  0.0410 -1.1344
15762SOL    HW252134   5.661   9.224   0.436 -0.9129 -0.0778 -0.1941
15763SOL     OW52135   3.229   7.833   1.271 -0.1455  0.4518  0.0868
15763SOL    HW152136   3.223   7.927   1.289 -1.1798  0.4290 -0.1311
15763SOL    HW252137   3.297   7.826   1.204 -3.0717  1.5134 -3.1448
15764SOL     OW52138   5.545   9.279   9.142  0.0554  0.3367  0.2822
15764SOL    HW152139   5.627   9.282   9.191  0.1687 -2.3191  0.3289
15764SOL    HW252140   5.568   9.239   9.059 -0.9480  0.8149 -0.2353
15765SOL     OW52141   4.946   9.512   2.169 -0.2310 -0.0119 -0.4464
15765SOL    HW152142   4.966   9.549   2.255  2.2810 -0.9011 -0.6210
15765SOL    HW252143   4.854   9.484   2.177 -0.5424  1.3721  1.3944
15766SOL     OW52144   4.341   8.663   9.432  0.2254  0.4088  0.1099
15766SOL    HW152145   4.364   8.740   9.483  2.4917  0.0256 -0.2598
15766SOL    HW252146   4.343   8.591   9.495  0.4068  0.3242  0.0085
15767SOL     OW52147   4.783   0.449   0.308 -0.0907  0.3912  1.0268
15767SOL    HW152148   4.731   0.519   0.347 -2.5859 -1.3213  0.9157
15767SOL    HW252149   4.837   0.416   0.379 -0.8575  0.6801  1.7451
15768SOL     OW52150   5.714   9.707   0.865 -0.0826  0.0131  0.5576
15768SOL    HW152151   5.651   9.776   0.846  0.3873 -0.1998 -1.9030
15768SOL    HW252152   5.799   9.745   0.841  0.2463 -1.1749 -0.2305
15769SOL     OW52153   3.816   6.476   0.808  0.4342  0.5140  0.4641
15769SOL    HW152154   3.800   6.569   0.793  0.5532  0.5302  0.4358
15769SOL    HW252155   3.731   6.434   0.795  0.3425  0.6409  0.6468
15770SOL     OW52156   3.662   8.359   0.453 -0.2499  0.0323 -0.0081
15770SOL    HW152157   3.609   8.279   0.456  0.1893 -0.2379  0.5110
15770SOL    HW252158   3.727   8.342   0.384  0.3142 -0.3523  0.6142
15771SOL     OW52159   5.515   9.440   9.681  0.4711 -0.0648  0.2504
15771SOL    HW152160   5.566   9.487   9.747 -1.1291 -0.3981  1.7775
15771SOL    HW252161   5.440   9.497   9.663 -0.9813 -1.5475  1.4130
15772SOL     OW52162   5.963   8.320   1.027  0.2012 -0.2227  0.0088
15772SOL    HW152163   5.901   8.356   0.964 -0.3770 -1.7567 -0.3142
15772SOL    HW252164   5.997   8.397   1.074  0.1800  0.8764 -1.7377
15773SOL     OW52165   3.629   8.656   1.216  0.5840 -0.0408 -0.3940
15773SOL    HW152166   3.705   8.607   1.185  0.8444 -0.1244  0.3768
15773SOL    HW252167   3.656   8.692   1.300  0.1537  0.8494 -0.6307
15774SOL     OW52168   2.866   8.432   1.245  0.1652  0.4705 -0.4343
15774SOL    HW152169   2.933   8.368   1.219 -0.4916  0.0594 -1.1284
15774SOL    HW252170   2.913   8.516   1.243  0.2571  0.3975 -2.5648
15775SOL     OW52171   3.924   8.510   2.692  0.1151  0.2732  0.2026
15775SOL    HW152172   4.018   8.509   2.709  0.3869 -0.7478 -1.2403
15775SOL    HW252173   3.883   8.507   2.779  1.4086  0.3197  0.8158
15776SOL     OW52174   2.870   8.235   9.124 -0.4660  0.0429  0.4649
15776SOL    HW152175   2.826   8.187   9.194 -0.9055 -0.4467 -0.1301
15776SOL    HW252176   2.933   8.291   9.168 -1.8819  0.9579  1.3529
15777SOL     OW52177   3.383   7.613   0.127  0.1786  0.1833  0.1929
15777SOL    HW152178   3.332   7.688   0.158  0.1945  0.7440 -1.1248
15777SOL    HW252179   3.392   7.627   0.033  0.2764 -1.4266 -0.0431
15778SOL     OW52180   3.492   8.271   1.841  0.3250 -0.4201 -0.2809
15778SOL    HW152181   3.546   8.194   1.822  1.1249  0.1964 -0.5633
15778SOL    HW252182   3.437   8.244   1.914  1.4422 -0.8736  0.4036
15779SOL     OW52183   6.090   9.665   9.866 -0.3094 -0.0481 -0.3430
15779SOL    HW152184   6.056   9.641   9.952 -1.4850  0.8211 -0.5469
15779SOL    HW252185   6.030   9.624   9.804 -1.1581  1.6898 -0.7048
15780SOL     OW52186   5.686   9.646   9.797 -0.1129 -0.0179  0.9808
15780SOL    HW152187   5.667   9.705   9.723  0.1016 -1.1206  0.0270
15780SOL    HW252188   5.663   9.697   9.874  0.7294  1.5841  0.2136
15781SOL     OW52189   4.932   7.665   1.668 -0.5032  0.2022  0.5372
15781SOL    HW152190   4.966   7.635   1.584 -0.7625  0.1954  0.4338
15781SOL    HW252191   4.973   7.750   1.682 -0.3455  0.1359  0.4738
15782SOL     OW52192   5.256   9.209   1.260  0.6958  0.1171  0.5909
15782SOL    HW152193   5.222   9.136   1.311  0.8517  0.2086  0.8265
15782SOL    HW252194   5.266   9.174   1.172  1.3349 -0.3124  0.8346
15783SOL     OW52195   6.314   7.219   0.507  0.0857  0.4578 -0.2926
15783SOL    HW152196   6.315   7.248   0.415  2.2895  0.5520 -0.2647
15783SOL    HW252197   6.403   7.188   0.523 -0.5280 -0.4078  1.5687
15784SOL     OW52198   2.681   6.054   8.942 -0.4599 -0.3060  0.1218
15784SOL    HW152199   2.585   6.050   8.940 -0.5683  0.4255  2.3337
15784SOL    HW252200   2.704   6.042   9.034  1.5227  0.6517 -0.2109
15785SOL     OW52201   3.095   8.650   0.275 -0.0626 -0.2945 -0.0807
15785SOL    HW152202   3.011   8.655   0.320  0.1009 -1.6834  0.3989
15785SOL    HW252203   3.100   8.731   0.224 -1.1590  0.3389  0.8006
15786SOL     OW52204   5.976   9.154   1.908 -0.4129  0.0992 -0.4787
15786SOL    HW152205   5.919   9.191   1.841 -1.3880 -0.2715  0.1436
15786SOL    HW252206   6.060   9.198   1.894 -0.6499  0.1415 -1.8355
15787SOL     OW52207   4.136   8.664   1.341 -0.0906  0.2384  0.4970
15787SOL    HW152208   4.111   8.738   1.397  3.2958  1.6375  0.2746
15787SOL    HW252209   4.132   8.699   1.252 -0.1957 -0.3801  0.2571
15788SOL     OW52210   6.509   9.057   8.602  0.0561  0.0610  0.0669
15788SOL    HW152211   6.534   9.121   8.535  0.2964 -1.4037 -1.2579
15788SOL    HW252212   6.557   9.085   8.680  0.2966  1.3935 -0.5376
15789SOL     OW52213   3.798   9.340   0.670 -0.2285 -0.0992 -0.5194
15789SOL    HW152214   3.875   9.316   0.722 -0.1139  0.6661 -0.3238
15789SOL    HW252215   3.723   9.317   0.725 -0.1008  1.3394  0.2884
15790SOL     OW52216   4.812   7.434   0.290 -0.1786  0.0315  0.7912
15790SOL    HW152217   4.747   7.365   0.298 -0.3639  0.2072  0.8079
15790SOL    HW252218   4.838   7.431   0.198  0.0124 -0.2389  0.8547
15791SOL     OW52219   3.754   9.959   8.204 -0.3442  0.4659 -0.3656
15791SOL    HW152220   3.834   9.960   8.152 -0.8440 -0.0976 -1.1607
15791SOL    HW252221   3.694  10.018   8.158 -0.7330  0.0881 -0.3484
15792SOL     OW52222   5.190   8.904   0.474  0.2437 -0.0483  0.2855
15792SOL    HW152223   5.229   8.892   0.560  0.5652  1.5553  0.3802
15792SOL    HW252224   5.111   8.956   0.490 -0.6453 -1.2119 -0.1990
15793SOL     OW52225   4.269   8.552   1.603 -0.5853 -0.0593 -0.0175
15793SOL    HW152226   4.230   8.638   1.588 -1.3728 -0.5298 -0.6780
15793SOL    HW252227   4.314   8.532   1.521  1.3677  0.6262  0.8470
15794SOL     OW52228   4.498   8.161   1.447 -0.7957  0.4744 -1.0222
15794SOL    HW152229   4.554   8.087   1.473 -0.7955  1.5313  2.1522
15794SOL    HW252230   4.411   8.137   1.478 -1.1388  1.0681 -1.5141
15795SOL     OW52231   7.105   8.505   1.515  0.4546  0.2467 -0.1668
15795SOL    HW152232   7.057   8.542   1.441 -1.1008 -0.8757  0.2691
15795SOL    HW252233   7.195   8.497   1.483 -0.5302 -1.9135 -2.5747
15796SOL     OW52234   3.545   8.196   0.125 -0.3142 -0.6847 -0.3511
15796SOL    HW152235   3.466   8.143   0.135  0.0159 -1.0454  0.3475
15796SOL    HW252236   3.611   8.152   0.178  0.0435  0.2648  0.0031
15797SOL     OW52237   4.613   0.054   0.193  0.6579  0.2022 -0.0325
15797SOL    HW152238   4.668   0.088   0.264 -1.0891  0.6327  1.1588
15797SOL    HW252239   4.576  -0.027   0.229  0.2711  0.0843 -0.6997
15798SOL     OW52240   2.885   8.920   1.088  0.2603 -0.0449 -0.1243
15798SOL    HW152241   2.839   8.889   1.010 -0.5176 -0.0769  0.3317
15798SOL    HW252242   2.894   8.842   1.143  0.9895 -0.0672 -0.2673
15799SOL     OW52243   4.888   8.673   9.438  0.1567 -0.1443 -0.2298
15799SOL    HW152244   4.948   8.667   9.364  0.9985  0.1106  0.4261
15799SOL    HW252245   4.825   8.602   9.424  2.2430 -2.1803  0.5237
15800SOL     OW52246   5.508   8.985   0.154 -0.1236  0.2867  0.3421
15800SOL    HW152247   5.455   9.057   0.188  0.5719 -0.4912  3.2449
15800SOL    HW252248   5.568   9.026   0.092 -0.9593  1.9064  0.5692
15801SOL     OW52249   3.420   6.934   0.895 -0.5519 -0.0772 -0.5141
15801SOL    HW152250   3.365   6.911   0.820 -3.6847  1.1671  1.2815
15801SOL    HW252251   3.435   7.028   0.886 -1.5680  0.2259  0.7627
15802SOL     OW52252   4.459   8.906   1.011 -0.9992  0.4799 -0.1318
15802SOL    HW152253   4.539   8.957   1.000 -1.5222  1.2774 -0.2594
15802SOL    HW252254   4.388   8.969   1.000 -1.6391 -0.0691  0.7262
15803SOL     OW52255   3.086   9.298   2.739  0.2679 -0.2564  0.2926
15803SOL    HW152256   3.129   9.216   2.714  0.5911 -0.8103  2.5178
15803SOL    HW252257   3.137   9.366   2.696  1.7384 -1.0721  0.6971
15804SOL     OW52258   5.823   6.981   0.362 -0.5614 -0.2237  0.1197
15804SOL    HW152259   5.887   7.028   0.416  0.7496 -0.8533 -0.8456
15804SOL    HW252260   5.872   6.957   0.283 -1.3999 -2.5498  0.2656
15805SOL     OW52261   3.772   7.994   9.646  0.5273  0.5275 -0.4955
15805SOL    HW152262   3.839   8.058   9.672  2.3422 -2.0532  1.3872
15805SOL    HW252263   3.714   7.988   9.722  1.4085 -1.3850  0.0310
15806SOL     OW52264   6.720   5.683   0.713  0.3772 -0.8588  0.0932
15806SOL    HW152265   6.674   5.640   0.785  0.2420 -0.4685  0.2391
15806SOL    HW252266   6.669   5.660   0.635 -1.0227  0.9456  0.4671
15807SOL     OW52267   4.657   9.676   9.742 -0.5123 -0.5912 -0.2314
15807SOL    HW152268   4.700   9.608   9.691 -0.2391  2.0134 -3.6326
15807SOL    HW252269   4.579   9.698   9.692 -0.1340  2.1649  0.2905
15808SOL     OW52270   5.592   9.781   0.045 -0.7356  0.2788  0.4289
15808SOL    HW152271   5.622   9.866   0.077  1.4992 -0.8103  1.2963
15808SOL    HW252272   5.632   9.717   0.104 -0.3663 -1.5198 -1.6820
15809SOL     OW52273   2.986   8.207   2.403 -0.3976 -0.3828  0.1994
15809SOL    HW152274   2.990   8.266   2.328  1.3039  0.6913  1.0867
15809SOL    HW252275   2.954   8.124   2.367 -1.2149  0.5956 -1.3748
15810SOL     OW52276   3.135   7.178   3.192  0.1772 -0.1583  0.7419
15810SOL    HW152277   3.167   7.110   3.134  0.0775  0.1261  0.3499
15810SOL    HW252278   3.214   7.209   3.238 -0.0268 -1.6616  2.1299
15811SOL     OW52279   3.936   7.565   3.479 -0.3484 -0.1783 -0.4551
15811SOL    HW152280   3.916   7.502   3.549 -0.9737 -2.9048 -2.9575
15811SOL    HW252281   3.851   7.604   3.457 -0.1898  0.5015  0.1100
15812SOL     OW52282   3.489   0.023   2.451 -0.3664 -0.2891  0.2099
15812SOL    HW152283   3.476  -0.058   2.402  2.6336 -0.2759 -0.7108
15812SOL    HW252284   3.496  -0.004   2.542  0.1876 -1.0237 -0.0502
15813SOL     OW52285   5.110   0.740   3.444 -0.0086  0.4082  0.2623
15813SOL    HW152286   5.051   0.722   3.518  1.5403  1.3596  1.7567
15813SOL    HW252287   5.061   0.800   3.389 -0.9509  0.1608  0.8137
15814SOL     OW52288   6.006   7.220   3.922  0.1052  0.1307  0.1286
15814SOL    HW152289   6.093   7.195   3.893  0.1162 -1.0474  1.1426
15814SOL    HW252290   6.015   7.237   4.016 -1.1646 -2.1692  0.7219
15815SOL     OW52291   5.857   9.933   2.898 -0.5730  0.4819 -0.1727
15815SOL    HW152292   5.922   9.947   2.828  0.1817 -0.8640  0.2384
15815SOL    HW252293   5.877   9.846   2.932 -1.4525  0.7957  1.1873
15816SOL     OW52294   3.796   8.011   2.137 -0.3817 -0.4414 -0.4144
15816SOL    HW152295   3.845   8.086   2.104 -0.4239 -0.6267 -0.8896
15816SOL    HW252296   3.724   8.050   2.188 -0.9401 -0.1525 -1.4215
15817SOL     OW52297   4.565   7.062   3.453 -0.1559 -0.2656  0.6251
15817SOL    HW152298   4.520   7.133   3.499 -0.3046  0.2929 -0.3448
15817SOL    HW252299   4.623   7.107   3.391  0.5200 -0.9916  0.7133
15818SOL     OW52300   3.908   9.229   4.234 -0.3551 -0.2115 -0.2015
15818SOL    HW152301   3.959   9.294   4.282  0.4801 -0.1135 -1.2009
15818SOL    HW252302   3.817   9.257   4.244  0.0239  1.2980 -0.8898
15819SOL     OW52303   6.136   8.328   2.767 -0.4031 -0.3187  0.0640
15819SOL    HW152304   6.139   8.233   2.766 -0.3023 -0.3323  1.1840
15819SOL    HW252305   6.073   8.351   2.698  0.4799 -1.1407 -1.0250
15820SOL     OW52306   4.656   7.566   2.326 -0.5526  0.0587 -0.4964
15820SOL    HW152307   4.651   7.650   2.280  0.0578 -0.1790 -0.9947
15820SOL    HW252308   4.565   7.546   2.349 -0.7147  0.7852 -0.5078
15821SOL     OW52309   6.672   8.869   1.969 -0.3007  0.9585 -0.2757
15821SOL    HW152310   6.694   8.860   1.877  0.8740 -0.9432  0.1608
15821SOL    HW252311   6.757   8.877   2.013 -0.8190  1.1014  0.7131
15822SOL     OW52312   5.427   7.390   3.181  0.0481 -0.0273 -0.1654
15822SOL    HW152313   5.483   7.374   3.257 -0.2845  0.3908  0.1680
15822SOL    HW252314   5.354   7.441   3.215 -0.1189  0.1351 -0.7619
15823SOL     OW52315   7.065   9.374   1.666 -0.6182  0.6356 -0.2943
15823SOL    HW152316   7.159   9.365   1.681 -0.2252  0.5903 -2.6260
15823SOL    HW252317   7.053   9.466   1.643 -1.2371  0.7555  0.4726
15824SOL     OW52318   4.354   0.101   4.281 -0.0683 -0.0320 -0.0767
15824SOL    HW152319   4.407   0.096   4.360  0.9978  1.3257 -0.6859
15824SOL    HW252320   4.280   0.042   4.298  1.8218 -2.2883  0.6068
15825SOL     OW52321   3.870   9.369   4.562 -0.0319  0.5481 -0.0737
15825SOL    HW152322   3.790   9.317   4.571  1.3377 -1.9419 -1.6903
15825SOL    HW252323   3.897   9.387   4.652 -0.9475 -0.9695  0.5320
15826SOL     OW52324   2.922   0.437   1.645  0.0477 -0.3931 -0.1428
15826SOL    HW152325   2.849   0.485   1.684  0.8661 -0.5373  1.6290
15826SOL    HW252326   2.994   0.500   1.644  0.2144 -0.5961 -0.8276
15827SOL     OW52327   3.051   0.140   2.720 -0.1567 -0.1494 -0.4246
15827SOL    HW152328   3.046   0.200   2.646  1.2628 -1.1880 -1.3993
15827SOL    HW252329   3.065   0.054   2.680 -0.3590 -0.8687  1.0108
15828SOL     OW52330   3.982   8.534   3.111 -0.7722 -0.2308 -0.3081
15828SOL    HW152331   3.930   8.489   3.177  0.2883  0.7485  1.2344
15828SOL    HW252332   3.960   8.627   3.121  1.8161  0.2921  0.9225
15829SOL     OW52333   3.630   8.716   2.188 -0.1023  0.0940 -0.6491
15829SOL    HW152334   3.591   8.699   2.103 -0.7993  0.5531 -0.4151
15829SOL    HW252335   3.590   8.651   2.246 -0.1402  0.2324 -0.5202
15830SOL     OW52336   4.359   6.916   2.444  0.0597 -0.5196  0.3400
15830SOL    HW152337   4.353   6.853   2.372  1.0291 -1.0233  0.6947
15830SOL    HW252338   4.270   6.950   2.454  0.1004  0.2309 -1.6961
15831SOL     OW52339   3.610   8.218   4.400  0.1953  0.2091 -0.1125
15831SOL    HW152340   3.651   8.304   4.407  0.1156  0.3753 -1.5076
15831SOL    HW252341   3.565   8.220   4.315  0.4935 -1.3384 -0.3150
15832SOL     OW52342   4.800   0.236   2.772 -0.1134  0.0535  0.1421
15832SOL    HW152343   4.775   0.266   2.685 -0.5893  1.0163  0.6004
15832SOL    HW252344   4.723   0.252   2.826  0.4013  0.0794  0.8779
15833SOL     OW52345   5.220   8.756   0.702  0.1361  0.1366 -0.1053
15833SOL    HW152346   5.241   8.806   0.781  0.3830 -1.7713  1.0715
15833SOL    HW252347   5.300   8.705   0.685 -1.0701 -1.9514  0.3663
15834SOL     OW52348   7.005   7.678   3.377 -0.3858  0.0019  0.3095
15834SOL    HW152349   7.061   7.610   3.339  1.6546  2.0307 -0.4028
15834SOL    HW252350   7.032   7.683   3.468 -0.5377 -0.1165  0.3624
15835SOL     OW52351   5.152   9.449   1.299 -0.3974 -0.2263 -0.0972
15835SOL    HW152352   5.181   9.475   1.387  1.4599  0.1188 -0.7740
15835SOL    HW252353   5.208   9.373   1.278  0.0757  0.4945 -1.4882
15836SOL     OW52354   4.533   8.459   4.869 -0.3796 -0.0194 -0.0393
15836SOL    HW152355   4.478   8.529   4.834 -0.3732  1.0946  2.1613
15836SOL    HW252356   4.619   8.498   4.879  0.2038 -1.0251 -0.9860
15837SOL     OW52357   4.116   0.628   3.381  0.3239  0.2595  0.4412
15837SOL    HW152358   4.137   0.579   3.461 -1.7002 -0.1180  0.7781
15837SOL    HW252359   4.129   0.720   3.404  0.6992  0.0865  0.9110
15838SOL     OW52360   4.753   9.543   3.499  0.4461 -0.1855  0.2285
15838SOL    HW152361   4.664   9.579   3.498 -0.5935 -2.5538  2.2060
15838SOL    HW252362   4.809   9.617   3.476 -2.1131  1.0782 -2.2120
15839SOL     OW52363   5.714   6.744   2.427 -0.0319 -0.2811 -0.4014
15839SOL    HW152364   5.775   6.703   2.488  1.7983 -0.2141 -2.1604
15839SOL    HW252365   5.724   6.838   2.443 -0.6507 -0.3104  0.2097
15840SOL     OW52366   3.305   6.688   2.874  0.4315  1.0670 -0.1055
15840SOL    HW152367   3.256   6.609   2.897  1.1071  1.0878  1.4297
15840SOL    HW252368   3.309   6.686   2.778  0.5362 -0.8111 -0.0785
15841SOL     OW52369   4.999   0.015   2.893  0.1825 -0.0738  0.5436
15841SOL    HW152370   5.019   0.046   2.981  1.8687  2.4647 -0.6452
15841SOL    HW252371   4.913   0.053   2.874  1.0199  1.7016  0.1340
15842SOL     OW52372   3.722   9.692   2.510 -0.5973 -0.0259 -0.1367
15842SOL    HW152373   3.670   9.748   2.453  1.0401  0.9960 -0.6648
15842SOL    HW252374   3.767   9.752   2.570  0.0394 -0.8701  0.2628
15843SOL     OW52375   3.903   8.374   4.404  0.3853  0.0556 -0.4707
15843SOL    HW152376   3.951   8.457   4.400 -0.4933  0.6535  0.7888
15843SOL    HW252377   3.911   8.337   4.316  2.1306  0.7101 -0.6065
15844SOL     OW52378   4.685   8.603   3.940  0.2240  0.8740  0.1771
15844SOL    HW152379   4.660   8.694   3.956  3.3973  1.9694 -0.7450
15844SOL    HW252380   4.770   8.608   3.896 -0.0330 -2.5184 -0.9003
15845SOL     OW52381   4.993   9.150   1.655 -0.0733  0.4793  0.3108
15845SOL    HW152382   5.010   9.208   1.729 -0.4200 -1.9287  2.3648
15845SOL    HW252383   4.898   9.138   1.655 -0.1546  1.0819 -1.0117
15846SOL     OW52384   4.857   8.934   3.789 -0.5931 -0.2417 -0.5346
15846SOL    HW152385   4.782   8.955   3.733  1.0199  3.1517 -1.5573
15846SOL    HW252386   4.837   8.976   3.873  0.3632  1.1174 -0.9737
15847SOL     OW52387   5.565   8.466   3.459 -0.7653 -0.3301 -0.0310
15847SOL    HW152388   5.499   8.397   3.450 -1.4654  0.1740  1.0716
15847SOL    HW252389   5.555   8.519   3.380 -0.8803 -0.9323 -0.4251
15848SOL     OW52390   5.997   1.229   1.002 -0.3405  0.1240  0.3571
15848SOL    HW152391   6.047   1.249   0.922  0.5383 -3.4082 -0.0372
15848SOL    HW252392   6.048   1.161   1.045 -2.7004 -0.5705  2.1157
15849SOL     OW52393   1.978   7.785   1.972  0.0109  0.3428 -0.0060
15849SOL    HW152394   1.959   7.695   1.947 -0.3759  0.1603  0.9371
15849SOL    HW252395   1.999   7.780   2.065  0.5689  1.1422 -0.0859
15850SOL     OW52396   6.121   7.804   3.990  0.0267 -1.1346  0.0933
15850SOL    HW152397   6.118   7.751   4.069 -1.9598 -0.6916  0.3259
15850SOL    HW252398   6.105   7.893   4.019  1.7086 -0.5981 -0.5175
15851SOL     OW52399   4.488   7.231   2.203  0.2202 -0.2953 -0.3077
15851SOL    HW152400   4.524   7.247   2.290 -0.9096  1.4888 -0.1373
15851SOL    HW252401   4.400   7.196   2.219 -0.3545  0.9365 -0.7184
15852SOL     OW52402   5.038   8.706   2.844  0.1716  0.6172  0.0756
15852SOL    HW152403   5.126   8.678   2.820  0.5323  1.2837  0.6013
15852SOL    HW252404   5.051   8.761   2.922 -1.0215 -2.0843  2.2552
15853SOL     OW52405   3.307   8.169   2.401  0.2206 -0.1068 -0.0310
15853SOL    HW152406   3.227   8.198   2.358 -0.5204 -0.9691  0.7300
15853SOL    HW252407   3.338   8.096   2.347 -0.1061 -0.4719  0.2679
15854SOL     OW52408   4.472   7.683   3.800  0.4537 -0.2330 -0.1440
15854SOL    HW152409   4.554   7.731   3.797  0.2849  0.1305  0.9078
15854SOL    HW252410   4.405   7.751   3.802  0.1986 -0.5089  0.9507
15855SOL     OW52411   5.179   8.742   3.666 -0.0822 -0.5385 -0.1236
15855SOL    HW152412   5.193   8.665   3.611 -0.1660 -2.3068  2.2114
15855SOL    HW252413   5.186   8.816   3.607 -1.5830 -2.4142 -2.7653
15856SOL     OW52414   5.632   7.259   2.259 -0.0710  0.3734 -0.7742
15856SOL    HW152415   5.578   7.181   2.251  0.5987  0.0533 -2.3276
15856SOL    HW252416   5.685   7.260   2.179  2.3753  0.5681  0.7955
15857SOL     OW52417   3.178   7.613   3.874 -0.2100 -0.3681 -0.2372
15857SOL    HW152418   3.229   7.542   3.912  1.0154  0.6500  0.0748
15857SOL    HW252419   3.230   7.643   3.800  0.5070  1.7670  1.0730
15858SOL     OW52420   4.210   9.065   2.484 -0.3251  0.3881 -0.1394
15858SOL    HW152421   4.117   9.077   2.467 -0.4921  0.2320  0.6677
15858SOL    HW252422   4.220   9.074   2.578  0.1658 -1.6208  0.0366
15859SOL     OW52423   4.468   9.849   0.314 -0.0278 -0.5527 -0.3937
15859SOL    HW152424   4.550   9.802   0.299  0.6627  1.1391 -2.2412
15859SOL    HW252425   4.406   9.810   0.252  0.3944  0.5787 -1.5422
15860SOL     OW52426   5.577   8.841   2.646  0.2090 -0.0263 -0.8507
15860SOL    HW152427   5.540   8.921   2.683  0.6208  0.5075 -1.5958
15860SOL    HW252428   5.671   8.855   2.648  0.4268 -1.6210  1.5779
15861SOL     OW52429   6.037   0.243   3.361 -0.2125  0.1116 -0.2392
15861SOL    HW152430   6.012   0.335   3.371 -1.7629 -0.1846 -1.0901
15861SOL    HW252431   5.974   0.195   3.415 -1.1884 -0.6278 -1.9750
15862SOL     OW52432   5.704   7.214   3.090 -0.3197  0.4821 -0.0807
15862SOL    HW152433   5.713   7.305   3.059 -0.3951  0.9362  1.2058
15862SOL    HW252434   5.624   7.183   3.048 -0.5686  1.1830 -0.1430
15863SOL     OW52435   5.533   7.664   4.177  0.4059 -0.5039  0.4217
15863SOL    HW152436   5.591   7.624   4.112  1.9357  2.7290 -0.2792
15863SOL    HW252437   5.578   7.651   4.260  1.9342  1.5645 -0.0632
15864SOL     OW52438   5.308   8.199   1.219 -0.5049 -0.7622  0.2357
15864SOL    HW152439   5.238   8.221   1.280  1.8159  0.3106  2.6015
15864SOL    HW252440   5.280   8.239   1.136 -1.5079  1.9154  1.7775
15865SOL     OW52441   1.362   9.064   3.592 -0.4451 -0.0529 -0.4572
15865SOL    HW152442   1.419   9.009   3.647 -0.3884 -0.0907 -0.5528
15865SOL    HW252443   1.377   9.153   3.624  1.8462  0.3082 -2.3637
15866SOL     OW52444   5.312   8.155   2.448  0.4790  0.4228 -0.0373
15866SOL    HW152445   5.265   8.192   2.373 -0.9853  0.9169  1.1029
15866SOL    HW252446   5.385   8.216   2.463  0.1501  0.9056 -0.3889
15867SOL     OW52447   5.261   9.054   1.798  0.2576 -0.0779 -0.5484
15867SOL    HW152448   5.277   9.012   1.713  1.1712 -0.3398 -0.2591
15867SOL    HW252449   5.303   8.996   1.862  0.7578  0.8040 -0.0529
15868SOL     OW52450   5.422   9.188   0.560  0.3517  0.1905 -0.4153
15868SOL    HW152451   5.478   9.148   0.626  0.3248  2.0583  0.7681
15868SOL    HW252452   5.360   9.241   0.610 -0.0228  1.1796 -1.9090
15869SOL     OW52453   4.586   9.889   4.391 -0.2668 -0.8734 -0.4432
15869SOL    HW152454   4.570   9.967   4.444  1.0208  0.6382 -2.2114
15869SOL    HW252455   4.651   9.839   4.440 -3.4327 -2.5205  2.2863
15870SOL     OW52456   4.553   8.453   2.959 -0.1719  0.4926 -0.1212
15870SOL    HW152457   4.598   8.489   3.035 -0.0535  0.0392  0.0236
15870SOL    HW252458   4.516   8.529   2.915 -1.8992  0.6140  1.4525
15871SOL     OW52459   4.577   7.131   0.845  0.0415 -0.2250 -0.1788
15871SOL    HW152460   4.578   7.227   0.850 -0.3175 -0.3099  2.6718
15871SOL    HW252461   4.575   7.111   0.752 -0.8120  2.5683 -0.8013
15872SOL     OW52462   6.563   9.874   2.116  0.2463  0.5025  0.1847
15872SOL    HW152463   6.544   9.943   2.052  1.9213  1.1870  0.3854
15872SOL    HW252464   6.644   9.903   2.158  0.2314 -0.9353  1.2235
15873SOL     OW52465   4.977   6.777   2.318 -0.5037 -0.6560 -0.4510
15873SOL    HW152466   4.914   6.791   2.248 -1.8166  1.2846  1.0444
15873SOL    HW252467   4.926   6.741   2.390  0.5847 -1.4533 -0.0540
15874SOL     OW52468   2.601   7.630   5.257 -0.6656  0.0912 -0.0131
15874SOL    HW152469   2.509   7.646   5.280 -0.9279  1.5115 -1.8860
15874SOL    HW252470   2.597   7.587   5.171  0.4117 -0.3787  0.1667
15875SOL     OW52471   5.285   8.542   2.983  0.0914  0.1228  0.0024
15875SOL    HW152472   5.224   8.581   3.046  0.7161 -0.6014  1.0862
15875SOL    HW252473   5.276   8.448   2.996  1.1699  0.0024 -0.0715
15876SOL     OW52474   4.567   9.555   1.478  0.6354  0.2256  0.2119
15876SOL    HW152475   4.636   9.504   1.520  2.1838  1.7580 -0.4053
15876SOL    HW252476   4.588   9.646   1.500 -1.6544  0.6640  0.6749
15877SOL     OW52477   3.044   9.141   2.246  0.1426 -0.0125 -0.0243
15877SOL    HW152478   3.100   9.112   2.174  0.5092 -2.1197  1.0731
15877SOL    HW252479   2.958   9.153   2.206  0.5842 -0.1186 -1.0248
15878SOL     OW52480   4.045   7.461   1.757 -0.0968  0.1763 -0.4143
15878SOL    HW152481   3.996   7.435   1.835 -0.4428 -0.8497 -0.9682
15878SOL    HW252482   3.979   7.460   1.687  0.3555  0.4452 -0.8419
15879SOL     OW52483   4.785   8.106   2.951 -0.3726  0.0225 -0.4418
15879SOL    HW152484   4.823   8.190   2.978 -0.4125 -0.2634  0.5157
15879SOL    HW252485   4.704   8.100   3.000  0.6554 -1.5455  1.1140
15880SOL     OW52486   5.614   6.375   0.914  0.4435  0.2255 -0.3937
15880SOL    HW152487   5.648   6.287   0.930  0.9743  0.2785 -1.2465
15880SOL    HW252488   5.552   6.365   0.842 -1.3999  0.1326  1.1323
15881SOL     OW52489   5.474   7.192   2.521 -0.1701 -0.2655  0.3507
15881SOL    HW152490   5.517   7.271   2.488 -0.5019 -0.2628 -0.0887
15881SOL    HW252491   5.541   7.147   2.572 -0.9910  2.0971  3.6657
15882SOL     OW52492   4.650   7.940   2.427  0.0553  0.5997  0.0747
15882SOL    HW152493   4.716   7.917   2.493 -0.7289 -0.6431  0.4329
15882SOL    HW252494   4.696   7.936   2.344  0.4533 -0.2143  0.3319
15883SOL     OW52495   5.266   8.490   1.724  0.3403 -0.0103  0.2437
15883SOL    HW152496   5.189   8.530   1.685  0.5574 -1.8573 -2.2447
15883SOL    HW252497   5.232   8.433   1.793 -0.3234  0.8317  0.6177
15884SOL     OW52498   6.384   9.687   4.020 -0.0423  0.1767 -0.2950
15884SOL    HW152499   6.389   9.725   4.107  0.5715  1.2812 -0.7897
15884SOL    HW252500   6.465   9.717   3.976  0.8115 -2.2979 -0.4854
15885SOL     OW52501   4.017   8.307   0.526  0.8002  0.1231  0.1646
15885SOL    HW152502   4.090   8.362   0.555 -0.1030  0.8650  1.0790
15885SOL    HW252503   3.943   8.367   0.520  0.1087 -0.7472 -0.0905
15886SOL     OW52504   4.866   8.061   4.648 -0.1996 -0.6865  0.0102
15886SOL    HW152505   4.809   8.133   4.672  0.5589 -0.1169  0.1188
15886SOL    HW252506   4.941   8.069   4.706  0.8762 -0.2811 -1.3961
15887SOL     OW52507   2.781   7.565   2.696  0.0281  0.1471 -0.2021
15887SOL    HW152508   2.736   7.592   2.776  0.0172  1.4538 -0.6370
15887SOL    HW252509   2.845   7.633   2.680  1.2706 -1.0352 -0.3303
15888SOL     OW52510   3.903   6.955   1.249 -0.0045 -0.1979 -0.2607
15888SOL    HW152511   3.884   7.044   1.221  0.0129 -0.3428 -0.7318
15888SOL    HW252512   3.941   6.965   1.336 -2.2197  0.1024  0.7093
15889SOL     OW52513   4.150   9.200   3.198  0.2458  0.2046 -0.4196
15889SOL    HW152514   4.239   9.220   3.168 -0.1450 -0.2089 -1.8669
15889SOL    HW252515   4.127   9.275   3.253  1.6889  0.0603  0.4138
15890SOL     OW52516   5.692   8.597   3.185  0.6549  0.0144  0.5798
15890SOL    HW152517   5.641   8.583   3.105 -1.4228  2.0926  1.5039
15890SOL    HW252518   5.773   8.638   3.155 -0.0319  0.6152 -0.4848
15891SOL     OW52519   4.423   8.459   2.540 -0.4621  0.5656  0.0650
15891SOL    HW152520   4.476   8.463   2.460 -0.6010  0.5348 -0.0285
15891SOL    HW252521   4.435   8.544   2.581  0.4620  0.2194  0.5538
15892SOL     OW52522   4.142   9.421   3.384  0.4391 -0.0656  0.1611
15892SOL    HW152523   4.206   9.431   3.455  0.6535  1.2007 -0.2097
15892SOL    HW252524   4.120   9.510   3.358  0.7355 -0.5065 -1.7133
15893SOL     OW52525   6.950   8.534   3.988  0.0873  0.8920  0.7598
15893SOL    HW152526   6.914   8.617   3.955 -0.6788  0.2876  0.0298
15893SOL    HW252527   7.023   8.560   4.044 -0.0805  2.0577  0.4614
15894SOL     OW52528   6.618   8.274   3.157 -0.0172  0.1620  0.1454
15894SOL    HW152529   6.601   8.206   3.222  0.7045  0.2634  0.4414
15894SOL    HW252530   6.607   8.356   3.205 -1.4019  0.2764 -0.3347
15895SOL     OW52531   4.775   9.228   1.837 -0.0486 -0.0240  0.0391
15895SOL    HW152532   4.847   9.219   1.899 -0.8804 -2.5563  0.6669
15895SOL    HW252533   4.701   9.183   1.877 -1.6172  1.3163 -1.2323
15896SOL     OW52534   4.253   7.949   3.194 -0.3987  0.1997  0.4587
15896SOL    HW152535   4.347   7.932   3.197 -0.1377  1.5637  0.2499
15896SOL    HW252536   4.216   7.888   3.258  0.6713 -0.0080  0.8898
15897SOL     OW52537   5.729   9.512   2.723 -0.2629 -0.1063  0.1915
15897SOL    HW152538   5.799   9.575   2.740 -1.1629  1.4021 -1.5254
15897SOL    HW252539   5.719   9.512   2.628 -3.2192  0.4091  0.4538
15898SOL     OW52540   4.491   8.987   4.026 -0.2697 -0.2674  0.1518
15898SOL    HW152541   4.519   9.030   3.945 -0.2546  1.3250  0.9628
15898SOL    HW252542   4.411   9.034   4.051 -1.5946 -2.2826 -0.1593
15899SOL     OW52543   5.632   9.940   3.687  0.2206  0.3676 -0.6379
15899SOL    HW152544   5.550   9.961   3.641 -0.5926 -0.8011  0.2667
15899SOL    HW252545   5.675   9.875   3.631  1.3781  2.2465 -1.9892
15900SOL     OW52546   4.413   8.711   2.068 -0.0824  0.2650  0.1078
15900SOL    HW152547   4.353   8.779   2.038 -0.0287  0.6551  0.8641
15900SOL    HW252548   4.402   8.639   2.006 -2.6473 -0.3899  1.2626
15901SOL     OW52549   5.784   6.232   3.167  0.2029 -0.3284 -0.6287
15901SOL    HW152550   5.751   6.165   3.227  2.4076 -1.9743 -1.2116
15901SOL    HW252551   5.746   6.314   3.200 -1.3828 -1.6549  0.9389
15902SOL     OW52552   5.476   7.700   3.654  0.2494  0.0154 -0.4182
15902SOL    HW152553   5.397   7.699   3.709  1.1438  0.5058  0.9212
15902SOL    HW252554   5.479   7.613   3.616  0.5226 -0.9461  1.6974
15903SOL     OW52555   5.861   8.074   2.102  0.2175 -0.3627  0.1018
15903SOL    HW152556   5.931   8.014   2.078  0.1983  0.1410 -1.2474
15903SOL    HW252557   5.905   8.147   2.146  0.3503 -0.8413  0.7704
15904SOL     OW52558   3.860   7.022   3.048 -0.5203  0.1328 -0.3227
15904SOL    HW152559   3.774   7.044   3.010 -1.0107 -2.0045 -0.5353
15904SOL    HW252560   3.905   6.974   2.978  0.4105  0.2663  0.1793
15905SOL     OW52561   3.554   7.817   1.612  0.0351  0.4430  0.0056
15905SOL    HW152562   3.541   7.845   1.521 -4.0122  2.0282  0.9691
15905SOL    HW252563   3.597   7.891   1.654  0.4825  0.3339 -0.2581
15906SOL     OW52564   3.191   8.849   2.351 -0.9033 -0.3391  0.2807
15906SOL    HW152565   3.131   8.894   2.411  0.4139  2.1446 -0.1793
15906SOL    HW252566   3.255   8.807   2.409 -1.5177 -0.7151  0.6973
15907SOL     OW52567   4.495   8.125   2.650 -0.6561  0.2799 -0.0744
15907SOL    HW152568   4.554   8.058   2.616 -1.7690 -1.2979  1.0217
15907SOL    HW252569   4.545   8.206   2.645  1.3311 -0.9094  0.1536
15908SOL     OW52570   5.067   7.211   2.222 -0.2476  0.4050  0.2325
15908SOL    HW152571   5.061   7.299   2.258  0.0435  1.1884 -1.5788
15908SOL    HW252572   5.040   7.153   2.294 -1.5681  2.0353  1.0744
15909SOL     OW52573   6.355   8.031   3.935  0.3656 -0.3780  0.1999
15909SOL    HW152574   6.309   8.109   3.966  1.4224  0.5710 -0.5845
15909SOL    HW252575   6.329   8.022   3.843  0.5793 -0.7099  0.1697
15910SOL     OW52576   5.501   7.918   1.533 -0.0334  0.4689  0.1499
15910SOL    HW152577   5.407   7.927   1.517 -0.6160 -2.3246  1.6501
15910SOL    HW252578   5.522   7.988   1.595 -0.8496  1.8579 -1.1016
15911SOL     OW52579   3.240   9.282   4.475 -0.1049  0.5000 -0.4233
15911SOL    HW152580   3.189   9.303   4.397  0.6990  1.7661 -0.6323
15911SOL    HW252581   3.180   9.297   4.548 -0.4956  0.4753 -0.7427
15912SOL     OW52582   5.055   6.913   2.955 -0.5483  0.4627 -0.1143
15912SOL    HW152583   5.126   6.946   3.010 -1.5536  0.4188  1.2309
15912SOL    HW252584   5.099   6.860   2.889  0.6770  0.4286  0.7175
15913SOL     OW52585   5.345   8.628   3.279  0.2815 -0.2269 -0.1564
15913SOL    HW152586   5.401   8.628   3.201  2.6306  2.3413  1.4361
15913SOL    HW252587   5.276   8.691   3.260  0.8814  0.4343 -0.1496
15914SOL     OW52588   5.804   7.631   3.762  0.5050  0.2210  0.2305
15914SOL    HW152589   5.837   7.543   3.777 -0.7495 -0.8286 -2.7541
15914SOL    HW252590   5.815   7.645   3.668 -0.4024  2.7817  0.4699
15915SOL     OW52591   5.325   8.090   3.957  0.1435 -0.0578  0.3470
15915SOL    HW152592   5.387   8.018   3.940 -0.4876 -0.3793 -0.6064
15915SOL    HW252593   5.242   8.046   3.976  0.1399  0.3861  1.4033
15916SOL     OW52594   6.551   6.576   3.839  0.2071  0.1789 -0.4238
15916SOL    HW152595   6.635   6.555   3.880  0.7235  0.0922 -1.4945
15916SOL    HW252596   6.492   6.506   3.866  0.4734  0.2409  0.3325
15917SOL     OW52597   5.157   9.109   3.086  0.0166  0.0046  0.6899
15917SOL    HW152598   5.165   9.120   2.991  0.9088 -0.6206  0.6846
15917SOL    HW252599   5.129   9.195   3.118 -1.6276 -0.1582 -0.2760
15918SOL     OW52600   5.595   8.186   2.086 -0.2693 -0.5963 -0.0024
15918SOL    HW152601   5.620   8.225   2.003 -1.0091 -0.7546 -0.3069
15918SOL    HW252602   5.669   8.130   2.110  0.9883  1.3039  0.6642
15919SOL     OW52603   4.130   7.643   2.359 -0.0351  0.1623 -0.1977
15919SOL    HW152604   4.079   7.611   2.434  2.4703 -0.4397  1.2868
15919SOL    HW252605   4.114   7.738   2.359 -1.5387 -0.0825 -0.0389
15920SOL     OW52606   4.578   9.803   1.772  0.4895  0.8070  0.0800
15920SOL    HW152607   4.587   9.817   1.678  0.5079 -0.7859 -0.1746
15920SOL    HW252608   4.663   9.768   1.800  0.6162  1.6463  0.7670
15921SOL     OW52609   4.524   7.269   1.935 -0.3402 -0.4102 -0.5819
15921SOL    HW152610   4.455   7.336   1.928  1.4680  1.4251 -1.1146
15921SOL    HW252611   4.508   7.228   2.020 -1.9062  0.1991 -0.5580
15922SOL     OW52612   5.690   8.293   4.463  0.5346  0.2190 -0.0510
15922SOL    HW152613   5.611   8.248   4.433 -0.0015 -0.7024  2.5420
15922SOL    HW252614   5.757   8.271   4.398 -0.3109 -2.4809 -0.0781
15923SOL     OW52615   3.980   7.316   2.420  0.5294  0.6436 -0.6670
15923SOL    HW152616   3.999   7.362   2.502 -0.4508  0.3262 -0.2588
15923SOL    HW252617   3.921   7.375   2.373 -0.2309  0.0978 -0.4150
15924SOL     OW52618   4.200   8.583   1.911  0.3834  0.3230  0.0670
15924SOL    HW152619   4.243   8.572   1.826  0.0299  0.6955 -0.1606
15924SOL    HW252620   4.188   8.677   1.920  2.3557  0.4823  1.5021
15925SOL     OW52621   3.274   8.425   4.517  0.7713 -0.1290  0.4192
15925SOL    HW152622   3.226   8.441   4.598 -0.6091  0.4907 -0.5098
15925SOL    HW252623   3.304   8.334   4.525 -0.6950 -0.5810  0.9526
15926SOL     OW52624   5.809   7.360   3.774 -0.3645 -0.3306  0.2836
15926SOL    HW152625   5.771   7.295   3.715  0.3221  0.3055 -0.8841
15926SOL    HW252626   5.869   7.310   3.830 -0.5829 -0.8571  0.0454
15927SOL     OW52627   2.667   8.523   2.833  0.1307 -0.1718 -0.4441
15927SOL    HW152628   2.707   8.594   2.883  1.5967 -0.9025 -0.5599
15927SOL    HW252629   2.645   8.563   2.749 -0.5581  0.5616  0.0764
15928SOL     OW52630   4.663   7.719   2.761 -0.7256  0.2542 -0.2886
15928SOL    HW152631   4.689   7.644   2.708  0.1079  0.3576 -0.0419
15928SOL    HW252632   4.637   7.785   2.697  1.0116  0.6526 -0.6228
15929SOL     OW52633   4.796   0.007   1.439 -0.1401 -0.2170 -0.1954
15929SOL    HW152634   4.763   0.097   1.451  0.4308  0.0099 -0.3298
15929SOL    HW252635   4.872   0.002   1.497 -0.1323 -0.5966 -0.2408
15930SOL     OW52636   4.319   9.801   2.684  0.2076 -0.5943  0.1411
15930SOL    HW152637   4.240   9.852   2.700  2.0268  1.9855  1.1589
15930SOL    HW252638   4.325   9.742   2.759 -1.1224 -1.3330 -0.3164
15931SOL     OW52639   4.426   6.399   2.872 -0.1720  0.5028 -0.0234
15931SOL    HW152640   4.425   6.305   2.853 -3.2107  0.0456  2.1154
15931SOL    HW252641   4.514   6.415   2.906  0.4996 -1.4926 -0.7225
15932SOL     OW52642   5.363   7.958   4.473 -0.1134 -0.0407  0.0206
15932SOL    HW152643   5.410   8.020   4.417  0.1589 -0.2225  0.0439
15932SOL    HW252644   5.271   7.979   4.461  0.0439  1.6419  1.5014
15933SOL     OW52645   6.022   6.369   3.114  0.2534 -0.0017  0.7153
15933SOL    HW152646   6.108   6.373   3.156  0.0497 -0.5433  1.1932
15933SOL    HW252647   5.976   6.299   3.161 -0.6266  0.6226  0.7791
15934SOL     OW52648   4.171   8.748   2.624  0.0437  0.3018  0.5389
15934SOL    HW152649   4.186   8.663   2.666 -0.9569  0.9815  2.2995
15934SOL    HW252650   4.092   8.735   2.572  0.4956 -0.1357 -0.0522
15935SOL     OW52651   2.503   0.780   3.195  0.3333 -0.1561  0.0252
15935SOL    HW152652   2.584   0.767   3.146 -0.1154 -0.4650 -0.6504
15935SOL    HW252653   2.448   0.706   3.170 -0.9826  1.2143 -1.2277
15936SOL     OW52654   3.635   1.209   3.189  0.2895 -0.1252 -0.3800
15936SOL    HW152655   3.567   1.154   3.150 -0.8357  1.3261 -0.5099
15936SOL    HW252656   3.706   1.148   3.210 -0.6530 -1.5145 -1.1343
15937SOL     OW52657   4.112   0.267   3.462  0.4851 -0.3960 -0.2881
15937SOL    HW152658   4.022   0.238   3.471  0.9915 -1.5280  1.4355
15937SOL    HW252659   4.128   0.319   3.541  1.5221 -0.7134 -0.2847
15938SOL     OW52660   2.745   6.023   3.346 -0.3068 -0.2742 -0.0998
15938SOL    HW152661   2.682   5.951   3.337  0.1803 -0.5328 -1.5775
15938SOL    HW252662   2.758   6.031   3.440 -0.4115 -2.0862  0.0958
15939SOL     OW52663   4.618   8.219   2.332  0.1016 -0.6256  0.2592
15939SOL    HW152664   4.658   8.165   2.400  1.0391 -1.3035 -0.8035
15939SOL    HW252665   4.657   8.305   2.342 -1.4581 -0.0750  2.0178
15940SOL     OW52666   4.665   8.106   3.940  0.0464  0.7972 -0.0039
15940SOL    HW152667   4.698   8.186   3.981  0.4822  0.4952  0.2464
15940SOL    HW252668   4.670   8.124   3.846  1.9890  0.3732 -0.0146
15941SOL     OW52669   5.395   8.191   1.586 -0.3812  0.0013 -0.3694
15941SOL    HW152670   5.301   8.205   1.574 -0.4685 -0.3486 -0.1122
15941SOL    HW252671   5.435   8.223   1.506 -0.6238  1.2235 -0.0139
15942SOL     OW52672   4.058   9.749   4.050 -0.3492  0.3314  0.4601
15942SOL    HW152673   4.138   9.706   4.080  0.6704  0.5383 -1.8526
15942SOL    HW252674   3.988   9.688   4.073  0.6069 -0.4501  1.3563
15943SOL     OW52675   3.114   8.264   3.152  0.2774 -0.2911 -0.5358
15943SOL    HW152676   3.075   8.316   3.081 -1.8287 -1.3518 -0.2046
15943SOL    HW252677   3.153   8.189   3.108  1.2237  0.3386 -0.7891
15944SOL     OW52678   3.639   9.617   2.923  0.4905 -0.3863 -0.1824
15944SOL    HW152679   3.588   9.599   3.002  1.0741 -0.0858  0.2588
15944SOL    HW252680   3.588   9.577   2.853 -0.4364  0.0255  0.2403
15945SOL     OW52681   4.389   7.449   3.275 -0.2265  0.5370 -0.0506
15945SOL    HW152682   4.473   7.422   3.313 -1.9031 -1.7313  2.2239
15945SOL    HW252683   4.357   7.370   3.231 -3.2659 -0.0232  3.0301
15946SOL     OW52684   4.963   7.861   3.943  0.3605  0.1204 -0.0032
15946SOL    HW152685   4.972   7.777   3.989  0.7675  0.4312  0.4991
15946SOL    HW252686   4.962   7.926   4.013  0.2951  0.5523 -0.4069
15947SOL     OW52687   4.064   8.303   4.783 -0.1924 -0.4147 -0.2626
15947SOL    HW152688   4.104   8.343   4.705 -0.8736 -0.7195 -0.7745
15947SOL    HW252689   4.012   8.231   4.749 -1.4234  0.1603  0.3679
15948SOL     OW52690   5.323   7.922   3.296  0.5456 -0.3978  0.0648
15948SOL    HW152691   5.331   8.017   3.292  2.4616 -0.4921  1.0704
15948SOL    HW252692   5.285   7.904   3.382  1.6842 -0.6082  0.5321
15949SOL     OW52693   5.741   9.302   2.938 -0.4400  0.3794 -0.5124
15949SOL    HW152694   5.659   9.257   2.957 -0.9119  1.1217 -0.7881
15949SOL    HW252695   5.732   9.335   2.849  0.2799  0.1973 -0.6598
15950SOL     OW52696   4.169   0.093   1.878 -0.5966  0.0935 -0.3012
15950SOL    HW152697   4.215   0.161   1.829  0.9861 -1.2468 -0.7232
15950SOL    HW252698   4.190   0.012   1.832 -2.6035 -0.6765  0.0895
15951SOL     OW52699   3.120   8.773   3.500  0.3839 -0.2712  0.1951
15951SOL    HW152700   3.180   8.749   3.430 -1.0260 -2.1703 -0.3970
15951SOL    HW252701   3.041   8.720   3.484 -0.8542  1.0142  1.8401
15952SOL     OW52702   1.883   0.998   3.753  0.2640 -0.1548 -0.1004
15952SOL    HW152703   1.906   0.954   3.671 -0.9751 -2.9822  1.0178
15952SOL    HW252704   1.797   0.964   3.776  0.8646  0.0976  2.7238
15953SOL     OW52705   7.503   8.666   2.381  0.5539  0.1679 -0.1806
15953SOL    HW152706   7.536   8.622   2.460 -0.5644  0.2375  0.3386
15953SOL    HW252707   7.410   8.646   2.380  0.2405  1.6040 -0.5409
15954SOL     OW52708   4.150   8.233   3.181 -0.5273 -0.4303  0.1815
15954SOL    HW152709   4.169   8.139   3.175  0.4608 -0.1350 -1.7450
15954SOL    HW252710   4.235   8.274   3.196 -0.6017  0.3237 -1.3038
15955SOL     OW52711   1.834   0.047   3.207 -0.4814  0.2415  0.0207
15955SOL    HW152712   1.831   0.142   3.193 -1.5514 -0.0608 -1.9433
15955SOL    HW252713   1.745   0.018   3.186 -0.2081 -1.1873  0.8078
15956SOL     OW52714   3.122   7.198   2.134  0.0817  0.0315 -0.5479
15956SOL    HW152715   3.045   7.190   2.078  0.3396 -0.3509 -0.8501
15956SOL    HW252716   3.195   7.178   2.077  0.4253  0.6165 -0.3149
15957SOL     OW52717   7.775   9.054   3.609 -0.7650 -0.4451 -0.0120
15957SOL    HW152718   7.734   9.055   3.695 -0.4599  0.8360  0.1321
15957SOL    HW252719   7.869   9.045   3.626 -0.6851  0.0165 -0.2057
15958SOL     OW52720   6.562   9.135   3.932 -0.4185  0.0313  0.5831
15958SOL    HW152721   6.625   9.170   3.869 -0.7509 -0.3002  0.0629
15958SOL    HW252722   6.479   9.133   3.885 -0.6520 -0.3084  0.9994
15959SOL     OW52723   5.165   7.368   0.868 -0.3950 -0.0463  0.0932
15959SOL    HW152724   5.181   7.462   0.858 -0.2560 -0.2552 -1.7787
15959SOL    HW252725   5.071   7.362   0.887 -0.5144  0.4324 -0.3538
15960SOL     OW52726   2.654   8.541   2.271  0.1260  0.0578 -0.3495
15960SOL    HW152727   2.739   8.577   2.248  0.4007 -1.2266 -1.4155
15960SOL    HW252728   2.600   8.617   2.292  1.0890  0.9716 -1.1787
15961SOL     OW52729   5.667   9.360   0.541  0.9537  0.1542 -0.3228
15961SOL    HW152730   5.669   9.354   0.636 -0.2781 -0.8331 -0.3373
15961SOL    HW252731   5.590   9.414   0.522  1.8077  1.2482 -0.7398
15962SOL     OW52732   3.973   0.363   2.906  0.0960 -0.6184  0.6306
15962SOL    HW152733   3.879   0.356   2.923  0.0075 -0.5905  0.1581
15962SOL    HW252734   4.013   0.355   2.993 -0.2832 -1.8349  0.7077
15963SOL     OW52735   4.766   0.581   2.041 -0.0408  0.2831 -0.4833
15963SOL    HW152736   4.748   0.653   2.101 -0.9820 -1.3166  1.2221
15963SOL    HW252737   4.682   0.535   2.033  0.3520 -0.2041 -2.1478
15964SOL     OW52738   4.396   7.965   1.246  0.2202 -0.0311  0.0706
15964SOL    HW152739   4.318   7.912   1.262 -0.5602  0.2686 -2.5316
15964SOL    HW252740   4.363   8.053   1.227  1.3878  0.8966  2.1363
15965SOL     OW52741   4.476   9.995   2.931 -0.2613 -0.4636  0.7738
15965SOL    HW152742   4.402  10.039   2.888  0.0001 -1.6494 -0.9576
15965SOL    HW252743   4.441   9.911   2.960  0.3909 -1.0250 -0.0423
15966SOL     OW52744   5.127   7.242   2.828 -0.4658  0.2334 -0.4927
15966SOL    HW152745   5.170   7.319   2.865 -1.3147  0.7342 -0.5381
15966SOL    HW252746   5.127   7.177   2.899  3.4960 -1.0538 -1.5481
15967SOL     OW52747   5.891   9.084   2.997 -0.4597  0.6285  0.7150
15967SOL    HW152748   5.875   9.065   3.090 -0.8769  1.8993  0.9126
15967SOL    HW252749   5.832   9.157   2.977  0.6140  1.2528 -0.2006
15968SOL     OW52750   3.829   5.743   3.137 -0.5549 -0.7616  0.9286
15968SOL    HW152751   3.763   5.713   3.074  1.0150 -1.8797 -0.2307
15968SOL    HW252752   3.786   5.814   3.185 -1.4080  1.0077 -2.2782
15969SOL     OW52753   5.220   0.055   1.978  0.2472 -0.2102  0.2070
15969SOL    HW152754   5.238   0.144   1.947 -0.0188  0.2300  1.2598
15969SOL    HW252755   5.286   0.040   2.046 -0.4765 -0.3475  0.8803
15970SOL     OW52756   4.858   7.775   2.977 -0.0115 -0.0290  0.1888
15970SOL    HW152757   4.802   7.751   2.903  2.0016 -0.4519 -1.2353
15970SOL    HW252758   4.872   7.869   2.966 -0.2988  0.0468  0.4579
15971SOL     OW52759   5.139   7.387   1.552  0.1967 -0.4194 -0.0387
15971SOL    HW152760   5.187   7.328   1.493  0.1464 -0.3771 -0.1218
15971SOL    HW252761   5.058   7.406   1.505 -0.5404 -1.6217  0.6950
15972SOL     OW52762   2.527   8.760   3.334 -0.0582 -0.1609  0.4118
15972SOL    HW152763   2.486   8.800   3.257 -1.6212  0.4473  1.5450
15972SOL    HW252764   2.619   8.784   3.326 -0.5591  1.7145 -0.1635
15973SOL     OW52765   4.594   7.809   3.482  0.7298 -0.0808  0.1934
15973SOL    HW152766   4.624   7.756   3.408 -1.1177  0.3528 -0.8823
15973SOL    HW252767   4.505   7.779   3.498 -0.3514  2.7277 -0.4416
15974SOL     OW52768   4.807   8.502   2.568  0.2256 -0.4451  1.1011
15974SOL    HW152769   4.758   8.478   2.489 -0.2161 -1.1548  1.5894
15974SOL    HW252770   4.785   8.434   2.632  0.9297 -0.1198  1.6969
15975SOL     OW52771   4.422   7.527   2.830 -0.5405 -0.0973 -0.0699
15975SOL    HW152772   4.496   7.504   2.887 -0.2045 -0.6725 -0.7401
15975SOL    HW252773   4.416   7.623   2.837  1.0851  0.0949 -1.0081
15976SOL     OW52774   4.725   9.893   1.168 -0.2013 -0.0297  0.0548
15976SOL    HW152775   4.642   9.844   1.166  0.4256 -1.1345  0.5472
15976SOL    HW252776   4.750   9.893   1.260 -1.9182  4.2388  0.6082
15977SOL     OW52777   3.000   8.639   2.498  0.2556 -0.6515 -0.0067
15977SOL    HW152778   2.911   8.672   2.512  1.7205  2.7842  1.9800
15977SOL    HW252779   3.016   8.652   2.405 -0.4773  1.1938  0.0897
15978SOL     OW52780   5.518   0.239   3.557 -0.1981 -0.2970  0.6318
15978SOL    HW152781   5.493   0.285   3.476 -0.4344 -3.0313 -0.9076
15978SOL    HW252782   5.607   0.208   3.541 -0.7135 -1.9504  0.9042
15979SOL     OW52783   5.098   8.934   2.363  0.2212  0.0125 -0.1965
15979SOL    HW152784   5.065   8.934   2.453  0.1139 -0.6651 -0.2374
15979SOL    HW252785   5.071   8.850   2.327  1.5948 -0.3559 -0.3817
15980SOL     OW52786   5.964   9.532   3.495  0.3684 -0.2385  0.5516
15980SOL    HW152787   5.933   9.476   3.566  1.8494 -0.3357  1.1560
15980SOL    HW252788   5.983   9.473   3.423 -0.2294 -0.2500  0.4044
15981SOL     OW52789   3.454   7.297   3.106  0.2043 -0.2689  0.0897
15981SOL    HW152790   3.406   7.369   3.063 -1.2975 -0.7730  0.9052
15981SOL    HW252791   3.441   7.312   3.199  1.3992 -0.5926  0.3171
15982SOL     OW52792   5.011   7.410   2.454  0.2905 -0.2012  0.0796
15982SOL    HW152793   5.096   7.405   2.499  0.8950  1.1201 -0.8753
15982SOL    HW252794   4.981   7.500   2.469 -1.5138 -0.9835  1.3786
15983SOL     OW52795   7.505   7.826   1.106 -0.7062  0.1593 -0.2030
15983SOL    HW152796   7.433   7.838   1.045 -2.8224 -2.0913  1.7577
15983SOL    HW252797   7.484   7.884   1.180  1.3297  2.1267 -1.1058
15984SOL     OW52798   4.384   8.109   1.961  0.4085 -0.2613  0.3244
15984SOL    HW152799   4.363   8.183   1.905 -2.3187  1.3009  3.2878
15984SOL    HW252800   4.474   8.126   1.990  1.3413 -0.3653 -2.3159
15985SOL     OW52801   6.199   8.524   3.454  0.8365  0.0839  0.2146
15985SOL    HW152802   6.200   8.563   3.366  0.7043 -1.9544 -0.7057
15985SOL    HW252803   6.107   8.501   3.468  0.9192  0.0892  0.7457
15986SOL     OW52804   4.620   9.423   4.104 -0.0045 -0.0841 -0.8115
15986SOL    HW152805   4.710   9.390   4.103 -0.3354 -0.9953 -2.1159
15986SOL    HW252806   4.609   9.463   4.018 -0.7205  0.3806 -0.5026
15987SOL     OW52807   5.557   8.911   0.488  0.2083  0.2200  0.5274
15987SOL    HW152808   5.595   8.895   0.574 -2.0653 -1.1599  1.3005
15987SOL    HW252809   5.497   8.984   0.501 -0.9773 -0.7039  0.3954
15988SOL     OW52810   4.525   8.026   3.098  0.4632  0.1634  0.0058
15988SOL    HW152811   4.478   8.060   3.021 -3.0757 -1.3142  1.3867
15988SOL    HW252812   4.528   7.931   3.083 -2.5410 -0.4629  2.7419
15989SOL     OW52813   5.970   9.523   2.357  0.4582 -0.0760  0.0477
15989SOL    HW152814   5.983   9.594   2.293  0.2531  1.4088  1.6232
15989SOL    HW252815   6.058   9.508   2.393  0.6278 -1.1243 -0.7976
15990SOL     OW52816   5.044   0.094   2.605 -0.4231 -0.2675  0.1307
15990SOL    HW152817   5.016   0.078   2.695 -1.6948  0.6574 -0.0916
15990SOL    HW252818   5.022   0.186   2.588 -0.2830 -0.4550 -1.1487
15991SOL     OW52819   6.917   8.939   0.976 -0.4060 -0.1713  0.0226
15991SOL    HW152820   6.918   9.027   0.938 -1.1201 -0.4416 -0.6405
15991SOL    HW252821   6.926   8.953   1.070 -0.7962  0.6334 -0.0559
15992SOL     OW52822   2.992   7.978   4.354  0.1401  0.2130 -0.2560
15992SOL    HW152823   2.932   7.916   4.397 -0.0057  0.0643 -0.6736
15992SOL    HW252824   2.936   8.053   4.333  0.7578  1.3948  2.1607
15993SOL     OW52825   4.421   9.238   2.380 -0.5124 -0.0176  0.2302
15993SOL    HW152826   4.483   9.211   2.448 -1.9708 -2.0793  0.7873
15993SOL    HW252827   4.388   9.323   2.410  0.2603 -0.0344  1.1350
15994SOL     OW52828   4.602   8.864   2.639  0.1359 -0.1422 -0.0186
15994SOL    HW152829   4.656   8.904   2.570  0.6589  0.1674  0.5631
15994SOL    HW252830   4.617   8.919   2.715 -0.8509 -0.1859  0.2048
15995SOL     OW52831   5.402   8.003   0.924  0.5134  0.1534 -0.0454
15995SOL    HW152832   5.407   7.925   0.868 -1.5075  0.1036 -0.1848
15995SOL    HW252833   5.389   8.076   0.864 -0.5490  0.2330  0.2648
15996SOL     OW52834   3.070   8.821   1.757  0.4450  0.5269 -0.6866
15996SOL    HW152835   3.010   8.800   1.685 -1.1390 -0.8920  0.9975
15996SOL    HW252836   3.051   8.912   1.777 -0.4691  0.3835 -0.8382
15997SOL     OW52837   5.847   0.044   3.877  0.3409  0.3963  0.4798
15997SOL    HW152838   5.791  -0.033   3.867 -1.0568  1.3845  0.6196
15997SOL    HW252839   5.909   0.020   3.946  0.8016 -1.1029 -0.4370
15998SOL     OW52840   3.257   7.422   2.260 -0.0841  0.5409  0.2023
15998SOL    HW152841   3.227   7.453   2.346 -0.8876 -0.2447  0.2174
15998SOL    HW252842   3.213   7.338   2.249  1.7141 -0.4031 -0.0216
15999SOL     OW52843   4.658   7.376   3.265  0.2349 -0.1045  0.2672
15999SOL    HW152844   4.710   7.297   3.276 -0.4784 -0.7162 -0.6233
15999SOL    HW252845   4.630   7.374   3.173  2.2145  2.4212 -0.4661
16000SOL     OW52846   5.081   8.257   2.634  0.4581 -0.1499  0.2127
16000SOL    HW152847   5.134   8.203   2.575  0.5419  1.1932 -0.9625
16000SOL    HW252848   5.138   8.329   2.658  0.8041 -1.2340  2.8452
16001SOL     OW52849   3.655   6.354   3.575 -0.6840 -0.3681  0.0112
16001SOL    HW152850   3.627   6.398   3.495 -0.3203  1.1707  0.7077
16001SOL    HW252851   3.747   6.332   3.559 -0.9936 -1.3196 -0.5160
16002SOL     OW52852   3.015   8.593   1.924  0.0486  0.4589  0.1736
16002SOL    HW152853   3.021   8.685   1.898  0.0488  1.0597  2.2625
16002SOL    HW252854   2.973   8.550   1.849  0.1168  2.1270 -0.8520
16003SOL     OW52855   5.931   9.606   4.193 -0.2326 -0.4032 -0.0179
16003SOL    HW152856   5.899   9.667   4.259 -1.3136 -1.3727  0.3796
16003SOL    HW252857   5.962   9.661   4.122  0.6662  0.6467  1.1722
16004SOL     OW52858   4.325   8.581   2.279 -0.5924  0.2094  0.0243
16004SOL    HW152859   4.350   8.610   2.366  1.8176 -2.7288  0.3996
16004SOL    HW252860   4.390   8.621   2.221  0.2791 -1.0504  0.0933
16005SOL     OW52861   3.605   7.105   2.981 -0.0026 -0.1703 -0.5286
16005SOL    HW152862   3.546   7.162   3.029  0.6573  0.4777 -0.4885
16005SOL    HW252863   3.598   7.134   2.890 -0.1217 -0.4224 -0.6019
16006SOL     OW52864   5.097   9.856   3.252  0.3248 -0.2639 -0.2339
16006SOL    HW152865   5.035   9.928   3.253  0.2412 -0.3362 -0.1539
16006SOL    HW252866   5.086   9.816   3.165  3.1005  2.1906 -1.7907
16007SOL     OW52867   4.919   9.756   0.485  0.0568 -0.6211  0.6336
16007SOL    HW152868   4.923   9.841   0.529 -0.6325 -0.2284 -0.0365
16007SOL    HW252869   4.859   9.704   0.538 -1.3642  0.0990 -0.2224
16008SOL     OW52870   4.739   8.608   0.535 -0.0725 -0.6137  0.2135
16008SOL    HW152871   4.755   8.665   0.460 -0.9708  1.2117  1.3459
16008SOL    HW252872   4.667   8.552   0.508  0.4852 -0.8690 -0.7554
16009SOL     OW52873   4.376   9.523   2.582  0.0631  0.1373 -0.1471
16009SOL    HW152874   4.410   9.599   2.536  1.7233 -0.1305  0.5964
16009SOL    HW252875   4.283   9.540   2.591  0.4428  2.1597  0.1602
16010SOL     OW52876   3.320   8.663   3.939 -0.4129  0.1248 -0.6855
16010SOL    HW152877   3.228   8.637   3.928 -0.6331  0.9580 -0.8516
16010SOL    HW252878   3.347   8.691   3.851  0.2583 -0.9249 -0.8213
16011SOL     OW52879   2.867   8.606   3.447 -0.2425 -0.2476 -0.5501
16011SOL    HW152880   2.854   8.535   3.383  1.9076  0.4627 -1.8480
16011SOL    HW252881   2.814   8.580   3.522 -1.0722 -2.2445 -1.7618
16012SOL     OW52882   2.989   0.612   4.442  0.6026 -0.2853 -0.3217
16012SOL    HW152883   3.082   0.620   4.424  0.8532 -0.3832  0.8943
16012SOL    HW252884   2.976   0.519   4.462  0.4557 -0.0817  0.5800
16013SOL     OW52885   5.407   9.549   4.641 -0.1810 -0.4636 -0.2490
16013SOL    HW152886   5.436   9.604   4.714  0.7708 -0.7890 -0.3775
16013SOL    HW252887   5.337   9.495   4.677 -1.6501  1.3681 -0.3192
16014SOL     OW52888   4.859   8.396   5.057 -0.6319 -0.1942 -0.0490
16014SOL    HW152889   4.944   8.407   5.014 -0.4117 -1.8061 -0.0450
16014SOL    HW252890   4.854   8.469   5.118  0.2817  0.5265 -0.8228
16015SOL     OW52891   6.651   5.271   4.047  0.3656  0.3468 -0.0138
16015SOL    HW152892   6.595   5.196   4.067  1.0084 -0.0447  0.3239
16015SOL    HW252893   6.674   5.308   4.132  1.3078 -0.0026 -0.1047
16016SOL     OW52894   5.084   8.400   5.333 -0.5952 -0.2950  0.1979
16016SOL    HW152895   5.170   8.362   5.317 -1.0770 -1.1683 -0.3613
16016SOL    HW252896   5.100   8.468   5.398  0.7276  0.4630 -0.8934
16017SOL     OW52897   4.817   8.502   6.279 -0.0818  0.0337 -0.4615
16017SOL    HW152898   4.732   8.537   6.303  0.5163  1.6621 -0.7018
16017SOL    HW252899   4.843   8.551   6.201  0.7078 -1.0318 -0.8944
16018SOL     OW52900   2.697   0.949   3.348  0.2605  0.4480  0.1556
16018SOL    HW152901   2.636   0.927   3.418  1.5804  0.5318  1.3542
16018SOL    HW252902   2.646   0.939   3.268 -1.7921  2.0959  1.1952
16019SOL     OW52903   4.336   0.004   7.176  0.6141  0.0519 -0.6673
16019SOL    HW152904   4.377   0.082   7.213 -0.6251  1.1416 -1.5053
16019SOL    HW252905   4.259   0.038   7.129  0.0324 -1.6806 -1.0075
16020SOL     OW52906   3.823   7.649   4.857 -0.2294  0.8700 -0.2796
16020SOL    HW152907   3.857   7.570   4.814  0.2471  0.9108  0.0154
16020SOL    HW252908   3.818   7.625   4.950  1.9465  1.8648  0.1312
16021SOL     OW52909   2.807   7.746   5.413  0.2137 -0.2915 -0.1664
16021SOL    HW152910   2.733   7.725   5.356 -0.1417  0.6349 -0.0567
16021SOL    HW252911   2.782   7.828   5.455  1.5992  0.3767 -0.6326
16022SOL     OW52912   4.928   8.581   3.505 -0.3979 -0.2474 -0.4790
16022SOL    HW152913   4.927   8.496   3.461 -0.6055 -0.9002  0.7602
16022SOL    HW252914   4.848   8.624   3.476 -1.0303 -1.0749  0.0082
16023SOL     OW52915   4.117   7.733   3.336  0.1315 -0.1446 -0.1571
16023SOL    HW152916   4.084   7.816   3.370 -0.0732 -0.2399 -0.1233
16023SOL    HW252917   4.048   7.670   3.356  0.9890 -0.6587  1.3504
16024SOL     OW52918   3.589   9.680   5.818  0.0335 -0.5011 -0.2455
16024SOL    HW152919   3.589   9.708   5.910 -0.4209 -0.0494 -0.3866
16024SOL    HW252920   3.501   9.646   5.803 -0.2706  0.5620 -0.8655
16025SOL     OW52921   4.775   8.954   4.376  0.0763  0.2382 -0.1236
16025SOL    HW152922   4.818   9.033   4.408  1.4464  0.1460 -1.6594
16025SOL    HW252923   4.773   8.895   4.451  1.0922  0.8963  0.4222
16026SOL     OW52924   3.745   8.696   4.491  0.1689 -0.5359 -0.3385
16026SOL    HW152925   3.769   8.765   4.430 -0.2813 -0.9666 -1.0045
16026SOL    HW252926   3.779   8.726   4.575  1.1354 -0.1205 -0.8636
16027SOL     OW52927   4.606   9.122   3.819  0.6707 -0.0632  0.0290
16027SOL    HW152928   4.584   9.081   3.735 -0.0851  0.0464  0.1671
16027SOL    HW252929   4.621   9.214   3.798 -1.2695  0.3354  0.2620
16028SOL     OW52930   4.647   8.439   3.244 -0.4277  0.0431  0.1564
16028SOL    HW152931   4.684   8.520   3.280  1.0047  0.0412 -1.2475
16028SOL    HW252932   4.676   8.371   3.306  1.8337  0.0709 -0.7943
16029SOL     OW52933   4.406   8.913   4.594  0.1707 -0.3812  0.4720
16029SOL    HW152934   4.353   8.993   4.596 -0.9074 -1.1189  2.1462
16029SOL    HW252935   4.492   8.941   4.626  0.4013  0.5162 -0.8913
16030SOL     OW52936   4.246   9.203   4.483  0.1993  0.1995  0.1419
16030SOL    HW152937   4.179   9.182   4.418 -0.0003  0.2273  0.3381
16030SOL    HW252938   4.197   9.233   4.560  0.3957 -0.5627  0.5708
16031SOL     OW52939   6.278   0.457   4.341 -0.1226  0.2738  0.0160
16031SOL    HW152940   6.203   0.403   4.367 -0.1780  0.7523  0.8457
16031SOL    HW252941   6.288   0.440   4.247  0.3493 -1.7957  0.4182
16032SOL     OW52942   3.844   8.796   4.725  0.0904 -0.1987  0.2389
16032SOL    HW152943   3.851   8.815   4.818 -0.6984 -1.3631  0.5500
16032SOL    HW252944   3.885   8.870   4.682 -1.3786  1.3581  1.4515
16033SOL     OW52945   5.306   8.635   4.749 -0.2236 -0.2549 -0.3477
16033SOL    HW152946   5.278   8.629   4.840  1.3127  0.2696  0.1616
16033SOL    HW252947   5.224   8.631   4.699 -1.2327  1.2372  1.1240
16034SOL     OW52948   4.026   8.416   5.945 -0.0516 -0.4191 -0.3094
16034SOL    HW152949   4.046   8.431   5.852 -0.4707 -3.6180 -0.9897
16034SOL    HW252950   4.110   8.392   5.984  0.1928  1.2818  0.2646
16035SOL     OW52951   2.143   7.177   7.062  0.6111 -0.3908 -0.6404
16035SOL    HW152952   2.142   7.235   7.138 -2.5742  1.6772 -2.1600
16035SOL    HW252953   2.165   7.091   7.098  0.3875  0.7658  2.4380
16036SOL     OW52954   4.541   0.554   3.826  0.0160 -0.1682  0.5227
16036SOL    HW152955   4.616   0.501   3.854 -0.3596 -1.4502 -0.8490
16036SOL    HW252956   4.567   0.644   3.844  1.4372 -0.6797  1.0889
16037SOL     OW52957   5.341   9.352   7.636 -0.2419  0.6327 -0.0357
16037SOL    HW152958   5.330   9.259   7.616  1.8772  0.5220 -0.8382
16037SOL    HW252959   5.402   9.384   7.569  0.0608  2.3028  1.0039
16038SOL     OW52960   5.211   8.504   6.328  0.6839 -0.1252  0.2418
16038SOL    HW152961   5.278   8.444   6.362  0.7003  0.8550  1.9762
16038SOL    HW252962   5.259   8.564   6.270  1.0198 -0.4427  0.1916
16039SOL     OW52963   4.491   6.902   3.193 -0.0307  0.0278  0.0486
16039SOL    HW152964   4.462   6.968   3.130  1.3989  0.4235 -0.2042
16039SOL    HW252965   4.465   6.936   3.278  1.4892  1.3412 -0.0040
16040SOL     OW52966   5.582   9.807   2.442  0.0312 -0.7325  0.1851
16040SOL    HW152967   5.563   9.823   2.535 -2.1882  0.1102 -0.3687
16040SOL    HW252968   5.649   9.871   2.420 -0.2640 -0.1568  0.9281
16041SOL     OW52969   6.784   8.879   5.699  0.6290  0.1879  0.2012
16041SOL    HW152970   6.874   8.856   5.674 -0.2431 -1.4231 -1.6346
16041SOL    HW252971   6.735   8.871   5.618 -1.1982  0.9614  1.2175
16042SOL     OW52972   5.163   7.735   6.564  0.8164 -0.1423  0.1002
16042SOL    HW152973   5.131   7.815   6.523  0.0155 -0.7319 -0.4564
16042SOL    HW252974   5.099   7.715   6.633  1.7794  0.4612  1.1824
16043SOL     OW52975   2.559   8.196   4.727 -0.1876 -0.1093  0.3834
16043SOL    HW152976   2.590   8.272   4.678 -0.7823 -0.1630 -0.0884
16043SOL    HW252977   2.476   8.224   4.765  0.2481 -0.0863  1.3303
16044SOL     OW52978   5.376   9.023   3.770 -0.2248 -0.1211  0.0286
16044SOL    HW152979   5.287   8.989   3.770  0.7721 -2.9621 -2.5969
16044SOL    HW252980   5.374   9.096   3.708 -0.5078 -0.7935 -0.7525
16045SOL     OW52981   5.048   8.057   4.129 -0.1494 -0.3871  0.0078
16045SOL    HW152982   5.054   8.050   4.224  1.7927  1.3270  0.0555
16045SOL    HW252983   5.002   8.140   4.114 -2.5175 -1.7790 -0.5597
16046SOL     OW52984   6.147   8.443   4.202  0.3546  0.3204  0.1022
16046SOL    HW152985   6.209   8.422   4.272  0.1144 -1.5990 -0.2417
16046SOL    HW252986   6.071   8.478   4.247 -0.0523 -1.5226  0.8608
16047SOL     OW52987   7.006   9.927   3.575  0.1198 -0.3991 -0.6762
16047SOL    HW152988   7.097   9.944   3.549 -0.1384  1.5286 -0.3917
16047SOL    HW252989   6.953   9.973   3.509 -0.6898 -2.1890 -1.3143
16048SOL     OW52990   4.254   8.349   4.037  0.0730 -0.2043 -0.2964
16048SOL    HW152991   4.341   8.339   3.999  0.6681 -0.7988  1.1726
16048SOL    HW252992   4.208   8.408   3.977  1.7087  0.6531 -0.7353
16049SOL     OW52993   4.700   7.114   7.419 -0.0581  0.0643 -0.1133
16049SOL    HW152994   4.680   7.207   7.406  0.3317 -0.0266 -1.4540
16049SOL    HW252995   4.630   7.082   7.477 -1.4142  0.6915 -1.3840
16050SOL     OW52996   5.060   8.783   5.971  0.0429  0.3555 -0.3439
16050SOL    HW152997   5.069   8.865   6.018 -0.7446 -0.5118  1.3547
16050SOL    HW252998   5.150   8.754   5.954  0.3957 -0.4978  2.7255
16051SOL     OW52999   4.739   8.734   6.517 -0.2801 -0.1344 -0.0689
16051SOL    HW153000   4.832   8.715   6.507  0.3194  1.3260  2.3781
16051SOL    HW253001   4.720   8.796   6.447  1.0502  1.0101  0.5603
16052SOL     OW53002   4.701   8.670   4.886 -0.6559  0.1189 -0.2657
16052SOL    HW153003   4.655   8.732   4.943 -2.7638 -1.3091 -0.3785
16052SOL    HW253004   4.793   8.684   4.907 -1.2877  0.6623  2.4560
16053SOL     OW53005   2.910   9.490   3.955 -0.1366  0.2042  0.2159
16053SOL    HW153006   2.840   9.518   4.015 -1.4735 -0.7158 -0.8997
16053SOL    HW253007   2.946   9.572   3.921 -1.5364  0.6616 -0.1927
16054SOL     OW53008   5.092   8.027   5.784 -0.6604 -0.2743 -0.2493
16054SOL    HW153009   5.132   7.966   5.722 -0.8041  0.0452 -0.6533
16054SOL    HW253010   5.075   8.106   5.734 -1.1094 -0.1402  0.1035
16055SOL     OW53011   6.977   7.872   6.738 -0.4680  0.1786  0.2317
16055SOL    HW153012   6.962   7.965   6.755  0.3884  0.8217 -2.4127
16055SOL    HW253013   7.005   7.837   6.823 -0.1483  2.4469  1.0915
16056SOL     OW53014   4.504   8.966   3.074  0.4403  0.2595 -0.1890
16056SOL    HW153015   4.520   9.047   3.025 -2.9397  1.2115  0.1608
16056SOL    HW253016   4.423   8.931   3.037  0.3467 -1.4900  1.5894
16057SOL     OW53017   4.274   8.259   6.552  0.2656  0.5726  0.2043
16057SOL    HW153018   4.342   8.215   6.500 -0.8453 -0.5421 -0.3184
16057SOL    HW253019   4.196   8.205   6.541 -1.0287  2.4558 -0.1427
16058SOL     OW53020   4.501   0.277   3.599  0.1031 -0.6244  0.0974
16058SOL    HW153021   4.485   0.368   3.576  0.7695 -0.1018  1.6379
16058SOL    HW253022   4.430   0.254   3.658  1.0832 -0.4428  1.3758
16059SOL     OW53023   3.100   9.028   3.625 -0.0464  0.3007  0.8095
16059SOL    HW153024   3.111   8.941   3.588  0.6396  0.4514  0.6472
16059SOL    HW253025   3.099   9.014   3.719 -1.5945 -0.0613  0.7443
16060SOL     OW53026   4.394   8.542   6.458 -0.5106 -0.1569  0.0786
16060SOL    HW153027   4.380   8.622   6.408  1.1578  0.2441  0.2213
16060SOL    HW253028   4.310   8.524   6.500 -1.5200  0.3067 -1.6854
16061SOL     OW53029   3.921   0.698   5.156 -0.7080 -0.3436  0.3526
16061SOL    HW153030   3.949   0.789   5.161  1.9309 -0.9659 -2.1307
16061SOL    HW253031   3.954   0.658   5.237 -0.6206  0.5678  0.7720
16062SOL     OW53032   3.947   8.439   3.919  0.6124  0.5584  0.3503
16062SOL    HW153033   3.859   8.473   3.906  0.3328 -0.0717  0.6166
16062SOL    HW253034   4.002   8.517   3.923  0.1123  0.9384 -0.1438
16063SOL     OW53035   5.872   0.357   3.649 -0.6523 -0.0028  0.0222
16063SOL    HW153036   5.792   0.386   3.692  1.3273  4.7695  0.7865
16063SOL    HW253037   5.875   0.408   3.568  1.5711 -0.1379 -0.0090
16064SOL     OW53038   3.730   7.193   8.565 -0.0513  0.0754  0.4407
16064SOL    HW153039   3.752   7.257   8.633  1.0870 -0.2808  0.4067
16064SOL    HW253040   3.759   7.233   8.483 -2.5021  1.0318 -0.0170
16065SOL     OW53041   4.385   6.751   2.897  0.0988  0.6195  0.2405
16065SOL    HW153042   4.455   6.703   2.942 -0.8471 -0.2468  0.8029
16065SOL    HW253043   4.425   6.835   2.874  1.3424  0.1153  0.5091
16066SOL     OW53044   3.412   7.895   5.661 -0.1536  0.0998  0.7779
16066SOL    HW153045   3.494   7.884   5.709  0.0943  0.3550  0.4221
16066SOL    HW253046   3.438   7.936   5.578 -0.3446 -1.9528 -0.3316
16067SOL     OW53047   5.113   9.893   4.031 -0.2600  0.6196 -0.0665
16067SOL    HW153048   5.041   9.885   4.094  0.4768 -0.1368  0.6852
16067SOL    HW253049   5.163   9.813   4.041  0.7139  1.1599 -0.5621
16068SOL     OW53050   6.186   9.767   4.544  0.5338  0.3276  0.3586
16068SOL    HW153051   6.128   9.732   4.612 -0.3236  0.1695 -0.4444
16068SOL    HW253052   6.149   9.734   4.462  0.1670  2.4601 -0.3613
16069SOL     OW53053   4.365   8.822   1.386  0.0450  0.4474 -0.2288
16069SOL    HW153054   4.357   8.849   1.477  1.4047 -1.6991  0.5639
16069SOL    HW253055   4.305   8.748   1.377  0.1272  0.4655 -0.9873
16070SOL     OW53056   3.461   8.590   6.026  0.4765 -0.0247  0.1444
16070SOL    HW153057   3.396   8.520   6.021 -0.1848  0.6556 -1.0703
16070SOL    HW253058   3.531   8.554   6.081 -0.5793 -1.0390  0.8499
16071SOL     OW53059   5.224   7.726   3.111  0.9489  0.4241 -0.3967
16071SOL    HW153060   5.199   7.798   3.053 -0.5881 -0.3230 -0.6858
16071SOL    HW253061   5.263   7.769   3.187 -1.7752  1.6822  0.3472
16072SOL     OW53062   5.814   7.783   6.386  0.0012 -0.4698 -0.0682
16072SOL    HW153063   5.896   7.753   6.347  0.2922 -1.1311  1.0179
16072SOL    HW253064   5.821   7.878   6.387  0.2161 -0.4708 -1.1256
16073SOL     OW53065   6.078   5.892   2.441  0.0198  0.3769  0.2038
16073SOL    HW153066   6.119   5.944   2.372  1.6839  0.3056  1.1108
16073SOL    HW253067   6.085   5.801   2.410  0.6943  0.3510  0.4221
16074SOL     OW53068   4.442   7.732   6.250 -0.2459  0.0744  0.2598
16074SOL    HW153069   4.517   7.784   6.279 -1.0685  0.9509  0.8282
16074SOL    HW253070   4.437   7.660   6.312  1.1407 -0.9303 -0.7619
16075SOL     OW53071   6.137   8.561   5.803 -0.2455 -0.2434  0.0265
16075SOL    HW153072   6.147   8.655   5.818 -0.1290 -0.3996  0.9943
16075SOL    HW253073   6.054   8.553   5.756 -0.0951  0.3711 -0.3434
16076SOL     OW53074   6.745   7.351   6.529  0.0287 -0.0261  0.3279
16076SOL    HW153075   6.686   7.422   6.555 -0.4060 -0.4502  0.5129
16076SOL    HW253076   6.794   7.330   6.608  0.3071  0.2110  0.2186
16077SOL     OW53077   3.230   7.736   4.778 -0.0460  0.2105 -0.0035
16077SOL    HW153078   3.299   7.685   4.821 -0.4171 -0.6263 -0.3806
16077SOL    HW253079   3.217   7.692   4.694 -0.4816  0.8374 -0.2672
16078SOL     OW53080   4.953   7.793   4.798 -0.1894  0.1494  0.3664
16078SOL    HW153081   4.911   7.749   4.724  0.2020  2.3858 -1.2385
16078SOL    HW253082   5.047   7.776   4.787 -0.1733  0.0561  0.6387
16079SOL     OW53083   5.807   7.530   4.751  0.5821 -0.1563  0.1932
16079SOL    HW153084   5.715   7.521   4.727  0.6968 -1.5678  0.2507
16079SOL    HW253085   5.806   7.550   4.844  0.3029  0.9585 -0.0363
16080SOL     OW53086   6.308   8.246   4.302  0.0137 -0.5308  0.0659
16080SOL    HW153087   6.375   8.198   4.253  1.0135  1.6171 -0.6956
16080SOL    HW253088   6.269   8.180   4.360  2.0327 -2.0430 -0.2633
16081SOL     OW53089   4.098   6.345   2.583  0.4154  0.0953 -0.3121
16081SOL    HW153090   4.069   6.267   2.630 -2.1019 -0.3960 -2.5554
16081SOL    HW253091   4.137   6.401   2.650 -0.1242 -1.9561  1.7669
16082SOL     OW53092   4.337   5.972   3.136  0.0341  0.5629  0.2249
16082SOL    HW153093   4.251   6.012   3.122  1.1412  2.7948 -0.5505
16082SOL    HW253094   4.398   6.046   3.137  2.0562 -1.0356 -0.1249
16083SOL     OW53095   5.998   8.049   3.616  0.4030 -0.0484  0.0301
16083SOL    HW153096   5.953   8.040   3.700 -0.0121  1.4073 -0.0331
16083SOL    HW253097   6.091   8.037   3.637  0.8646  5.1188  1.5511
16084SOL     OW53098   2.871   7.178   5.940 -0.7222 -0.2681 -0.8154
16084SOL    HW153099   2.893   7.264   5.976  0.2857 -1.3187  1.1322
16084SOL    HW253100   2.840   7.128   6.015  2.1502 -2.7451 -1.2225
16085SOL     OW53101   4.560   9.967   2.510 -0.0154  0.2502  0.1531
16085SOL    HW153102   4.627  10.013   2.460 -0.4325 -0.4194 -1.0455
16085SOL    HW253103   4.606   9.928   2.584  1.0663 -0.9124 -1.1171
16086SOL     OW53104   3.130   9.580   5.414 -0.1171  0.0306 -0.5386
16086SOL    HW153105   3.175   9.535   5.343  0.5641 -1.0421  0.5516
16086SOL    HW253106   3.062   9.518   5.442 -0.9409  0.8004 -0.8237
16087SOL     OW53107   3.343   8.673   4.209 -0.3701 -0.5473 -0.1801
16087SOL    HW153108   3.330   8.764   4.233 -0.9057 -0.3682 -1.1661
16087SOL    HW253109   3.357   8.674   4.115  4.7835 -0.9087  0.4265
16088SOL     OW53110   2.877   7.683   5.052  0.6508 -0.6468 -0.2488
16088SOL    HW153111   2.932   7.657   5.126 -0.4973 -0.0504  0.8397
16088SOL    HW253112   2.818   7.609   5.039 -1.2017  0.4498  1.4745
16089SOL     OW53113   4.161   8.157   5.092 -0.2010  0.1892 -0.0537
16089SOL    HW153114   4.162   8.242   5.048 -0.9367 -0.0760 -0.6025
16089SOL    HW253115   4.237   8.111   5.058  0.0109  0.5051 -0.0069
16090SOL     OW53116   3.567   7.961   5.878 -0.1953 -0.2425 -0.6362
16090SOL    HW153117   3.542   8.050   5.902 -2.0258 -1.3657  1.8451
16090SOL    HW253118   3.507   7.905   5.927  2.0288 -2.8759 -0.7701
16091SOL     OW53119   3.275   7.819   2.546 -0.0154  0.0270  0.2128
16091SOL    HW153120   3.365   7.853   2.542 -0.6236  1.7864  1.1954
16091SOL    HW253121   3.230   7.862   2.474 -0.1082 -0.7797 -0.2164
16092SOL     OW53122   4.205   0.384   4.601  0.0044  0.1767 -0.3286
16092SOL    HW153123   4.154   0.305   4.616  0.0155 -0.0347 -1.4104
16092SOL    HW253124   4.295   0.360   4.624 -0.3576  0.5506  1.5832
16093SOL     OW53125   3.300   8.952   4.226  0.3349  0.1025  0.5838
16093SOL    HW153126   3.212   8.990   4.229 -0.7905 -2.2262 -1.0722
16093SOL    HW253127   3.358   9.023   4.256 -2.0141  1.9160  0.9912
16094SOL     OW53128   5.532   8.542   3.756  0.0104  0.1126  0.4075
16094SOL    HW153129   5.484   8.478   3.809  0.2333 -0.9399 -0.6308
16094SOL    HW253130   5.527   8.507   3.667  1.1374  0.9407  0.0128
16095SOL     OW53131   3.101   9.054   2.515 -0.0409  0.0077 -0.0756
16095SOL    HW153132   3.020   9.029   2.557 -0.5060  0.5147 -0.6495
16095SOL    HW253133   3.075   9.082   2.427  0.8925 -0.9285 -0.6597
16096SOL     OW53134   5.162   8.503   4.123  0.4945 -0.7613 -0.1596
16096SOL    HW153135   5.151   8.568   4.054  2.3539  0.5795  0.7727
16096SOL    HW253136   5.109   8.429   4.095 -1.3693  1.0091 -1.4159
16097SOL     OW53137   5.833   8.386   3.514 -0.1621  0.9184 -0.0267
16097SOL    HW153138   5.740   8.403   3.524 -0.2464  0.6271 -0.2979
16097SOL    HW253139   5.838   8.319   3.446  0.3322  2.0565 -1.1287
16098SOL     OW53140   2.181   9.393   4.147  0.3283 -0.1694 -0.1344
16098SOL    HW153141   2.092   9.429   4.149  0.1786 -0.6489  2.2279
16098SOL    HW253142   2.230   9.445   4.210  1.5683 -0.3954 -0.8819
16099SOL     OW53143   5.716   8.326   3.246 -0.1403  0.3207 -0.0892
16099SOL    HW153144   5.677   8.407   3.215 -0.1634 -0.8327 -3.3252
16099SOL    HW253145   5.657   8.257   3.215  1.3375 -1.0797  0.1211
16100SOL     OW53146   5.736   8.000   3.702 -0.2274  0.0334 -0.7082
16100SOL    HW153147   5.675   8.072   3.692 -0.7235 -0.2006  0.5369
16100SOL    HW253148   5.740   7.960   3.615 -0.2272  1.3204 -1.3153
16101SOL     OW53149   4.611   8.017   6.559  0.1384 -0.3115 -0.6413
16101SOL    HW153150   4.615   7.958   6.634  0.5899 -0.6080 -0.8941
16101SOL    HW253151   4.696   8.061   6.558 -0.1629  0.2862 -0.5046
16102SOL     OW53152   4.147   9.582   5.670  0.8401  0.5117  0.0352
16102SOL    HW153153   4.117   9.528   5.597  2.8227  0.0615 -0.4694
16102SOL    HW253154   4.192   9.656   5.628  0.0912  1.4056  0.7703
16103SOL     OW53155   6.434   8.393   3.384  0.5606 -0.4221  0.1582
16103SOL    HW153156   6.352   8.438   3.403  1.1911 -0.3550  2.9098
16103SOL    HW253157   6.409   8.314   3.337 -1.0224 -0.0425  0.3541
16104SOL     OW53158   3.667   7.799   6.423 -0.1871 -0.7177 -0.5886
16104SOL    HW153159   3.640   7.876   6.373 -0.6869  0.5925  1.6122
16104SOL    HW253160   3.598   7.734   6.406 -1.5938  0.5247  0.2404
16105SOL     OW53161   3.599   9.836   6.484 -0.2235 -0.0688 -0.1908
16105SOL    HW153162   3.680   9.880   6.459  0.1396  0.3280  1.6499
16105SOL    HW253163   3.530   9.897   6.459 -0.0609 -0.9783 -3.0103
16106SOL     OW53164   4.197   9.435   2.346  0.4688 -0.1792  0.3481
16106SOL    HW153165   4.147   9.423   2.266 -0.1786 -0.0128  0.7201
16106SOL    HW253166   4.132   9.461   2.411  0.9869 -0.3052  0.9242
16107SOL     OW53167   4.252   9.768   7.324  0.4521 -0.1546  0.1199
16107SOL    HW153168   4.317   9.747   7.392  0.5948 -1.5954 -0.4504
16107SOL    HW253169   4.292   9.839   7.274  0.9244  0.0119  0.7238
16108SOL     OW53170   3.377   8.004   3.732 -0.2731  0.6896 -0.0820
16108SOL    HW153171   3.348   8.058   3.805 -1.7838 -2.5840  1.8443
16108SOL    HW253172   3.310   8.017   3.664 -1.7773 -0.3017  1.1629
16109SOL     OW53173   2.777   8.220   4.494 -0.1281  0.3106  0.3964
16109SOL    HW153174   2.743   8.145   4.543 -1.9269  1.0464  0.3009
16109SOL    HW253175   2.711   8.288   4.506 -0.6512  0.5037 -3.0592
16110SOL     OW53176   3.992   8.632   2.128 -0.0539  0.9504 -0.1280
16110SOL    HW153177   3.933   8.578   2.181  0.7573  0.3301  0.1530
16110SOL    HW253178   3.934   8.682   2.071 -0.9018  1.1742  0.9246
16111SOL     OW53179   5.629   8.095   3.393 -0.4807 -0.0875 -0.6883
16111SOL    HW153180   5.582   8.163   3.441  2.1238  1.6103 -0.4138
16111SOL    HW253181   5.583   8.088   3.309 -0.6576  2.1975 -0.8178
16112SOL     OW53182   5.509   9.205   3.573  0.4781  0.9792  0.4668
16112SOL    HW153183   5.594   9.171   3.545  0.0330  0.8620 -0.7457
16112SOL    HW253184   5.457   9.211   3.493 -1.1070 -0.2106  1.3574
16113SOL     OW53185   5.507   8.150   4.325 -0.2853  0.0712 -0.3049
16113SOL    HW153186   5.452   8.212   4.277  2.5151  1.9001 -1.2432
16113SOL    HW253187   5.564   8.112   4.258  0.9131 -0.3546  0.9358
16114SOL     OW53188   5.845   7.350   4.363 -0.2594 -0.6791  0.6799
16114SOL    HW153189   5.866   7.277   4.422 -0.6554 -0.2868  1.3059
16114SOL    HW253190   5.869   7.429   4.413 -2.5407 -0.2530  1.1266
16115SOL     OW53191   3.433   7.872   5.111 -0.2456  0.1891 -0.6721
16115SOL    HW153192   3.361   7.924   5.147 -0.2756  0.8232 -1.6346
16115SOL    HW253193   3.510   7.901   5.160 -0.6330 -0.5230  0.3909
16116SOL     OW53194   3.497   7.991   7.147  0.0867 -0.2905 -0.4090
16116SOL    HW153195   3.506   7.904   7.110  0.4786 -1.2203  1.8151
16116SOL    HW253196   3.491   8.049   7.071 -2.4389 -2.4457 -1.9576
16117SOL     OW53197   3.705   9.011   4.106 -0.3488 -0.1480  0.0687
16117SOL    HW153198   3.733   9.101   4.092 -1.6277  0.1561 -0.6522
16117SOL    HW253199   3.709   8.998   4.201  0.2359  0.5348  0.1339
16118SOL     OW53200   3.222   9.230   4.066  0.0090 -0.1653  0.5685
16118SOL    HW153201   3.141   9.226   4.015 -0.5045  0.6015  1.3049
16118SOL    HW253202   3.203   9.292   4.136  1.5596  0.7508  0.1992
16119SOL     OW53203   3.176   8.524   2.895 -0.3343  0.0665 -0.5226
16119SOL    HW153204   3.145   8.610   2.866  0.3471  0.7838  0.8201
16119SOL    HW253205   3.259   8.512   2.850 -1.1650 -0.5895 -1.9107
16120SOL     OW53206   3.671   7.802   6.937  0.1801 -0.6940  0.0286
16120SOL    HW153207   3.628   7.827   6.855  0.1819  0.0187  0.2361
16120SOL    HW253208   3.746   7.750   6.910  1.8272  1.9234 -0.5899
16121SOL     OW53209   3.583   8.661   4.941  0.0027 -0.0547  0.4610
16121SOL    HW153210   3.536   8.676   4.859 -1.3104  2.4355  1.6396
16121SOL    HW253211   3.669   8.630   4.913 -0.5416  0.4294 -1.8572
16122SOL     OW53212   3.921   8.058   4.996 -0.0825 -0.5116  0.1749
16122SOL    HW153213   3.858   8.111   5.044 -0.5137  0.0542 -1.0039
16122SOL    HW253214   4.006   8.099   5.014 -0.3078  0.0336  0.0055
16123SOL     OW53215   5.061   8.978   4.001 -0.2802 -0.2275 -1.0424
16123SOL    HW153216   5.053   9.059   3.950 -2.9674 -0.7253 -1.4986
16123SOL    HW253217   4.980   8.974   4.052  1.2354 -1.0311  1.4203
16124SOL     OW53218   3.740   8.777   3.340  0.5479 -0.2388  0.3390
16124SOL    HW153219   3.758   8.778   3.246  1.0624  0.9459  0.4460
16124SOL    HW253220   3.776   8.859   3.373 -1.7987  0.4904  1.1935
16125SOL     OW53221   5.252   6.057   3.063 -0.2877  0.0513 -0.1842
16125SOL    HW153222   5.196   6.133   3.048  0.4265  0.1994 -2.2457
16125SOL    HW253223   5.202   5.983   3.028 -0.8951 -0.4211  1.6333
16126SOL     OW53224   5.531   8.339   2.509  0.2064 -0.0224 -0.2092
16126SOL    HW153225   5.551   8.368   2.420  0.2197  1.6023  0.3092
16126SOL    HW253226   5.595   8.270   2.527 -1.3766 -2.1722 -2.3583
16127SOL     OW53227   5.411   9.689   5.673  0.3348  0.2541  0.0765
16127SOL    HW153228   5.487   9.653   5.628  1.0805  0.0098  1.5045
16127SOL    HW253229   5.372   9.750   5.610  0.8378 -0.7429 -1.2142
16128SOL     OW53230   5.403   0.010   5.772 -0.1503 -0.0044 -0.4388
16128SOL    HW153231   5.356   0.092   5.788 -0.5472 -0.5005  1.0079
16128SOL    HW253232   5.337  -0.048   5.732 -1.0510 -0.9459  2.2593
16129SOL     OW53233   3.638   8.744   7.435  0.6161  0.1121  0.5014
16129SOL    HW153234   3.686   8.687   7.495 -0.4441 -1.0896  0.2125
16129SOL    HW253235   3.645   8.831   7.475 -0.7020 -0.7817  2.7862
16130SOL     OW53236   6.246   8.928   2.578  0.3054  0.7825  0.1532
16130SOL    HW153237   6.217   9.012   2.614  0.9183  0.3971  1.5930
16130SOL    HW253238   6.276   8.949   2.489  1.3520  2.2666  0.8367
16131SOL     OW53239   3.854   9.746   2.052 -0.2101  0.3450 -0.3377
16131SOL    HW153240   3.901   9.688   2.113  0.7898  1.4136 -0.0651
16131SOL    HW253241   3.804   9.687   1.996  0.9830 -0.8002 -0.2286
16132SOL     OW53242   4.519   8.201   5.814 -0.2462  0.1901 -0.2420
16132SOL    HW153243   4.470   8.283   5.828  0.0133  0.4541 -0.8491
16132SOL    HW253244   4.545   8.174   5.902 -3.0141 -0.9211  0.3043
16133SOL     OW53245   4.277   9.318   5.670  0.4041 -0.2661 -0.2130
16133SOL    HW153246   4.220   9.382   5.714  0.4651  0.5480 -1.3018
16133SOL    HW253247   4.262   9.333   5.577  1.5839 -0.8067 -0.4922
16134SOL     OW53248   2.744   8.116   5.266  0.4659 -0.4755 -0.4226
16134SOL    HW153249   2.785   8.095   5.182  0.6344 -1.4731 -0.0995
16134SOL    HW253250   2.751   8.035   5.317 -1.0924 -0.3748 -0.0330
16135SOL     OW53251   3.838   8.901   6.890  0.3402  0.2810 -0.1949
16135SOL    HW153252   3.835   8.923   6.983 -1.4346  0.1940 -0.2104
16135SOL    HW253253   3.802   8.978   6.846  2.2921  0.7999 -0.9123
16136SOL     OW53254   6.090   8.096   4.643  0.1844  0.0228 -0.2034
16136SOL    HW153255   6.093   8.051   4.558 -0.8799  2.1164 -1.4226
16136SOL    HW253256   6.096   8.189   4.620 -0.9199  0.6593  1.9742
16137SOL     OW53257   2.767   9.163   3.232  0.7748  0.7026 -0.3229
16137SOL    HW153258   2.846   9.121   3.267 -0.5746 -1.4029  0.3104
16137SOL    HW253259   2.800   9.229   3.171  3.0156 -1.1983 -1.2684
16138SOL     OW53260   3.062   8.174   5.137  0.5594 -0.4017  0.4112
16138SOL    HW153261   3.023   8.224   5.208 -0.0352 -2.2212  1.4066
16138SOL    HW253262   3.011   8.093   5.134  1.4587 -0.9354 -1.1836
16139SOL     OW53263   2.796   9.361   4.509  0.4135  0.2066  0.2709
16139SOL    HW153264   2.800   9.339   4.416 -0.7250 -2.2920  0.7883
16139SOL    HW253265   2.773   9.454   4.511  1.3528  0.5077 -1.9373
16140SOL     OW53266   3.802   9.557   7.312  0.3449 -0.2337  0.8095
16140SOL    HW153267   3.852   9.597   7.241  0.4738  0.1135  1.0949
16140SOL    HW253268   3.730   9.617   7.328  0.7126  0.0396  1.4481
16141SOL     OW53269   2.939   7.503   5.430 -0.6416 -0.2860  0.6224
16141SOL    HW153270   2.912   7.595   5.431  0.0659 -0.0827  1.8720
16141SOL    HW253271   2.914   7.470   5.516  0.6076 -0.8266  0.7795
16142SOL     OW53272   3.572   8.153   6.544 -0.6070 -0.1966 -0.1873
16142SOL    HW153273   3.601   8.142   6.453 -0.0334  1.5477 -0.2401
16142SOL    HW253274   3.491   8.102   6.550 -0.2213 -0.9710 -1.4574
16143SOL     OW53275   3.567   6.901   3.808 -0.3207  0.5835  0.6248
16143SOL    HW153276   3.474   6.881   3.799 -0.0657  0.0411 -0.9260
16143SOL    HW253277   3.606   6.876   3.724  1.1702  1.1308  1.1257
16144SOL     OW53278   4.207   8.237   5.402 -0.6384  0.2225 -0.0848
16144SOL    HW153279   4.215   8.240   5.307  0.2714  2.2609  0.0181
16144SOL    HW253280   4.298   8.229   5.433 -0.3480  5.2106  0.7057
16145SOL     OW53281   4.807   8.368   5.345  0.3921  1.0863  0.0985
16145SOL    HW153282   4.896   8.367   5.308 -0.3724  1.4666 -1.7866
16145SOL    HW253283   4.766   8.446   5.309 -1.4870 -0.3237 -0.9149
16146SOL     OW53284   3.910   8.574   5.213 -0.0391 -0.0462  0.0523
16146SOL    HW153285   3.971   8.572   5.139  0.4305 -1.2509  0.4551
16146SOL    HW253286   3.959   8.618   5.283 -0.0485  0.0336  0.0084
16147SOL     OW53287   3.759   8.378   5.890 -0.4738  0.5137 -0.4395
16147SOL    HW153288   3.853   8.372   5.903 -0.5092 -0.6752 -0.6290
16147SOL    HW253289   3.736   8.467   5.918  0.4862  0.3311  1.0035
16148SOL     OW53290   5.592   8.409   5.700  0.8128  0.7171 -0.2004
16148SOL    HW153291   5.529   8.387   5.632  2.3679  0.4403 -1.5848
16148SOL    HW253292   5.547   8.390   5.782 -0.3043 -1.0781 -1.1973
16149SOL     OW53293   5.223   7.514   2.922  0.1542 -0.1915  0.6478
16149SOL    HW153294   5.222   7.566   3.002  2.3875  1.2837 -0.2431
16149SOL    HW253295   5.202   7.575   2.852 -1.1836 -1.3435  0.0138
16150SOL     OW53296   3.828   9.111   4.951 -0.1077  0.0328  0.0800
16150SOL    HW153297   3.911   9.158   4.961  0.8014 -1.7307  1.0423
16150SOL    HW253298   3.761   9.178   4.965  1.1328  1.6898 -1.6557
16151SOL     OW53299   2.536   0.367   4.247 -0.3592  0.2818 -0.0333
16151SOL    HW153300   2.470   0.304   4.277 -0.4611  0.3048 -0.2092
16151SOL    HW253301   2.485   0.439   4.209 -0.2053 -0.3434 -1.4586
16152SOL     OW53302   5.336   8.354   3.880 -0.7057  0.2213 -0.2725
16152SOL    HW153303   5.247   8.381   3.859 -1.1760 -0.2505  1.1174
16152SOL    HW253304   5.328   8.265   3.912  0.4105 -0.2463 -1.2440
16153SOL     OW53305   5.519   8.802   4.859  0.3399  0.8540  0.2970
16153SOL    HW153306   5.486   8.861   4.790  0.4478  1.5152  0.8076
16153SOL    HW253307   5.494   8.715   4.829  0.2391  1.1516 -0.5049
16154SOL     OW53308   7.290   8.563   3.480 -1.0195 -0.0480  0.3965
16154SOL    HW153309   7.348   8.549   3.405  0.4619  1.5943  1.1885
16154SOL    HW253310   7.209   8.595   3.442 -1.5896 -2.7440 -0.7609
16155SOL     OW53311   3.200   8.777   4.498 -0.0937 -0.4842 -0.4183
16155SOL    HW153312   3.272   8.820   4.544  0.3223  0.0745 -1.5683
16155SOL    HW253313   3.140   8.847   4.476  0.0763 -0.6340 -1.3802
16156SOL     OW53314   3.280   9.847   1.884  0.1507 -0.4349  0.0141
16156SOL    HW153315   3.341   9.800   1.942  1.5452  0.2789 -0.8559
16156SOL    HW253316   3.219   9.889   1.944  0.8093 -0.7435  0.9301
16157SOL     OW53317   7.893   7.424   3.012 -0.4266 -0.0463  0.0267
16157SOL    HW153318   7.927   7.491   2.953 -0.9332 -1.0548 -1.4577
16157SOL    HW253319   7.937   7.440   3.095  2.2400 -0.1481 -1.3238
16158SOL     OW53320   3.673   7.318   4.700  0.2001 -0.4989 -0.2585
16158SOL    HW153321   3.634   7.231   4.708 -1.1028 -0.2429 -3.2432
16158SOL    HW253322   3.617   7.374   4.755 -0.4945 -1.0806 -0.3602
16159SOL     OW53323   5.441   9.369   3.764  0.3058  0.5383 -0.3048
16159SOL    HW153324   5.461   9.319   3.684 -3.9824 -0.1155 -1.1130
16159SOL    HW253325   5.394   9.446   3.732 -0.9205  0.5689  1.5350
16160SOL     OW53326   5.781   8.720   4.939 -0.7000  0.2700  0.2254
16160SOL    HW153327   5.815   8.645   4.892 -1.4206  0.1275 -0.0734
16160SOL    HW253328   5.690   8.729   4.908 -1.1847  0.1664  1.5831
16161SOL     OW53329   4.841   6.580   2.688  0.4685 -0.4641 -0.0589
16161SOL    HW153330   4.886   6.547   2.610 -0.5195  0.9011 -1.2417
16161SOL    HW253331   4.861   6.674   2.689  0.0402 -0.3835  1.0174
16162SOL     OW53332   4.673   8.047   4.887  0.4836 -0.3322  0.1501
16162SOL    HW153333   4.698   8.128   4.843 -1.4625  0.9829  1.3896
16162SOL    HW253334   4.746   8.028   4.946  0.8354  0.6634  0.0401
16163SOL     OW53335   4.106   8.022   6.587  0.1855 -0.4149  0.2274
16163SOL    HW153336   4.062   8.009   6.671  1.0156  0.0454  0.7434
16163SOL    HW253337   4.190   7.976   6.597  0.9883  1.0299  0.2604
16164SOL     OW53338   7.085   9.591   3.693 -0.2150 -0.2472  0.1152
16164SOL    HW153339   7.070   9.539   3.614 -1.5029  0.3914 -0.0627
16164SOL    HW253340   7.159   9.548   3.736 -0.3939 -1.4211 -0.7307
16165SOL     OW53341   2.764   9.502   6.415 -0.1822 -0.4425 -0.5253
16165SOL    HW153342   2.721   9.586   6.430 -0.3413 -0.5335 -0.4663
16165SOL    HW253343   2.802   9.478   6.500 -1.3608 -1.1192 -0.1836
16166SOL     OW53344   3.669   9.810   4.147  0.2791 -0.1781 -0.1565
16166SOL    HW153345   3.583   9.848   4.166  2.2173  3.6854  1.4383
16166SOL    HW253346   3.688   9.753   4.222 -0.3648 -0.0704  0.0874
16167SOL     OW53347   6.748   7.987   4.081  0.1139 -0.0982  0.6027
16167SOL    HW153348   6.727   8.011   3.991  0.5520  0.9435  0.7637
16167SOL    HW253349   6.762   7.893   4.079  0.2917 -0.0511 -0.4543
16168SOL     OW53350   3.344   9.645   4.438 -0.5782 -0.7107  0.0923
16168SOL    HW153351   3.257   9.685   4.430 -0.9571 -1.2932  1.1369
16168SOL    HW253352   3.347   9.578   4.369  0.1199  1.1882 -1.7687
16169SOL     OW53353   3.180   7.752   5.249  0.6411  0.1949 -0.2963
16169SOL    HW153354   3.115   7.686   5.226  1.6208 -0.9046  0.0797
16169SOL    HW253355   3.180   7.813   5.175  1.2070 -1.3579 -1.5913
16170SOL     OW53356   2.958   6.877   4.690  0.2721  0.0114  0.5398
16170SOL    HW153357   3.013   6.953   4.674  0.4714 -0.2527 -0.0366
16170SOL    HW253358   2.898   6.905   4.758  0.5552  0.5828  0.5558
16171SOL     OW53359   4.763   8.995   4.065  0.0691  0.0468 -0.6668
16171SOL    HW153360   4.768   8.969   4.157  0.2453  0.1903 -0.6363
16171SOL    HW253361   4.670   8.998   4.045  0.0512 -3.2779 -1.4094
16172SOL     OW53362   4.752   8.730   4.600 -0.4472 -0.0970  0.1532
16172SOL    HW153363   4.706   8.684   4.670  1.1411 -1.8605  0.0807
16172SOL    HW253364   4.834   8.681   4.589  0.7947  2.1102 -0.6994
16173SOL     OW53365   4.689   8.686   3.399 -0.3075  0.1858  0.8403
16173SOL    HW153366   4.684   8.728   3.313 -1.0813 -2.3694 -0.3866
16173SOL    HW253367   4.604   8.703   3.439 -0.0226  1.1941  1.0302
16174SOL     OW53368   3.492   9.090   5.445  0.6223 -0.8602 -0.1258
16174SOL    HW153369   3.486   9.054   5.533 -0.0813 -1.1711 -0.2971
16174SOL    HW253370   3.450   9.175   5.451  2.8070  0.2104  0.4180
16175SOL     OW53371   4.020   8.008   5.292  0.6492 -0.1897 -0.2946
16175SOL    HW153372   4.025   7.921   5.254  4.2221 -0.4576  0.6177
16175SOL    HW253373   4.060   8.065   5.227  0.7595  0.3682  0.2575
16176SOL     OW53374   3.754   7.762   5.730 -0.0488  0.3658  0.6963
16176SOL    HW153375   3.775   7.683   5.779 -0.7505 -0.8874 -0.9483
16176SOL    HW253376   3.711   7.819   5.793 -1.8666 -1.6291  1.3334
16177SOL     OW53377   4.981   9.124   5.672  0.5296 -0.1105 -0.1545
16177SOL    HW153378   5.019   9.170   5.596 -1.3737  2.0051  0.1186
16177SOL    HW253379   4.887   9.127   5.657  0.1034  0.6075  2.4257
16178SOL     OW53380   4.870   9.297   4.847  0.1753  0.3079  0.0597
16178SOL    HW153381   4.958   9.265   4.830 -0.2754 -1.6275  1.2236
16178SOL    HW253382   4.848   9.262   4.934 -1.7090  0.8089 -0.1946
16179SOL     OW53383   3.589   7.736   4.330  0.2832 -0.6018  0.0814
16179SOL    HW153384   3.553   7.808   4.279  0.7105 -0.3943  0.0763
16179SOL    HW253385   3.523   7.718   4.397  1.1434  1.2314  1.4522
16180SOL     OW53386   4.382   8.074   4.947  0.3304 -0.0997  0.4861
16180SOL    HW153387   4.477   8.067   4.954  0.6343  2.1388 -0.8645
16180SOL    HW253388   4.368   8.125   4.867 -1.8416  3.1750  2.8249
16181SOL     OW53389   5.078   7.698   7.016 -0.1690  0.3021  0.5857
16181SOL    HW153390   5.050   7.790   7.015  0.9006  0.6279 -0.6953
16181SOL    HW253391   5.019   7.653   6.956  0.5795  0.5591 -0.3648
16182SOL     OW53392   5.174   8.574   5.544 -0.2931 -0.0738  0.0027
16182SOL    HW153393   5.161   8.669   5.543  0.6767  0.0568 -0.0360
16182SOL    HW253394   5.146   8.547   5.631  0.0060  0.3227  0.2193
16183SOL     OW53395   5.923   8.026   3.098 -0.2570  0.5377 -0.0828
16183SOL    HW153396   5.852   7.962   3.099  1.1693 -1.0785 -1.1125
16183SOL    HW253397   5.943   8.040   3.191 -0.3098 -0.7933  0.1374
16184SOL     OW53398   3.432   8.610   3.056 -0.1392 -0.0792 -0.0283
16184SOL    HW153399   3.387   8.665   3.120 -0.6453  1.0140 -1.2927
16184SOL    HW253400   3.427   8.522   3.092 -2.3748  0.1848  0.3663
16185SOL     OW53401   3.848   9.493   3.702 -0.3841  0.4238  0.2994
16185SOL    HW153402   3.918   9.559   3.708  0.2694  0.1479 -3.3487
16185SOL    HW253403   3.854   9.444   3.784  1.2355  2.8279  1.6662
16186SOL     OW53404   6.154   7.898   2.340 -0.0502 -0.0721 -0.3677
16186SOL    HW153405   6.230   7.944   2.304 -0.4147  0.0531 -0.9876
16186SOL    HW253406   6.157   7.811   2.298 -1.3925  0.6229 -1.9869
16187SOL     OW53407   4.786   8.794   5.523  0.2047  0.1854  0.3938
16187SOL    HW153408   4.730   8.845   5.582 -0.0332 -0.1553  0.4700
16187SOL    HW253409   4.872   8.794   5.566  0.9633  2.9330 -1.0357
16188SOL     OW53410   4.287   9.992   5.601 -0.2083  0.0538 -0.6312
16188SOL    HW153411   4.237  10.038   5.533 -1.1072  0.4711  0.2930
16188SOL    HW253412   4.293   9.902   5.569 -0.0226  0.3950 -1.5898
16189SOL     OW53413   4.329   9.946   2.226  0.2239  0.5809 -0.0396
16189SOL    HW153414   4.335   9.879   2.157  2.0283 -0.2149  0.8605
16189SOL    HW253415   4.235   9.963   2.235 -0.0000  1.5679 -3.5176
16190SOL     OW53416   4.390   8.220   6.812 -0.2043  0.2481  0.4843
16190SOL    HW153417   4.327   8.283   6.845 -1.1070 -0.4342  0.0861
16190SOL    HW253418   4.375   8.218   6.717  0.6995  0.3926  0.3331
16191SOL     OW53419   4.379   8.667   5.626  0.2394 -0.2517 -0.1891
16191SOL    HW153420   4.292   8.664   5.668  0.0434  0.0163 -0.5728
16191SOL    HW253421   4.405   8.759   5.632  1.2576 -0.6340  1.4603
16192SOL     OW53422   4.457   7.711   3.167  0.2319  0.3447  0.4588
16192SOL    HW153423   4.420   7.712   3.079  0.9872  0.3305  0.1471
16192SOL    HW253424   4.403   7.647   3.214  0.8105 -0.7795 -0.4037
16193SOL     OW53425   3.717   8.105   4.787 -0.1267  0.9366 -0.0680
16193SOL    HW153426   3.770   8.146   4.718  0.2183 -0.4657 -0.6643
16193SOL    HW253427   3.771   8.111   4.866 -0.6200  2.7644  0.1470
16194SOL     OW53428   2.292   7.443   5.246  0.0008 -0.2273 -0.3045
16194SOL    HW153429   2.290   7.538   5.262  2.8216 -0.3860  1.2612
16194SOL    HW253430   2.271   7.405   5.332 -1.5317 -1.0598 -1.0272
16195SOL     OW53431   4.173   8.423   5.001  0.7230 -0.1811  0.2947
16195SOL    HW153432   4.167   8.517   4.983 -0.1344 -0.0295  1.3149
16195SOL    HW253433   4.112   8.383   4.939  1.2520 -0.0873 -0.2916
16196SOL     OW53434   4.006   7.767   5.183  0.2488  0.6823  0.1490
16196SOL    HW153435   4.067   7.740   5.114 -0.3301 -1.4276  0.4045
16196SOL    HW253436   3.935   7.703   5.178  0.1882  0.4922  2.7038
16197SOL     OW53437   5.847   7.525   2.877  0.3471  0.5066  0.1505
16197SOL    HW153438   5.784   7.538   2.948 -0.2265  0.6911 -0.3906
16197SOL    HW253439   5.906   7.600   2.883  0.2015  0.6080  0.3265
16198SOL     OW53440   4.340   7.808   4.941 -0.5445 -0.1113  0.2407
16198SOL    HW153441   4.248   7.784   4.948 -1.0250  1.4020 -0.6914
16198SOL    HW253442   4.345   7.896   4.978  0.1663  0.6071 -1.5302
16199SOL     OW53443   6.530   9.558   4.806 -0.4694  0.4921  0.5616
16199SOL    HW153444   6.620   9.535   4.786  0.2525  1.6143  2.4404
16199SOL    HW253445   6.494   9.482   4.852 -1.5818 -1.3569 -3.1148
16200SOL     OW53446   5.209   6.419   2.805 -0.2096 -0.3847 -0.1778
16200SOL    HW153447   5.304   6.405   2.809 -0.1164  0.3268  0.2863
16200SOL    HW253448   5.199   6.499   2.753 -0.5555 -0.5025 -0.2900
16201SOL     OW53449   5.295   8.225   5.299  0.0875  0.4029 -0.4494
16201SOL    HW153450   5.219   8.170   5.318  1.2129 -1.4910 -1.3702
16201SOL    HW253451   5.357   8.206   5.369 -0.3882  2.2041  0.4926
16202SOL     OW53452   7.164   5.867   5.172  0.2542  0.1657  0.3379
16202SOL    HW153453   7.232   5.889   5.235 -1.0930  0.4547  1.7405
16202SOL    HW253454   7.092   5.834   5.226 -0.1153 -1.6812 -1.2444
16203SOL     OW53455   4.820   8.037   1.871  0.6662 -0.1799 -0.1940
16203SOL    HW153456   4.753   8.080   1.924  0.4462  1.2335 -1.5925
16203SOL    HW253457   4.898   8.036   1.928 -0.0917 -0.4226  0.8536
16204SOL     OW53458   4.972   9.943   3.721  0.7572  0.4315  0.1855
16204SOL    HW153459   4.888   9.989   3.712 -0.2406 -1.5042 -0.6549
16204SOL    HW253460   5.007   9.975   3.804 -0.2727  2.1177  0.0010
16205SOL     OW53461   2.716   9.216   6.044 -0.4342  0.1347  0.0528
16205SOL    HW153462   2.627   9.250   6.035 -0.6476 -0.2492  0.6416
16205SOL    HW253463   2.772   9.287   6.014 -0.9541  0.1931 -0.8159
16206SOL     OW53464   2.120   8.277   5.001 -0.2376 -0.5937  0.3727
16206SOL    HW153465   2.070   8.358   5.014 -1.7259 -1.3003 -0.7553
16206SOL    HW253466   2.111   8.229   5.083  0.6104  0.3453  1.0284
16207SOL     OW53467   3.877   8.268   7.854 -0.1272 -0.7496  0.2127
16207SOL    HW153468   3.816   8.198   7.876 -0.4996  0.0670  1.8594
16207SOL    HW253469   3.826   8.348   7.865  0.6704 -0.1621 -0.3532
16208SOL     OW53470   5.261   9.707   6.693  0.2952 -0.8112  0.2764
16208SOL    HW153471   5.306   9.624   6.685  0.7585 -0.5939  0.6124
16208SOL    HW253472   5.259   9.725   6.787  0.4551 -0.3031  0.1864
16209SOL     OW53473   5.348   7.499   6.653 -0.0012 -0.1046 -0.2644
16209SOL    HW153474   5.306   7.417   6.626  0.1028  0.2815 -1.6652
16209SOL    HW253475   5.365   7.488   6.746 -0.1464 -1.6139 -0.4038
16210SOL     OW53476   7.652   9.296   5.223  0.9347 -0.1643 -0.4595
16210SOL    HW153477   7.567   9.328   5.194  0.9556  2.0399  1.6972
16210SOL    HW253478   7.716   9.355   5.183  1.2903 -0.3809 -0.2265
16211SOL     OW53479   3.307   7.413   6.354  0.9670 -0.5592  0.0419
16211SOL    HW153480   3.256   7.333   6.369 -1.8240  1.1422  0.0301
16211SOL    HW253481   3.347   7.400   6.268  0.5148 -1.9247  0.0310
16212SOL     OW53482   5.004   8.114   7.655  0.6202  0.5315 -0.1307
16212SOL    HW153483   4.949   8.178   7.699  0.7224  0.4735  0.0784
16212SOL    HW253484   5.013   8.148   7.566 -0.7950 -0.0943 -0.5346
16213SOL     OW53485   4.748   9.346   6.398 -0.5403  0.0011  0.4339
16213SOL    HW153486   4.776   9.312   6.313 -0.7896 -0.3302  0.4856
16213SOL    HW253487   4.661   9.309   6.411 -0.9202  0.8491  0.3778
16214SOL     OW53488   3.282   6.988   6.034  0.2482 -0.0942 -0.4436
16214SOL    HW153489   3.195   7.004   5.998  0.8548  0.4454 -1.6894
16214SOL    HW253490   3.338   7.053   5.992  1.2854 -0.5500  0.2152
16215SOL     OW53491   3.977   7.703   6.913 -0.1402 -0.0233  0.2517
16215SOL    HW153492   4.047   7.734   6.969 -0.2348 -1.2624  1.0912
16215SOL    HW253493   3.964   7.611   6.939 -1.8649  0.0990 -0.0698
16216SOL     OW53494   4.336   9.754   7.876  0.5995 -0.9520  0.2132
16216SOL    HW153495   4.322   9.829   7.934  0.1535 -0.8114 -0.0675
16216SOL    HW253496   4.248   9.724   7.854  0.7187 -0.2463 -1.3503
16217SOL     OW53497   3.183   7.885   7.090 -0.2820  0.2724 -0.0810
16217SOL    HW153498   3.166   7.919   7.178  1.2080  0.1216  0.2885
16217SOL    HW253499   3.208   7.962   7.039  0.0827  0.1886 -0.0341
16218SOL     OW53500   5.186   9.458   6.582  0.0100 -0.1847 -0.4597
16218SOL    HW153501   5.238   9.492   6.509 -0.2028 -0.0544 -0.5479
16218SOL    HW253502   5.099   9.494   6.569  0.2690  0.8490  0.5559
16219SOL     OW53503   4.913   1.706   6.575 -0.0059 -0.1863 -0.2244
16219SOL    HW153504   4.907   1.682   6.483 -0.9189 -1.3236  0.1168
16219SOL    HW253505   4.919   1.622   6.622  2.0278  0.4145  0.6540
16220SOL     OW53506   2.538   6.581   6.921  0.6199 -0.5553 -0.1736
16220SOL    HW153507   2.449   6.598   6.953  0.5530 -1.0284 -0.1012
16220SOL    HW253508   2.555   6.490   6.945  1.0235 -0.5472 -0.4252
16221SOL     OW53509   4.272   2.184   5.886 -0.3945 -0.2423  0.3015
16221SOL    HW153510   4.353   2.232   5.866 -0.5132 -0.1716 -0.0153
16221SOL    HW253511   4.202   2.240   5.853 -0.5644 -0.3803  0.4267
16222SOL     OW53512   3.445   8.278   7.039  0.2668  0.0011 -0.0486
16222SOL    HW153513   3.402   8.343   6.984  1.3016 -0.4481 -1.3966
16222SOL    HW253514   3.538   8.289   7.022  0.4905 -1.4184  0.1705
16223SOL     OW53515   3.874   7.809   6.064 -0.2825  0.1856 -0.1781
16223SOL    HW153516   3.896   7.793   6.156 -1.9438 -1.0526  0.0222
16223SOL    HW253517   3.905   7.898   6.048  0.2254  0.3469  1.5213
16224SOL     OW53518   2.973   9.857   5.923  0.1936  0.7711 -0.1274
16224SOL    HW153519   3.036   9.844   5.852 -0.0854 -1.0333 -0.0785
16224SOL    HW253520   2.896   9.807   5.895  0.0644  0.0783  1.4413
16225SOL     OW53521   4.454   7.646   6.744  0.0139 -0.0247 -0.1115
16225SOL    HW153522   4.499   7.730   6.754 -0.8034  0.3183  0.7655
16225SOL    HW253523   4.496   7.589   6.809 -1.0946  0.4158  0.9992
16226SOL     OW53524   2.650   8.156   6.047 -0.1038  0.0001  0.4656
16226SOL    HW153525   2.556   8.169   6.040 -0.0809  0.7147  1.2915
16226SOL    HW253526   2.684   8.242   6.072  1.0744  0.4083 -2.3826
16227SOL     OW53527   5.940   9.042   6.873  0.1509  0.1515 -0.6529
16227SOL    HW153528   5.956   9.124   6.828 -0.1375  1.0284  0.8126
16227SOL    HW253529   5.938   9.065   6.966  0.0101 -1.4950 -0.2203
16228SOL     OW53530   4.447   9.450   5.260  0.2997  0.9107 -0.0400
16228SOL    HW153531   4.454   9.437   5.355 -1.2591 -0.3773 -0.0707
16228SOL    HW253532   4.523   9.504   5.237  1.2458  0.3981  1.7833
16229SOL     OW53533   7.083   7.622   4.682  0.0040  0.0890  0.3668
16229SOL    HW153534   7.128   7.671   4.752 -0.5266  2.6675 -1.0084
16229SOL    HW253535   7.150   7.609   4.615  0.2885 -1.6236  0.9623
16230SOL     OW53536   3.143   0.599   7.165  0.2972 -0.3939 -0.1854
16230SOL    HW153537   3.188   0.591   7.081  0.1165  0.8609 -0.4096
16230SOL    HW253538   3.150   0.512   7.205 -0.4386 -1.2555 -1.9058
16231SOL     OW53539   3.625   1.158   6.045  0.0617  0.0731 -0.4389
16231SOL    HW153540   3.689   1.106   6.094  1.1085  1.9937  0.2574
16231SOL    HW253541   3.627   1.121   5.956  0.9054 -0.9624  0.0067
16232SOL     OW53542   4.871   8.784   6.937  0.3249 -0.3717 -0.6716
16232SOL    HW153543   4.855   8.694   6.965  2.9552 -0.8152 -0.4598
16232SOL    HW253544   4.954   8.780   6.889  1.3723  2.2250  0.8149
16233SOL     OW53545   5.403   8.493   5.422 -0.1984  0.3778 -0.0909
16233SOL    HW153546   5.426   8.402   5.442  0.5725  1.0199  2.0932
16233SOL    HW253547   5.309   8.498   5.438  0.0155  0.3118  1.2235
16234SOL     OW53548   5.200   9.468   7.839  0.4181  0.5084  0.1049
16234SOL    HW153549   5.263   9.535   7.866  0.2143  0.1010  1.6488
16234SOL    HW253550   5.238   9.429   7.761  2.4854 -0.2513  1.4310
16235SOL     OW53551   6.672   0.013   6.899 -0.3658  0.3313  0.1136
16235SOL    HW153552   6.666   0.071   6.975 -0.8029  1.2954 -0.6363
16235SOL    HW253553   6.765  -0.012   6.895 -0.1284  1.1544  0.3290
16236SOL     OW53554   5.479   9.299   6.633  0.4926 -0.4568  0.1838
16236SOL    HW153555   5.440   9.276   6.718 -0.1319  0.1148  0.0584
16236SOL    HW253556   5.441   9.385   6.612  1.5749 -0.0379 -0.0957
16237SOL     OW53557   3.635   7.776   9.196 -0.4642  0.3504  0.0558
16237SOL    HW153558   3.699   7.708   9.216  0.3840  0.5218 -2.0099
16237SOL    HW253559   3.684   7.845   9.152 -2.1683  0.1182 -2.3301
16238SOL     OW53560   5.687   8.645   6.193 -0.5801  0.2050  0.1788
16238SOL    HW153561   5.683   8.612   6.283 -0.6271  1.9622  0.8486
16238SOL    HW253562   5.663   8.738   6.201  3.3576  1.4350 -1.0884
16239SOL     OW53563   5.281   0.237   5.897  0.5208 -0.1439  0.5947
16239SOL    HW153564   5.283   0.324   5.857  0.9203 -0.4665 -0.0965
16239SOL    HW253565   5.188   0.217   5.906  0.3857 -1.1312 -2.5283
16240SOL     OW53566   3.910   7.938   5.585 -0.4106 -0.1007  0.4677
16240SOL    HW153567   3.826   7.934   5.631 -0.8851 -1.0661 -0.4609
16240SOL    HW253568   3.944   7.849   5.589 -1.2285 -0.5755 -2.4356
16241SOL     OW53569   4.830   7.590   6.842  0.6045  0.3390  0.0822
16241SOL    HW153570   4.748   7.623   6.877  0.1906 -1.3376  0.7437
16241SOL    HW253571   4.856   7.655   6.776 -0.4744  1.6331  0.9129
16242SOL     OW53572   4.451   8.922   5.626 -0.0768  0.9642 -0.1847
16242SOL    HW153573   4.463   8.969   5.544  0.5691  2.2086  0.6241
16242SOL    HW253574   4.410   8.985   5.684  1.2261  0.6931  1.0530
16243SOL     OW53575   6.382   7.654   6.860  0.2934 -0.1307  0.7882
16243SOL    HW153576   6.452   7.607   6.814  0.1978 -0.9712  1.4944
16243SOL    HW253577   6.392   7.745   6.830 -1.4865 -1.0744 -3.0147
16244SOL     OW53578   3.822   6.182   8.951  0.3255 -0.5605 -0.2299
16244SOL    HW153579   3.911   6.200   8.920  0.1718 -1.0210 -0.9529
16244SOL    HW253580   3.834   6.126   9.027  0.7226  0.8970  0.7799
16245SOL     OW53581   2.385   8.307   4.936 -0.0041 -0.3386 -0.0062
16245SOL    HW153582   2.293   8.332   4.942 -0.3669 -1.5216 -0.6363
16245SOL    HW253583   2.398   8.243   5.006  1.3480  2.7772  2.7295
16246SOL     OW53584   4.458   8.285   7.287  0.3229  0.0208  0.4314
16246SOL    HW153585   4.411   8.288   7.204 -1.3965 -0.2225  1.3778
16246SOL    HW253586   4.549   8.266   7.262 -0.5227 -1.9994 -1.2633
16247SOL     OW53587   3.196   8.944   7.161 -0.0965  0.4524  0.6300
16247SOL    HW153588   3.181   9.009   7.230 -1.0742  1.5244 -0.5431
16247SOL    HW253589   3.188   8.994   7.080  0.4763 -0.8918 -0.2725
16248SOL     OW53590   5.034   9.830   6.596 -0.0938 -0.5784 -0.2497
16248SOL    HW153591   5.112   9.777   6.577 -0.2720 -0.3722 -1.6572
16248SOL    HW253592   4.970   9.767   6.628  0.2612 -0.9406 -0.2396
16249SOL     OW53593   4.914   9.597   6.463 -0.7204  0.3520  0.4270
16249SOL    HW153594   4.968   9.624   6.388  1.6024 -2.1041  1.1263
16249SOL    HW253595   4.832   9.567   6.423 -0.2171  0.7899 -0.9803
16250SOL     OW53596   5.420   8.675   5.208  0.5528  0.3549 -0.4497
16250SOL    HW153597   5.450   8.757   5.247  1.1476 -0.5620  1.0788
16250SOL    HW253598   5.418   8.613   5.281 -0.3188 -0.8745 -1.4978
16251SOL     OW53599   4.250   9.975   6.356  0.5209  0.1936 -0.5496
16251SOL    HW153600   4.323   9.932   6.399 -0.4283 -0.5897  0.3063
16251SOL    HW253601   4.174   9.952   6.409 -0.1254  2.2986 -0.5231
16252SOL     OW53602   5.407   9.206   5.427 -0.1798 -0.2878  0.1122
16252SOL    HW153603   5.347   9.280   5.418 -0.6512 -0.8917 -1.9675
16252SOL    HW253604   5.494   9.243   5.413 -0.1476  0.3408  1.7938
16253SOL     OW53605   4.497   9.940   6.501 -0.4191  0.1345  0.0602
16253SOL    HW153606   4.558   9.868   6.519 -0.5724 -0.3798 -1.4229
16253SOL    HW253607   4.553  10.017   6.493 -0.2322  0.1573  1.4104
16254SOL     OW53608   4.486   9.347   5.892 -0.1615  0.1954 -0.2786
16254SOL    HW153609   4.562   9.396   5.862 -0.7725  1.4809  0.2221
16254SOL    HW253610   4.485   9.359   5.987 -0.2616 -0.8866 -0.1331
16255SOL     OW53611   4.378   8.708   6.254  0.3049  0.1932  0.2450
16255SOL    HW153612   4.413   8.710   6.165 -0.5787  1.1078 -0.0910
16255SOL    HW253613   4.291   8.669   6.245  0.7210 -0.8789  0.8854
16256SOL     OW53614   2.877   8.430   7.750  0.1887 -0.1947 -0.0949
16256SOL    HW153615   2.839   8.342   7.744 -0.9095  0.3143 -0.8360
16256SOL    HW253616   2.844   8.465   7.833 -0.6415  0.0875 -0.5367
16257SOL     OW53617   4.494   9.923   5.342  0.1337 -0.4305 -0.0689
16257SOL    HW153618   4.471   9.838   5.378 -1.3423 -0.2224 -0.4887
16257SOL    HW253619   4.554   9.904   5.270 -1.4723 -1.2379 -1.2116
16258SOL     OW53620   3.059   8.245   6.850 -0.1084 -0.5469 -0.4938
16258SOL    HW153621   3.113   8.197   6.912 -1.1915  0.4465  1.2505
16258SOL    HW253622   3.119   8.265   6.777  1.1756 -1.7029  0.2200
16259SOL     OW53623   5.705   8.279   5.066 -0.6121 -0.6104 -0.7118
16259SOL    HW153624   5.797   8.306   5.071 -0.2991 -1.8000  0.1273
16259SOL    HW253625   5.701   8.220   4.990 -0.6208 -0.7952 -0.5669
16260SOL     OW53626   5.382   0.208   8.097 -0.3486 -0.1267 -0.0314
16260SOL    HW153627   5.414   0.281   8.150  1.5486 -0.3845 -0.7924
16260SOL    HW253628   5.392   0.131   8.154  0.2010 -0.1805 -0.2028
16261SOL     OW53629   6.244   7.672   6.091 -0.3241 -0.6344  0.1635
16261SOL    HW153630   6.165   7.643   6.045  1.1071 -0.8531 -2.2995
16261SOL    HW253631   6.248   7.766   6.075  0.3639 -0.7673 -0.5506
16262SOL     OW53632   3.773   8.145   6.982 -0.1061  1.2618 -0.0014
16262SOL    HW153633   3.746   8.230   6.948  1.2520  1.1217 -1.4742
16262SOL    HW253634   3.813   8.101   6.908  0.1992 -0.2412  1.0333
16263SOL     OW53635   5.026   9.033   7.102  0.1233 -0.0632 -0.3459
16263SOL    HW153636   4.956   8.969   7.116  0.0963  0.1130  0.3483
16263SOL    HW253637   5.003   9.076   7.021 -0.4289 -0.2005 -0.2640
16264SOL     OW53638   2.989   7.936   6.793  0.2791 -0.0507  0.3746
16264SOL    HW153639   2.942   7.984   6.862 -0.1154 -1.9998  1.5237
16264SOL    HW253640   3.058   7.889   6.840  2.3499  1.4681 -1.0862
16265SOL     OW53641   5.384   9.083   5.927  0.3936  0.0382 -0.5432
16265SOL    HW153642   5.468   9.054   5.963  0.3850 -0.3947 -0.8643
16265SOL    HW253643   5.352   9.007   5.877 -0.5212 -0.0353  0.1521
16266SOL     OW53644   5.007   8.614   6.505  0.2062 -0.4443  0.1058
16266SOL    HW153645   5.075   8.581   6.446 -0.2363 -1.2710  0.0473
16266SOL    HW253646   5.055   8.661   6.573  0.6453  1.6021 -1.5693
16267SOL     OW53647   4.132   8.704   8.203 -0.1989 -0.1217 -0.2307
16267SOL    HW153648   4.174   8.661   8.128  0.1554  0.8004 -0.5638
16267SOL    HW253649   4.111   8.632   8.263  0.0157 -0.8066 -0.9634
16268SOL     OW53650   5.180   8.963   7.358 -0.1247 -0.1635  0.2425
16268SOL    HW153651   5.085   8.965   7.350 -0.0197 -0.6412 -1.2655
16268SOL    HW253652   5.212   9.008   7.281  0.8770 -0.0596  0.7087
16269SOL     OW53653   6.247   7.724   6.385  0.0005  0.3546  0.1467
16269SOL    HW153654   6.238   7.808   6.340 -0.2621 -0.4638 -1.3247
16269SOL    HW253655   6.178   7.669   6.350 -0.4401 -0.1972  1.8107
16270SOL     OW53656   4.300   8.462   7.421 -0.2617 -0.4828  0.1963
16270SOL    HW153657   4.364   8.411   7.371 -0.4016 -1.6779  1.2115
16270SOL    HW253658   4.239   8.495   7.355 -0.9350 -2.7440 -0.3637
16271SOL     OW53659   3.493   7.623   6.325 -0.3389 -0.2203 -0.1604
16271SOL    HW153660   3.518   7.580   6.243  0.5928 -0.9989  0.5284
16271SOL    HW253661   3.422   7.570   6.360 -2.0125  1.1576 -1.3745
16272SOL     OW53662   4.696   7.852   5.990  0.2994 -0.1550  0.1612
16272SOL    HW153663   4.626   7.789   5.973  1.4239 -1.6283  0.9096
16272SOL    HW253664   4.673   7.891   6.074 -0.4285  0.5000 -0.3318
16273SOL     OW53665   5.748   8.353   4.734 -0.1627 -0.0855  0.2525
16273SOL    HW153666   5.708   8.283   4.785  0.0751  0.5136  1.2726
16273SOL    HW253667   5.731   8.329   4.643 -1.1391 -0.8371  0.6244
16274SOL     OW53668   2.996   7.545   7.077  0.2345 -0.4092  0.6336
16274SOL    HW153669   2.929   7.526   7.011  1.8536 -2.4044 -0.5073
16274SOL    HW253670   2.961   7.620   7.126 -1.5340  0.3724 -1.7180
16275SOL     OW53671   6.991   8.473   5.173  0.0500 -0.2991  0.1528
16275SOL    HW153672   7.022   8.432   5.092  0.5879 -0.4333  0.4279
16275SOL    HW253673   6.957   8.400   5.224  2.8040 -0.7052  1.4794
16276SOL     OW53674   5.058   0.249   6.437 -0.1068 -0.3613  0.3478
16276SOL    HW153675   4.983   0.301   6.409  1.4462  1.3525 -0.7651
16276SOL    HW253676   5.051   0.167   6.388 -0.2725  0.5259 -1.1466
16277SOL     OW53677   2.745   8.061   7.037 -0.1965 -0.2888 -0.1732
16277SOL    HW153678   2.692   8.140   7.022  0.6035  0.7489  2.2746
16277SOL    HW253679   2.751   8.054   7.132  0.0360 -3.1343 -0.3600
16278SOL     OW53680   4.118   8.943   5.721  0.5598  0.0509 -0.2490
16278SOL    HW153681   4.072   8.973   5.642  0.4395 -0.0040 -0.1991
16278SOL    HW253682   4.197   8.996   5.723  2.2168 -2.1958 -2.2435
16279SOL     OW53683   2.345   6.111   7.573 -0.2533 -0.6913 -0.1368
16279SOL    HW153684   2.357   6.095   7.480  1.3509 -2.4418  0.3314
16279SOL    HW253685   2.306   6.030   7.607 -0.0044 -0.4013  0.8524
16280SOL     OW53686   3.034   8.106   8.125 -0.2565 -0.4436 -0.3509
16280SOL    HW153687   3.027   8.073   8.215 -2.4965  1.0353  0.0648
16280SOL    HW253688   3.117   8.071   8.093  0.6585 -0.8523  2.3466
16281SOL     OW53689   4.973   7.866   7.741  0.0445  0.0260 -0.5995
16281SOL    HW153690   4.999   7.953   7.712  1.9643 -0.7926 -1.4606
16281SOL    HW253691   4.928   7.827   7.666  0.5434 -0.2684 -0.7495
16282SOL     OW53692   5.339   7.995   6.596  0.3365 -0.1001 -0.3815
16282SOL    HW153693   5.255   7.994   6.548 -0.1365 -0.0232  0.4390
16282SOL    HW253694   5.314   7.998   6.688  1.2545  1.1294 -0.1630
16283SOL     OW53695   5.361   8.641   6.167 -0.1755 -0.2622 -0.7570
16283SOL    HW153696   5.454   8.659   6.182 -0.6018  0.1211  1.5919
16283SOL    HW253697   5.357   8.608   6.077  1.9912  1.4230 -1.4939
16284SOL     OW53698   4.998   8.392   7.263 -0.1489 -0.0731  0.2841
16284SOL    HW153699   5.059   8.397   7.190 -0.8775 -0.1259 -0.3366
16284SOL    HW253700   5.045   8.344   7.331  1.2175  1.5544  0.5345
16285SOL     OW53701   5.824   8.609   3.924 -0.2219  0.1405  0.2938
16285SOL    HW153702   5.859   8.669   3.989 -1.2085  0.3807  0.6073
16285SOL    HW253703   5.746   8.571   3.965 -1.8150  1.5331 -1.3505
16286SOL     OW53704   3.910   8.631   6.559  0.4783 -0.0264  0.3684
16286SOL    HW153705   3.979   8.567   6.579  1.2393  1.3680  2.3956
16286SOL    HW253706   3.868   8.648   6.643  1.1281  3.0809  0.1222
16287SOL     OW53707   7.277   8.621   6.255 -0.6254  0.2778  0.0290
16287SOL    HW153708   7.214   8.691   6.268 -0.3014  0.7938 -1.1512
16287SOL    HW253709   7.235   8.561   6.194 -0.8476 -0.5099  0.9303
16288SOL     OW53710   6.439   8.138   6.227 -0.4244  0.1818  0.1725
16288SOL    HW153711   6.412   8.221   6.265 -0.3709  0.3940 -0.2485
16288SOL    HW253712   6.378   8.073   6.263 -0.3746  0.3783  0.6108
16289SOL     OW53713   5.703   8.692   4.455  0.5532  0.2691 -0.5755
16289SOL    HW153714   5.662   8.678   4.540 -0.8637  2.6148 -0.8151
16289SOL    HW253715   5.745   8.778   4.462  0.8926  0.2362 -2.0577
16290SOL     OW53716   5.089   8.653   6.838 -0.0730  0.4993 -0.4574
16290SOL    HW153717   5.025   8.584   6.856 -0.5833  1.1458  0.2672
16290SOL    HW253718   5.147   8.652   6.914  0.0760  0.6890 -0.5683
16291SOL     OW53719   5.278   9.368   8.873 -0.0282  0.2862  0.1198
16291SOL    HW153720   5.236   9.449   8.845  1.4834  1.2722  0.6833
16291SOL    HW253721   5.294   9.380   8.967  0.3826 -0.5812  0.1669
16292SOL     OW53722   4.894   8.889   7.364  0.3163  0.9629  0.1015
16292SOL    HW153723   4.902   8.892   7.459  0.6637  1.3327  0.0608
16292SOL    HW253724   4.803   8.863   7.349  0.3655  0.5420  0.5346
16293SOL     OW53725   5.255   9.357   7.303  0.4928  0.0315 -0.3956
16293SOL    HW153726   5.257   9.300   7.226  0.9112 -1.9792  1.0698
16293SOL    HW253727   5.343   9.351   7.339  0.8587  2.4494 -0.7798
16294SOL     OW53728   4.608   7.656   7.464  0.0105 -0.0130  0.3221
16294SOL    HW153729   4.589   7.720   7.395 -0.0023  0.4072  0.7109
16294SOL    HW253730   4.584   7.572   7.426 -0.9339  0.3203  0.1668
16295SOL     OW53731   5.795   8.481   8.608 -0.5661  0.1515  0.3753
16295SOL    HW153732   5.810   8.575   8.620 -0.2294  0.1932 -0.3161
16295SOL    HW253733   5.773   8.472   8.515 -1.7150 -0.3201  0.6937
16296SOL     OW53734   5.256   7.870   6.155 -0.0227  0.0441 -0.3243
16296SOL    HW153735   5.219   7.948   6.196  0.9151  0.6249 -0.5772
16296SOL    HW253736   5.193   7.800   6.175 -1.2669  1.0227 -0.7867
16297SOL     OW53737   4.252   9.821   8.951 -0.1553 -0.1987  0.1418
16297SOL    HW153738   4.306   9.895   8.981  1.4120  0.7825 -4.7012
16297SOL    HW253739   4.179   9.862   8.906 -1.5642 -1.6400  1.0599
16298SOL     OW53740   4.418   8.735   7.123  0.2314 -0.3466  0.1680
16298SOL    HW153741   4.434   8.827   7.102 -1.4680  0.2776  1.4476
16298SOL    HW253742   4.328   8.734   7.158  0.0788 -2.5523 -0.2288
16299SOL     OW53743   2.172   1.124   5.278 -0.3593 -0.3510 -0.2139
16299SOL    HW153744   2.151   1.043   5.232 -1.1529 -0.5475  0.4691
16299SOL    HW253745   2.166   1.100   5.371 -0.7690  0.5242 -0.0090
16300SOL     OW53746   3.408   7.551   6.722  0.2690 -0.1621  0.5787
16300SOL    HW153747   3.438   7.599   6.645  0.9534 -2.1878 -0.4209
16300SOL    HW253748   3.342   7.490   6.689  0.9818 -1.4516  1.4927
16301SOL     OW53749   2.836   5.305   5.886  0.2883  0.1724  0.4218
16301SOL    HW153750   2.931   5.298   5.881  0.4412  0.6675  2.3304
16301SOL    HW253751   2.804   5.247   5.818  1.9676  0.5881 -0.7475
16302SOL     OW53752   5.321   9.820   6.936  0.3687  0.1818 -0.1887
16302SOL    HW153753   5.307   9.745   6.993  0.5811 -1.0539 -1.7120
16302SOL    HW253754   5.413   9.814   6.911  0.7685  1.8129  0.8612
16303SOL     OW53755   5.379   0.490   7.987  0.1595  0.7315 -0.2590
16303SOL    HW153756   5.336   0.485   8.072 -1.4587 -2.9828 -1.1744
16303SOL    HW253757   5.318   0.539   7.932 -0.7017 -0.3497 -0.2929
16304SOL     OW53758   3.111   8.209   4.810  0.7081 -0.1269  0.6488
16304SOL    HW153759   3.076   8.172   4.890 -0.2258 -1.0051 -0.1454
16304SOL    HW253760   3.040   8.264   4.776  2.0520  2.4048  1.7858
16305SOL     OW53761   3.052   0.472   7.656  0.1721 -0.0712  0.2003
16305SOL    HW153762   2.982   0.425   7.609  1.7182 -1.5393 -0.6918
16305SOL    HW253763   3.021   0.477   7.746 -1.1872 -0.5021 -0.2272
16306SOL     OW53764   3.664   9.762   6.099 -0.1303 -0.3320 -0.6991
16306SOL    HW153765   3.696   9.851   6.085 -1.6292  0.1449 -1.2498
16306SOL    HW253766   3.621   9.764   6.184  1.1739 -0.9322 -0.0186
16307SOL     OW53767   4.537   9.173   7.545 -0.1577  0.7985 -0.4697
16307SOL    HW153768   4.455   9.214   7.519  0.6123  0.9082 -2.8258
16307SOL    HW253769   4.593   9.179   7.468  1.8937  0.2435  0.9163
16308SOL     OW53770   1.807   6.717   9.011  0.0110  0.2994 -0.1782
16308SOL    HW153771   1.868   6.769   9.063  0.5149  0.0780 -0.5435
16308SOL    HW253772   1.794   6.637   9.062  1.7996 -0.6494 -1.1492
16309SOL     OW53773   4.414   9.078   6.812  0.0572 -0.0179  0.2466
16309SOL    HW153774   4.486   9.019   6.832 -1.0048 -1.1773  0.7694
16309SOL    HW253775   4.452   9.165   6.816  1.0340 -0.5058  2.3102
16310SOL     OW53776   4.915   9.433   5.373  0.3852 -0.0649 -0.6439
16310SOL    HW153777   4.899   9.468   5.285 -3.8541 -0.4474 -0.1279
16310SOL    HW253778   4.878   9.498   5.432  4.9217  1.1333  1.0599
16311SOL     OW53779   3.832   9.514   6.216  0.3992  0.7731  0.0243
16311SOL    HW153780   3.880   9.582   6.263 -0.5865 -0.4369  2.9450
16311SOL    HW253781   3.865   9.432   6.253 -1.8029 -0.1531  0.0276
16312SOL     OW53782   3.044   0.402   5.451 -0.6470  0.4781  0.1338
16312SOL    HW153783   2.986   0.328   5.468  0.5844 -0.2757  1.1499
16312SOL    HW253784   3.025   0.465   5.520 -2.1744  1.4344 -1.1190
16313SOL     OW53785   3.583   0.263   7.657 -0.2130 -0.3560  0.4706
16313SOL    HW153786   3.654   0.218   7.703  0.7976 -2.1472 -2.7351
16313SOL    HW253787   3.541   0.194   7.605 -2.5698  1.2350  0.2053
16314SOL     OW53788   3.779   5.889   8.840 -0.1770  0.8406 -0.4210
16314SOL    HW153789   3.736   5.974   8.826  2.4403  2.3190  0.2235
16314SOL    HW253790   3.808   5.863   8.753  0.9191  1.6841 -0.3226
16315SOL     OW53791   6.265   8.448   4.648  0.1341  0.3090  0.0065
16315SOL    HW153792   6.223   8.389   4.584 -1.2586  0.8453  0.4095
16315SOL    HW253793   6.340   8.398   4.681 -0.1442 -0.6445 -0.7726
16316SOL     OW53794   4.480   0.462   7.057  0.0875 -0.1477 -0.2277
16316SOL    HW153795   4.388   0.459   7.033  0.3479 -1.2296 -1.1771
16316SOL    HW253796   4.520   0.521   6.993  0.3275 -0.9847 -0.8671
16317SOL     OW53797   1.624   8.283   7.308 -0.0513  0.0935 -0.4998
16317SOL    HW153798   1.626   8.379   7.305  1.8618  0.0957 -0.3204
16317SOL    HW253799   1.590   8.256   7.223 -1.5259  0.9387 -0.1956
16318SOL     OW53800   5.746   6.888   6.987  0.0112 -0.8867  0.2517
16318SOL    HW153801   5.837   6.893   7.018 -0.8351  0.1077  2.6684
16318SOL    HW253802   5.753   6.902   6.893  2.2929  0.0303  0.5052
16319SOL     OW53803   5.623   7.911   6.653  0.4183  0.0737  0.6148
16319SOL    HW153804   5.692   7.958   6.606 -1.4742  0.3009 -2.0479
16319SOL    HW253805   5.542   7.955   6.627 -0.9818 -1.8851  1.5322
16320SOL     OW53806   5.073   8.960   6.585  0.2361 -0.5303 -0.4994
16320SOL    HW153807   5.140   8.963   6.517 -1.0510 -1.1555 -1.8599
16320SOL    HW253808   4.991   8.971   6.537 -0.6442 -0.0848  1.0826
16321SOL     OW53809   4.086   7.881   7.692  0.3009  0.4227  0.0477
16321SOL    HW153810   4.116   7.913   7.776 -0.2669 -2.2090  1.2903
16321SOL    HW253811   4.021   7.814   7.713 -1.5786  1.3388 -2.5057
16322SOL     OW53812   3.495   8.239   6.239  0.5760  0.7238  0.1548
16322SOL    HW153813   3.492   8.221   6.145  1.6780 -2.2326  0.6340
16322SOL    HW253814   3.411   8.279   6.259 -0.4674 -0.4401 -1.7466
16323SOL     OW53815   5.701   8.471   8.339 -0.2518 -0.2965  0.1439
16323SOL    HW153816   5.631   8.408   8.356 -2.4556  0.8999 -3.8567
16323SOL    HW253817   5.657   8.555   8.330  1.9587  0.8590 -0.3737
16324SOL     OW53818   3.410   6.741   8.422  0.1467  0.5299  0.0599
16324SOL    HW153819   3.407   6.814   8.484  2.1164  0.6524  0.0332
16324SOL    HW253820   3.438   6.780   8.339 -2.3055  0.3367 -0.9149
16325SOL     OW53821   3.744   1.204   6.649 -0.0962  0.0630  0.0101
16325SOL    HW153822   3.790   1.288   6.647  0.1572 -0.1162 -2.5548
16325SOL    HW253823   3.813   1.139   6.647 -0.3622 -0.2031 -0.6830
16326SOL     OW53824   3.744   9.387   7.067  0.0095  0.2478  0.2427
16326SOL    HW153825   3.837   9.372   7.084  0.2581  1.5392  0.1420
16326SOL    HW253826   3.699   9.361   7.147  0.5551  0.4402  0.6123
16327SOL     OW53827   4.685   0.478   7.345  0.5007  0.2489  0.1339
16327SOL    HW153828   4.690   0.555   7.402  2.6075 -0.1280  0.5220
16327SOL    HW253829   4.686   0.403   7.405  1.5478 -0.1264 -0.3445
16328SOL     OW53830   4.337   5.398   8.704  0.0776  0.1083 -0.4142
16328SOL    HW153831   4.428   5.416   8.727 -0.0494 -0.6802  0.7216
16328SOL    HW253832   4.305   5.480   8.666  1.1513  0.4918 -0.5042
16329SOL     OW53833   2.584   7.944   7.350 -0.1178  0.6262 -0.0073
16329SOL    HW153834   2.605   7.917   7.439 -0.5326  1.9512  0.5070
16329SOL    HW253835   2.613   8.035   7.345 -1.0407  0.8786 -0.8976
16330SOL     OW53836   4.882   9.447   6.875 -0.2248 -0.8026 -0.1656
16330SOL    HW153837   4.933   9.377   6.834 -0.7654 -1.0982 -0.3409
16330SOL    HW253838   4.818   9.402   6.930 -0.1241 -0.4283  0.2685
16331SOL     OW53839   4.485   8.373   5.582 -0.7539 -0.5626  0.0095
16331SOL    HW153840   4.481   8.303   5.516 -1.0213 -1.1047  0.5983
16331SOL    HW253841   4.522   8.448   5.535 -0.1210 -1.2064 -0.5321
16332SOL     OW53842   3.462   8.544   8.550 -0.5438  0.1649 -0.6016
16332SOL    HW153843   3.418   8.554   8.634  1.3984 -0.2733  0.4823
16332SOL    HW253844   3.479   8.633   8.521 -0.1914  0.2901  0.0026
16333SOL     OW53845   4.085   7.511   7.733 -0.0089  0.0991 -0.2536
16333SOL    HW153846   4.008   7.564   7.711  0.6891  1.6108  0.8567
16333SOL    HW253847   4.146   7.528   7.661  0.0902  0.5473 -0.0648
16334SOL     OW53848   3.208   8.181   7.088  0.2261  0.1989  0.2056
16334SOL    HW153849   3.299   8.206   7.072  0.0915 -0.9558 -2.5584
16334SOL    HW253850   3.211   8.134   7.171  1.9357  1.2292  0.7632
16335SOL     OW53851   3.176   8.483   5.179 -0.6166  0.1186  0.5038
16335SOL    HW153852   3.213   8.429   5.109 -0.1915  2.9119 -1.5261
16335SOL    HW253853   3.111   8.427   5.220  0.1602 -2.1135 -1.1713
16336SOL     OW53854   4.036   9.903   5.768 -0.2708 -0.2259  0.3086
16336SOL    HW153855   3.971   9.835   5.753 -0.9028  0.3143  0.5889
16336SOL    HW253856   3.989   9.985   5.752  0.0002  0.2174  1.6983
16337SOL     OW53857   7.088   9.315   5.204 -0.3704 -0.3057  0.5076
16337SOL    HW153858   7.019   9.371   5.240 -0.4922 -1.0576  1.4732
16337SOL    HW253859   7.043   9.255   5.145 -0.3604  0.0515  0.1383
16338SOL     OW53860   4.237   9.461   8.443  0.5777 -0.1176 -0.0594
16338SOL    HW153861   4.270   9.499   8.361 -1.7799  0.0151 -0.9987
16338SOL    HW253862   4.164   9.518   8.467  0.1694 -1.1801  1.2131
16339SOL     OW53863   4.031   0.199   6.696 -0.7609  0.2178  0.1988
16339SOL    HW153864   4.108   0.205   6.639 -1.5794  0.1475 -0.9337
16339SOL    HW253865   4.000   0.289   6.703 -1.8457 -0.0321 -1.1456
16340SOL     OW53866   3.905   0.175   6.172 -0.5332  0.5503  0.2509
16340SOL    HW153867   3.991   0.188   6.213 -0.9047 -0.7625  1.4802
16340SOL    HW253868   3.848   0.237   6.217  0.0272  2.3860 -1.4944
16341SOL     OW53869   2.629   8.847   7.337 -0.2801  0.0479  0.4218
16341SOL    HW153870   2.596   8.781   7.276 -1.3680  0.8516  0.1382
16341SOL    HW253871   2.577   8.925   7.319  0.8774  0.9375  0.8792
16342SOL     OW53872   5.557   6.986   7.178 -0.7924 -0.0295  0.8695
16342SOL    HW153873   5.476   6.941   7.156 -0.7504  0.2753  0.0651
16342SOL    HW253874   5.614   6.972   7.102 -0.8711  1.5884  0.4848
16343SOL     OW53875   4.077   9.289   5.039  0.5604  0.2133  0.0232
16343SOL    HW153876   4.051   9.281   5.131 -1.5489  1.5409 -0.4208
16343SOL    HW253877   4.172   9.303   5.042  0.4003  1.0023  2.0452
16344SOL     OW53878   5.004   9.212   3.879 -0.2790 -0.5839 -0.1863
16344SOL    HW153879   4.934   9.211   3.813 -2.0975 -1.0887  1.7206
16344SOL    HW253880   5.021   9.305   3.895  0.5293 -0.4470 -1.6910
16345SOL     OW53881   5.280   0.110   7.745 -0.0513 -0.5149  0.1208
16345SOL    HW153882   5.292   0.018   7.767 -2.2877 -1.0719 -0.7982
16345SOL    HW253883   5.331   0.123   7.665  1.2848 -0.6116  0.9397
16346SOL     OW53884   3.462   1.177   6.281 -0.6910 -0.9478 -0.7416
16346SOL    HW153885   3.432   1.267   6.273 -0.5721 -0.8049  0.2932
16346SOL    HW253886   3.518   1.163   6.205 -1.4096 -0.4330 -1.3701
16347SOL     OW53887   5.437   8.658   5.658 -0.4286 -0.4230 -0.6476
16347SOL    HW153888   5.410   8.673   5.568  0.6315  2.3962 -0.5630
16347SOL    HW253889   5.529   8.630   5.652 -0.9069 -2.0823 -0.5148
16348SOL     OW53890   5.545   8.747   6.829 -0.3502  0.1893  0.6125
16348SOL    HW153891   5.496   8.780   6.904 -2.2108 -0.2031 -0.3838
16348SOL    HW253892   5.482   8.693   6.781  1.2598 -0.8910 -0.3700
16349SOL     OW53893   1.588   6.659   6.410  0.6249  0.7962 -0.0266
16349SOL    HW153894   1.626   6.661   6.498 -1.0929 -0.0436  0.7622
16349SOL    HW253895   1.529   6.735   6.409 -1.1584 -0.5655  0.3990
16350SOL     OW53896   5.306   9.647   5.040  0.6921  0.4991 -0.1204
16350SOL    HW153897   5.212   9.662   5.052  1.0390  0.0968  4.1809
16350SOL    HW253898   5.346   9.732   5.059  1.2479  0.5692 -1.5555
16351SOL     OW53899   4.722   9.849   7.049 -0.5618 -0.1857 -0.4504
16351SOL    HW153900   4.817   9.846   7.036 -0.5367 -3.3428  0.0973
16351SOL    HW253901   4.709   9.910   7.121  1.0197  0.4823 -0.7105
16352SOL     OW53902   3.544   6.957   8.585  0.0107  0.4126  0.0794
16352SOL    HW153903   3.614   7.016   8.560 -0.7198  0.4886 -1.8850
16352SOL    HW253904   3.464   6.999   8.553 -0.6184 -1.1341 -0.4514
16353SOL     OW53905   5.069   8.238   6.336 -0.0268 -0.0650 -0.3817
16353SOL    HW153906   5.026   8.188   6.266  0.2890  1.3815 -1.6418
16353SOL    HW253907   5.081   8.326   6.298  1.2627  0.3945  1.0581
16354SOL     OW53908   3.269   9.817   5.925 -0.1514  0.0398 -0.1641
16354SOL    HW153909   3.301   9.881   5.989  3.5477 -2.3260  0.4619
16354SOL    HW253910   3.297   9.852   5.841 -1.0430  0.8538 -0.1389
16355SOL     OW53911   6.557   9.265   6.044  0.0562  0.0909  0.4195
16355SOL    HW153912   6.504   9.343   6.061 -0.4849 -0.8092  3.1765
16355SOL    HW253913   6.546   9.212   6.123  0.9021 -2.5028 -1.1698
16356SOL     OW53914   4.253   7.949   5.532 -1.0785 -0.6556 -0.0050
16356SOL    HW153915   4.213   7.941   5.446 -0.7851 -0.8782 -0.1169
16356SOL    HW253916   4.346   7.962   5.515 -1.0577 -0.4343  0.2685
16357SOL     OW53917   3.624   6.295   8.784  0.3822  0.1239  0.6342
16357SOL    HW153918   3.687   6.276   8.854 -0.9787 -0.5403  1.7119
16357SOL    HW253919   3.668   6.269   8.704  1.4820 -0.3316  1.3756
16358SOL     OW53920   4.128   8.654   7.628  0.2318  0.6897  0.0401
16358SOL    HW153921   4.122   8.674   7.535  3.9644  0.1125 -0.3855
16358SOL    HW253922   4.217   8.621   7.640  0.2230  1.8589  4.0237
16359SOL     OW53923   2.852   9.626   6.703  0.5337 -0.1478 -0.2327
16359SOL    HW153924   2.790   9.641   6.631 -0.7816 -0.5684  0.7787
16359SOL    HW253925   2.820   9.683   6.773  2.4917  1.1549 -0.3473
16360SOL     OW53926   2.342   8.122   7.233  0.0639 -0.5039 -0.0490
16360SOL    HW153927   2.398   8.131   7.310  1.2497  0.6170 -1.0035
16360SOL    HW253928   2.260   8.164   7.258 -0.1726 -1.6790  1.1882
16361SOL     OW53929   3.709   8.960   5.993 -0.5979  0.0795 -0.1391
16361SOL    HW153930   3.774   9.027   5.970 -0.0608 -0.0475  0.9721
16361SOL    HW253931   3.760   8.883   6.017 -1.2328 -1.0502 -2.2870
16362SOL     OW53932   3.089   6.462   7.424 -0.4239 -0.0558  0.1976
16362SOL    HW153933   3.031   6.522   7.470 -1.0176 -0.7782  0.3996
16362SOL    HW253934   3.141   6.518   7.367 -0.1806  0.7741  1.2138
16363SOL     OW53935   2.618   1.238   6.459  0.2038 -0.2621 -0.5291
16363SOL    HW153936   2.555   1.171   6.483 -1.8594  1.3099 -1.4644
16363SOL    HW253937   2.632   1.289   6.539  0.7120 -0.9220 -0.1898
16364SOL     OW53938   4.921   8.906   7.664 -0.1981  0.0132 -0.1338
16364SOL    HW153939   4.848   8.856   7.700  0.9026 -0.7577  1.1097
16364SOL    HW253940   4.897   8.998   7.679 -1.4394 -0.1799 -0.8464
16365SOL     OW53941   5.276   9.611   7.145 -0.1717 -0.0476 -0.5257
16365SOL    HW153942   5.302   9.543   7.207 -1.1899  0.1318  0.1144
16365SOL    HW253943   5.182   9.597   7.132 -0.4629  1.4494 -0.1057
16366SOL     OW53944   5.345   9.562   6.409  0.5644  0.1505 -0.2468
16366SOL    HW153945   5.385   9.643   6.440  1.5114 -0.5028  0.2413
16366SOL    HW253946   5.394   9.540   6.330 -0.1255  0.3995 -0.7527
16367SOL     OW53947   3.452   8.994   6.501  0.0173  0.5775  0.1099
16367SOL    HW153948   3.452   9.084   6.469 -2.1117  0.8418  0.7566
16367SOL    HW253949   3.493   8.999   6.588 -0.4603  0.9863  0.3126
16368SOL     OW53950   5.042   7.923   6.853  0.4716  0.1907  0.0918
16368SOL    HW153951   5.128   7.965   6.857  0.1796  0.7718  0.3633
16368SOL    HW253952   4.980   7.996   6.855  0.0047 -0.1165 -2.0154
16369SOL     OW53953   4.492   9.349   6.169 -0.0385  0.0900 -0.5002
16369SOL    HW153954   4.580   9.372   6.140  1.0144 -0.1168  2.3250
16369SOL    HW253955   4.460   9.427   6.213  0.8276 -1.4401  3.0244
16370SOL     OW53956   6.857   7.296   7.393  0.5522 -0.4191  0.0789
16370SOL    HW153957   6.835   7.379   7.436  2.2817  0.3324 -0.4304
16370SOL    HW253958   6.948   7.307   7.366  0.3117 -1.8947 -1.4017
16371SOL     OW53959   5.685   8.477   7.128  0.1836 -0.0253  0.0532
16371SOL    HW153960   5.620   8.524   7.076  0.0314  0.6584  0.8614
16371SOL    HW253961   5.715   8.407   7.070 -2.0709 -1.0358  0.0507
16372SOL     OW53962   4.190   0.329   6.063 -0.2165 -0.2583 -0.1105
16372SOL    HW153963   4.227   0.409   6.103 -2.9526  0.7257  0.5836
16372SOL    HW253964   4.189   0.266   6.135  1.0008 -0.6167 -0.3944
16373SOL     OW53965   4.581   9.730   5.717 -0.3100  0.3757  0.5752
16373SOL    HW153966   4.644   9.663   5.743 -0.9353  0.0537  1.2598
16373SOL    HW253967   4.620   9.813   5.745  0.8705  0.3958 -1.0390
16374SOL     OW53968   3.705   0.505   7.015 -0.0284 -0.2477  0.0385
16374SOL    HW153969   3.666   0.566   6.952 -1.6287 -2.2540 -0.9682
16374SOL    HW253970   3.721   0.425   6.965 -0.9215 -1.7326  2.0388
16375SOL     OW53971   5.218   9.877   5.620 -0.3404 -0.0608 -0.6505
16375SOL    HW153972   5.169   9.958   5.611  0.5250  0.3905 -1.4391
16375SOL    HW253973   5.151   9.809   5.630 -1.1226  0.5180 -1.8545
16376SOL     OW53974   3.898   9.198   7.341 -0.3116  0.6210  0.0724
16376SOL    HW153975   3.813   9.241   7.352 -0.5482  0.4474 -1.0088
16376SOL    HW253976   3.954   9.266   7.302 -0.0610  0.6282  0.4497
16377SOL     OW53977   2.692   9.798   4.590 -0.3533  0.5643  0.5449
16377SOL    HW153978   2.731   9.754   4.514 -1.4977  3.2236 -1.6408
16377SOL    HW253979   2.635   9.732   4.628  1.2738 -1.2652 -0.0706
16378SOL     OW53980   4.638   8.525   7.761  0.1775 -0.4950 -0.1555
16378SOL    HW153981   4.670   8.477   7.837 -0.4609  0.9366  1.0310
16378SOL    HW253982   4.643   8.617   7.786 -1.4524 -0.0737 -1.2825
16379SOL     OW53983   6.890   9.163   5.647  0.0309 -0.2933  0.6024
16379SOL    HW153984   6.803   9.125   5.635  0.9532 -2.5381  0.8586
16379SOL    HW253985   6.894   9.183   5.741  0.2127 -1.3050  0.8198
16380SOL     OW53986   3.924   8.702   5.803  0.2287 -0.5204 -0.0205
16380SOL    HW153987   3.958   8.781   5.762  1.9249 -0.7345  0.9072
16380SOL    HW253988   3.912   8.726   5.895  0.6233 -1.2933  0.2389
16381SOL     OW53989   4.506   9.993   6.930  0.1526 -0.1267 -0.4916
16381SOL    HW153990   4.578   9.933   6.945  0.3526  0.1932 -0.1409
16381SOL    HW253991   4.466  10.004   7.016 -0.1638 -0.1177 -0.6401
16382SOL     OW53992   3.218   8.129   6.459  0.3260  0.1834  0.3984
16382SOL    HW153993   3.181   8.171   6.537  2.4276  0.5082  1.2379
16382SOL    HW253994   3.208   8.193   6.389  0.2856  0.6804  0.8607
16383SOL     OW53995   3.760   9.346   5.870 -0.8044 -0.6101 -0.4096
16383SOL    HW153996   3.685   9.291   5.848 -0.2931 -1.6971  0.5154
16383SOL    HW253997   3.824   9.327   5.801 -1.3225  0.2252 -1.1298
16384SOL     OW53998   5.973   7.981   6.858 -0.2318 -0.0457  0.2170
16384SOL    HW153999   5.996   7.964   6.949 -0.6253 -0.6765  0.2022
16384SOL    HW254000   5.898   7.924   6.841 -1.1460  1.2044 -0.0381
16385SOL     OW54001   2.731   7.197   7.979 -0.0251 -0.2015 -0.1985
16385SOL    HW154002   2.638   7.211   7.964  0.1132 -0.4894 -1.3559
16385SOL    HW254003   2.774   7.240   7.905  0.8293  1.1551  1.0687
16386SOL     OW54004   4.679   1.129   5.726  0.6456 -0.3196 -0.1355
16386SOL    HW154005   4.639   1.216   5.729  0.0002 -0.3954 -4.1219
16386SOL    HW254006   4.611   1.071   5.761  1.4571  0.7767  3.5628
16387SOL     OW54007   4.822   8.564   7.390  0.1931 -0.2491  0.5158
16387SOL    HW154008   4.779   8.619   7.324 -0.5805 -0.6892  0.6501
16387SOL    HW254009   4.873   8.501   7.338  0.1723 -0.1265  0.3456
16388SOL     OW54010   6.675   8.009   6.087  0.7267 -0.2876 -0.0410
16388SOL    HW154011   6.665   7.915   6.071 -1.7798  0.2669 -2.0532
16388SOL    HW254012   6.613   8.028   6.157 -0.8023  0.3003 -1.5063
16389SOL     OW54013   6.382   9.159   6.476 -0.2794 -0.3595 -0.0404
16389SOL    HW154014   6.442   9.126   6.410  0.9091  1.5538  0.0285
16389SOL    HW254015   6.411   9.249   6.491 -1.9902 -0.0226  1.3843
16390SOL     OW54016   6.117   7.423   5.792  0.3950  0.3805  0.4243
16390SOL    HW154017   6.088   7.336   5.765  0.2892  0.3097  0.7584
16390SOL    HW254018   6.149   7.464   5.712 -1.0654  0.6373 -0.0321
16391SOL     OW54019   4.093   8.034   5.943 -0.2955  0.6666 -0.3646
16391SOL    HW154020   4.154   7.969   5.909 -0.3607  0.1097  0.5760
16391SOL    HW254021   4.139   8.074   6.017 -1.7498 -1.0681  1.5664
16392SOL     OW54022   4.768   9.635   5.496  0.2376  0.1998  0.4477
16392SOL    HW154023   4.819   9.715   5.479 -0.4045  0.1657 -1.8573
16392SOL    HW254024   4.761   9.631   5.591  1.0084  2.4370  0.6382
16393SOL     OW54025   3.563   7.869   6.686  0.5668  0.5269  0.9008
16393SOL    HW154026   3.477   7.882   6.647  0.2114 -1.5072  0.9862
16393SOL    HW254027   3.622   7.857   6.611  0.0787 -2.1901  0.9102
16394SOL     OW54028   3.726   7.300   8.310 -1.0620 -0.1691 -0.5603
16394SOL    HW154029   3.646   7.247   8.308 -0.1503 -1.5858 -0.2268
16394SOL    HW254030   3.766   7.286   8.225 -0.9243  0.1668 -0.5517
16395SOL     OW54031   2.619   8.189   8.896  0.3115 -0.0493 -0.6234
16395SOL    HW154032   2.598   8.101   8.928  0.3324  0.2248  0.1306
16395SOL    HW254033   2.615   8.181   8.800 -0.5318 -0.6650 -0.5378
16396SOL     OW54034   3.607   9.057   8.470 -0.6084 -0.2284 -0.0941
16396SOL    HW154035   3.567   9.076   8.385 -2.2711 -0.6513  0.5751
16396SOL    HW254036   3.577   9.129   8.526 -1.8131 -1.4635  0.8521
16397SOL     OW54037   4.296   0.127   7.803 -0.2000 -0.0652  0.2863
16397SOL    HW154038   4.363   0.183   7.842 -1.2988  1.0042  0.6798
16397SOL    HW254039   4.267   0.071   7.874  1.9566 -2.2215 -0.4662
16398SOL     OW54040   4.614   8.323   8.452  0.3909  0.0253  0.1605
16398SOL    HW154041   4.522   8.320   8.425  0.2688  0.7010  0.4738
16398SOL    HW254042   4.612   8.306   8.546  0.5474  0.4012  0.2329
16399SOL     OW54043   6.867   6.880   8.320  0.7705 -0.1977  0.0431
16399SOL    HW154044   6.947   6.858   8.368  1.4884  1.1257 -0.5026
16399SOL    HW254045   6.877   6.835   8.236  0.3157 -1.1219  0.4850
16400SOL     OW54046   4.544   0.512   8.031 -0.1257 -0.3412  0.5918
16400SOL    HW154047   4.491   0.459   8.090 -2.3177  0.1334 -0.8763
16400SOL    HW254048   4.574   0.451   7.964  0.1631 -0.3823  0.7600
16401SOL     OW54049   4.120   8.364   8.042 -0.2535 -0.3792  1.1253
16401SOL    HW154050   4.130   8.343   8.135 -1.3207 -2.4996  0.7849
16401SOL    HW254051   4.025   8.370   8.029 -0.0711  2.0705  0.6063
16402SOL     OW54052   4.324   0.404   9.625  0.2876  0.1388  0.2455
16402SOL    HW154053   4.387   0.385   9.694  1.3451  0.4114 -0.6231
16402SOL    HW254054   4.337   0.333   9.561  0.2957  0.6597 -0.3343
16403SOL     OW54055   5.654   9.581   0.241 -0.1762 -0.9233 -0.3673
16403SOL    HW154056   5.708   9.521   0.292  0.6402 -0.1990 -0.3915
16403SOL    HW254057   5.568   9.537   0.237 -0.0639 -1.2952  1.0391
16404SOL     OW54058   4.787   7.846   9.493 -0.2255  0.5629 -0.1895
16404SOL    HW154059   4.698   7.877   9.512 -0.3405 -1.4542  2.9121
16404SOL    HW254060   4.843   7.899   9.550  0.3576  0.3592 -0.5708
16405SOL     OW54061   5.762   8.001   9.811 -0.4467 -0.2901 -0.0793
16405SOL    HW154062   5.824   7.979   9.880  0.7202 -0.6157 -1.2141
16405SOL    HW254063   5.735   7.916   9.775 -0.2127 -0.0803 -0.7528
16406SOL     OW54064   4.392   8.746   7.468  0.6118 -0.5423 -0.7290
16406SOL    HW154065   4.381   8.657   7.503  0.7713 -0.6501 -0.9489
16406SOL    HW254066   4.323   8.755   7.403 -0.1176 -0.0881  0.1089
16407SOL     OW54067   6.970   0.479   9.696  0.3996  0.1934 -0.0399
16407SOL    HW154068   6.910   0.483   9.622 -0.3261  0.1816  0.5406
16407SOL    HW254069   7.057   0.493   9.657  0.0946 -0.4402 -0.9693
16408SOL     OW54070   3.611   8.549   6.581 -0.1958 -0.2248 -0.1402
16408SOL    HW154071   3.669   8.473   6.578 -1.3615 -1.1017 -1.2972
16408SOL    HW254072   3.641   8.600   6.656  2.1069 -0.6077 -0.7580
16409SOL     OW54073   3.505   0.282   8.707  0.0474  0.1567 -0.6594
16409SOL    HW154074   3.509   0.326   8.792  0.4792  0.0396 -0.6184
16409SOL    HW254075   3.509   0.352   8.643 -0.4599  0.2590 -0.5826
16410SOL     OW54076   5.572   8.329   8.953 -0.1147 -0.8121  0.8145
16410SOL    HW154077   5.617   8.414   8.953 -1.9939  0.2308  1.9805
16410SOL    HW254078   5.574   8.301   8.861  0.8887  0.3153  0.4781
16411SOL     OW54079   4.254   6.831   9.050 -0.1871 -0.3802 -0.6977
16411SOL    HW154080   4.218   6.902   8.997 -0.7390 -0.0482  0.0939
16411SOL    HW254081   4.227   6.854   9.140  0.9525 -0.7820 -0.2500
16412SOL     OW54082   2.700   8.431   7.510 -0.0693  0.7972 -0.2356
16412SOL    HW154083   2.612   8.447   7.544 -0.2461 -0.1569 -0.2174
16412SOL    HW254084   2.740   8.372   7.574 -0.3935 -0.9920 -1.6425
16413SOL     OW54085   5.681   9.001   7.948 -0.2180 -0.2907  0.2049
16413SOL    HW154086   5.642   9.066   7.890 -0.9493  0.0067  1.0213
16413SOL    HW254087   5.757   9.046   7.985 -1.3094  0.4757  1.5597
16414SOL     OW54088   3.433   9.501   7.413 -0.5211  0.1790 -0.6138
16414SOL    HW154089   3.479   9.583   7.392 -0.4457 -0.1441 -1.7541
16414SOL    HW254090   3.378   9.523   7.488  2.4274  0.2494  1.6416
16415SOL     OW54091   5.670   8.193   9.205 -0.3717  0.2439 -0.5233
16415SOL    HW154092   5.655   8.254   9.133 -0.3088  1.3378  0.3883
16415SOL    HW254093   5.764   8.178   9.205  0.0680  2.7238  1.3109
16416SOL     OW54094   3.865   0.998   7.229 -0.4164 -0.0642 -0.2229
16416SOL    HW154095   3.809   0.968   7.157 -1.4171 -0.3804  0.6651
16416SOL    HW254096   3.923   0.924   7.247 -0.8661 -0.3660 -0.0117
16417SOL     OW54097   5.607   9.310   6.386  0.3610  0.0153  0.4456
16417SOL    HW154098   5.563   9.256   6.452  2.6031  1.9391  3.6188
16417SOL    HW254099   5.587   9.400   6.411 -0.5556  0.7894 -2.8457
16418SOL     OW54100   4.861   9.651   8.942 -0.5084 -0.4490  0.1527
16418SOL    HW154101   4.812   9.712   8.888 -1.2213 -2.2273 -1.2894
16418SOL    HW254102   4.795   9.607   8.995 -0.0985 -0.5536  0.5825
16419SOL     OW54103   4.260   9.651   8.716  0.3496  0.1285  0.3464
16419SOL    HW154104   4.297   9.653   8.804 -1.0908 -0.5901  0.9861
16419SOL    HW254105   4.260   9.743   8.688  1.2483  0.3014  0.9112
16420SOL     OW54106   3.603   7.765   7.572  0.2386 -0.1057  0.5431
16420SOL    HW154107   3.638   7.848   7.540  0.4743 -0.1395  0.7087
16420SOL    HW254108   3.525   7.790   7.622  0.6909  0.0802  1.1629
16421SOL     OW54109   4.906   7.432   8.078  0.1250  0.2934 -0.1198
16421SOL    HW154110   4.917   7.475   7.993 -0.0729  2.1299  0.7412
16421SOL    HW254111   4.845   7.360   8.061  1.8899 -0.8114 -1.9759
16422SOL     OW54112   5.734   8.785   7.060 -0.0191 -0.1406  0.7027
16422SOL    HW154113   5.760   8.694   7.077 -0.6708 -0.5363 -0.3317
16422SOL    HW254114   5.725   8.824   7.147  1.6095 -0.6752  1.1378
16423SOL     OW54115   3.533   9.762   8.781 -0.3254 -0.5740 -0.2297
16423SOL    HW154116   3.483   9.831   8.736  0.8392  1.0230  0.8847
16423SOL    HW254117   3.472   9.728   8.847 -1.1532 -1.1415 -1.2660
16424SOL     OW54118   4.527   6.904   8.041 -0.2664 -0.1470 -0.1544
16424SOL    HW154119   4.547   6.901   8.135  0.4065  0.7636 -0.2576
16424SOL    HW254120   4.431   6.904   8.037 -0.3475  2.5934  0.6693
16425SOL     OW54121   5.866   9.294   9.850 -0.2379 -0.2938 -0.5241
16425SOL    HW154122   5.894   9.337   9.931  1.9465 -0.3874 -1.1809
16425SOL    HW254123   5.926   9.219   9.841 -1.8206 -1.5113 -1.1345
16426SOL     OW54124   4.862   7.833   8.340  0.2266 -0.6336  0.1525
16426SOL    HW154125   4.939   7.875   8.379 -0.2762 -0.2633  0.7528
16426SOL    HW254126   4.898   7.774   8.274  1.0072 -0.1912  0.1781
16427SOL     OW54127   2.890   8.057   7.314  0.0405  0.3506  0.5728
16427SOL    HW154128   2.985   8.065   7.311  0.2573 -2.7250 -1.7835
16427SOL    HW254129   2.872   8.016   7.399  1.0462 -1.8361 -0.2593
16428SOL     OW54130   4.251   9.788   6.969  0.8093  0.0334 -0.1525
16428SOL    HW154131   4.243   9.881   6.945  0.8456  0.5876  1.8652
16428SOL    HW254132   4.160   9.758   6.979  0.7747  0.8682  2.7323
16429SOL     OW54133   4.583   8.102   9.607  0.7541  0.3766  0.1742
16429SOL    HW154134   4.652   8.143   9.555  1.6651 -2.0606 -0.5891
16429SOL    HW254135   4.627   8.068   9.684  0.1680  0.1145  0.3984
16430SOL     OW54136   4.399   8.660   9.066 -1.0534 -0.3287 -0.3116
16430SOL    HW154137   4.343   8.726   9.024  0.9625 -0.3519 -3.1324
16430SOL    HW254138   4.476   8.709   9.094 -1.4858 -0.7122  1.6075
16431SOL     OW54139   5.219   8.328   8.695 -0.1405  0.2919  0.5393
16431SOL    HW154140   5.214   8.242   8.736  2.6733 -0.4435 -0.5395
16431SOL    HW254141   5.163   8.321   8.618 -1.6213  0.1406  1.6173
16432SOL     OW54142   4.302   9.977   6.683 -0.0684  0.1402 -0.5675
16432SOL    HW154143   4.293  10.072   6.682 -3.2985 -0.0981 -2.6249
16432SOL    HW254144   4.387   9.960   6.644  0.1004  2.1610 -1.1270
16433SOL     OW54145   5.040   7.344   7.270  0.8013 -0.0447  0.1267
16433SOL    HW154146   4.965   7.291   7.298  1.5181 -0.7955  0.6453
16433SOL    HW254147   5.012   7.383   7.187  0.2447 -1.1988 -0.2381
16434SOL     OW54148   4.912   9.094   8.723 -0.1061 -0.1222  0.6538
16434SOL    HW154149   4.874   9.019   8.769 -1.7602  0.0812 -0.3344
16434SOL    HW254150   4.852   9.166   8.742  1.1189  0.8088  1.0583
16435SOL     OW54151   2.215   6.508   8.402  0.1969  0.2251  0.1423
16435SOL    HW154152   2.163   6.535   8.326  0.7090  0.5525 -0.0965
16435SOL    HW254153   2.232   6.415   8.387 -1.9353 -0.3556  1.1870
16436SOL     OW54154   5.773   9.887   8.496 -0.5973 -0.1385  0.0091
16436SOL    HW154155   5.828   9.901   8.419 -0.3307  0.7036  0.3480
16436SOL    HW254156   5.685   9.874   8.460 -0.6734  1.4060 -0.3792
16437SOL     OW54157   3.690   8.982   7.565 -0.0173  0.0915 -0.6044
16437SOL    HW154158   3.622   8.961   7.629  0.0025 -1.3265 -1.0288
16437SOL    HW254159   3.757   9.030   7.615  0.9597 -2.7372  0.9169
16438SOL     OW54160   5.930   9.328   7.305  0.2475 -0.2808  0.1342
16438SOL    HW154161   5.995   9.370   7.361  1.0988 -0.9110 -0.3549
16438SOL    HW254162   5.846   9.353   7.341  0.7876 -0.9689  1.9149
16439SOL     OW54163   6.085   8.099   9.896  0.1768  0.5812  0.7626
16439SOL    HW154164   6.177   8.100   9.869 -0.3376 -1.0571 -1.1350
16439SOL    HW254165   6.048   8.179   9.860  1.0153  1.6575  2.2209
16440SOL     OW54166   4.278   9.172   9.114 -0.4306 -0.5043 -0.0197
16440SOL    HW154167   4.229   9.253   9.094  3.4824  1.9106 -0.3260
16440SOL    HW254168   4.243   9.145   9.199 -2.1759  1.2325 -0.1199
16441SOL     OW54169   3.117   7.361   9.383 -0.7021  0.0205 -0.3455
16441SOL    HW154170   3.041   7.414   9.360 -1.8130 -0.9341  1.0186
16441SOL    HW254171   3.192   7.417   9.364 -1.7035  0.8477 -2.0810
16442SOL     OW54172   5.168   9.378   6.250  0.2776 -0.0486  0.1661
16442SOL    HW154173   5.157   9.318   6.324 -1.4451 -0.4852 -0.4115
16442SOL    HW254174   5.250   9.424   6.268  1.3408 -2.1566  0.9138
16443SOL     OW54175   4.151   8.813   9.307 -0.1040  0.2698 -0.5039
16443SOL    HW154176   4.081   8.758   9.343  0.0273 -0.2145 -0.9824
16443SOL    HW254177   4.232   8.775   9.341 -0.0069  0.0901 -0.9362
16444SOL     OW54178   3.310   0.288   6.799 -0.2350 -0.1590 -0.0819
16444SOL    HW154179   3.274   0.253   6.718 -4.5262  1.8187  0.8586
16444SOL    HW254180   3.285   0.381   6.798  0.8434  0.2131  2.8545
16445SOL     OW54181   4.435   9.715   6.106 -0.1096  0.0919 -0.0902
16445SOL    HW154182   4.427   9.627   6.068 -0.1108 -0.2050  0.5784
16445SOL    HW254183   4.398   9.705   6.194  0.1842  0.6899  0.0960
16446SOL     OW54184   5.433   8.183   7.735 -0.5091  0.0075 -0.7439
16446SOL    HW154185   5.491   8.125   7.784 -1.6972 -0.4572  0.1593
16446SOL    HW254186   5.425   8.143   7.649 -0.0811 -0.3254 -0.6294
16447SOL     OW54187   3.305   0.667   8.347 -0.0888  0.4687 -0.2300
16447SOL    HW154188   3.343   0.682   8.434  2.9169 -1.6663 -1.0962
16447SOL    HW254189   3.262   0.582   8.354  1.1494 -0.2591 -1.0804
16448SOL     OW54190   3.883   0.710   6.892 -0.2246  0.7801 -0.1212
16448SOL    HW154191   3.970   0.737   6.922 -0.4600  1.9003 -0.4125
16448SOL    HW254192   3.835   0.694   6.973  0.2140  0.2755  0.0430
16449SOL     OW54193   4.137   8.773   6.960  0.0383 -0.0695  0.0711
16449SOL    HW154194   4.188   8.772   6.879  2.7946 -2.8711  1.6907
16449SOL    HW254195   4.139   8.864   6.989  0.8455  0.5667 -1.9165
16450SOL     OW54196   3.194   0.333   7.246  0.1321 -0.2909 -0.2878
16450SOL    HW154197   3.205   0.332   7.341 -0.9554 -1.5143 -0.1557
16450SOL    HW254198   3.283   0.339   7.211  0.4177  2.9149  0.8104
16451SOL     OW54199   4.534   8.304   8.723  0.1670 -0.3724 -0.7797
16451SOL    HW154200   4.600   8.366   8.755 -3.0726  2.0593  1.4633
16451SOL    HW254201   4.508   8.254   8.801 -1.0236 -0.9657 -1.5399
16452SOL     OW54202   4.051   9.484   8.762  0.4276 -0.1361  0.5025
16452SOL    HW154203   4.069   9.451   8.850 -0.6213  0.8914  1.1075
16452SOL    HW254204   4.119   9.550   8.747  0.4811 -0.1616  0.6328
16453SOL     OW54205   5.566   9.860   9.205 -0.0311 -0.4962  0.7729
16453SOL    HW154206   5.645   9.914   9.206 -0.3514 -0.0193 -0.1213
16453SOL    HW254207   5.597   9.773   9.180  0.0255 -0.0167 -0.8424
16454SOL     OW54208   4.527   8.916   9.167 -0.2647 -0.7190  0.5217
16454SOL    HW154209   4.502   8.960   9.249  0.2040 -1.9543  1.3425
16454SOL    HW254210   4.617   8.944   9.152 -0.7423  0.4678 -0.2421
16455SOL     OW54211   5.392   7.927   8.781  0.0147  0.1220 -0.2625
16455SOL    HW154212   5.353   7.979   8.851 -1.7899 -1.3018 -0.1649
16455SOL    HW254213   5.356   7.840   8.793  1.3405 -0.6592 -1.7054
16456SOL     OW54214   2.732   6.104   7.689 -0.2295 -0.0256  0.3375
16456SOL    HW154215   2.810   6.051   7.670  0.1177  0.4023  0.5714
16456SOL    HW254216   2.755   6.154   7.767 -0.5206  0.5480  0.0589
16457SOL     OW54217   4.266   8.869   6.702  0.2038  0.4864  0.3560
16457SOL    HW154218   4.353   8.830   6.697  0.0001 -0.2991  2.5053
16457SOL    HW254219   4.281   8.959   6.729  0.4149  0.6542 -0.3268
16458SOL     OW54220   4.241   7.856   9.083 -0.0942 -0.0098 -0.7852
16458SOL    HW154221   4.313   7.842   9.144 -0.2002  0.1991 -0.6108
16458SOL    HW254222   4.243   7.949   9.064  0.9539 -0.3507 -2.3815
16459SOL     OW54223   2.928   8.712   8.045  0.2925  0.3611 -0.0865
16459SOL    HW154224   2.860   8.651   8.015 -0.1503  1.7352 -1.9600
16459SOL    HW254225   2.895   8.798   8.020  2.1312  1.1579  0.1760
16460SOL     OW54226   5.783   6.272   9.374  0.3788 -0.1435  0.1779
16460SOL    HW154227   5.804   6.318   9.454 -0.7205  0.8601 -0.0926
16460SOL    HW254228   5.688   6.283   9.364  0.4240 -0.6801 -0.9891
16461SOL     OW54229   3.849   0.509   8.694  0.1065 -0.1549 -0.5715
16461SOL    HW154230   3.832   0.436   8.634  1.3026 -0.3351 -0.7067
16461SOL    HW254231   3.802   0.486   8.774 -1.3724  0.0146 -1.3932
16462SOL     OW54232   5.213   8.435   8.117 -0.2106 -0.2165 -0.6957
16462SOL    HW154233   5.133   8.400   8.078 -0.5394 -1.1246  0.7437
16462SOL    HW254234   5.278   8.365   8.107  0.2494  0.2939 -1.3382
16463SOL     OW54235   4.327   8.893   7.981  0.1008 -0.2507  0.0933
16463SOL    HW154236   4.304   8.800   7.978  0.2513 -0.2700 -0.6560
16463SOL    HW254237   4.307   8.926   7.893  2.5280 -0.2004 -0.5037
16464SOL     OW54238   4.208   8.826   8.838 -0.1555 -0.2853 -0.1126
16464SOL    HW154239   4.276   8.876   8.884 -0.8404  0.4692  0.0769
16464SOL    HW254240   4.193   8.875   8.758  0.0720 -0.8791 -0.5206
16465SOL     OW54241   4.718   5.196   8.997 -0.2199 -0.3753  0.2074
16465SOL    HW154242   4.715   5.142   8.918  0.1575 -0.1074  0.0085
16465SOL    HW254243   4.790   5.257   8.981  1.0538 -1.4858  1.5114
16466SOL     OW54244   3.834   6.704   8.750 -0.2734  0.2288  0.5289
16466SOL    HW154245   3.741   6.692   8.728 -0.5128  0.4747  1.3965
16466SOL    HW254246   3.851   6.796   8.728 -0.1184  0.0740 -0.0220
16467SOL     OW54247   4.759   8.600   8.080 -0.3119 -0.5673 -0.4131
16467SOL    HW154248   4.700   8.526   8.092 -0.9789  0.1240  0.5747
16467SOL    HW254249   4.750   8.652   8.160  1.9726 -0.6978 -0.0452
16468SOL     OW54250   4.728   9.057   6.570 -0.4716  0.5295  0.5595
16468SOL    HW154251   4.688   9.014   6.645  1.4989 -2.3326  0.0337
16468SOL    HW254252   4.679   9.026   6.494 -0.5773  1.0862  0.3984
16469SOL     OW54253   6.238   7.480   8.547  0.0990 -0.1715 -0.0687
16469SOL    HW154254   6.180   7.532   8.491  0.1673 -1.0559 -0.9510
16469SOL    HW254255   6.198   7.394   8.550  0.3531 -0.2612  0.8652
16470SOL     OW54256   2.137   7.761   8.780 -0.1163 -0.3372 -0.3357
16470SOL    HW154257   2.170   7.786   8.694  1.0786  0.8948  0.4526
16470SOL    HW254258   2.080   7.834   8.805 -0.0041 -0.4121  0.1470
16471SOL     OW54259   5.807   8.703   0.378 -0.1567 -0.3695  0.1847
16471SOL    HW154260   5.834   8.631   0.321  2.5872 -0.7614  1.8872
16471SOL    HW254261   5.847   8.683   0.463 -0.8648  2.2425  1.1944
16472SOL     OW54262   4.348   6.231   8.908  0.3480 -0.0290  0.3926
16472SOL    HW154263   4.439   6.256   8.921  0.5536 -0.9582  0.8006
16472SOL    HW254264   4.349   6.175   8.831  0.1067  0.0725  0.3153
16473SOL     OW54265   3.686   8.773   6.391 -0.0753  0.4425  0.3184
16473SOL    HW154266   3.653   8.695   6.437  0.5404  0.9554  1.6532
16473SOL    HW254267   3.633   8.845   6.426  0.4403  0.8465  0.2751
16474SOL     OW54268   5.514   8.333   9.628  0.0107  0.5207  0.2777
16474SOL    HW154269   5.571   8.257   9.632 -0.4287  0.2116  0.7162
16474SOL    HW254270   5.425   8.298   9.634 -0.2656  0.9338 -1.1726
16475SOL     OW54271   4.630   9.059   8.838  0.6865 -0.1317  0.3799
16475SOL    HW154272   4.635   9.144   8.882 -1.0005 -0.8782  2.0596
16475SOL    HW254273   4.545   9.024   8.864  1.3297 -2.2996 -0.3867
16476SOL     OW54274   5.696   1.315   9.164  0.1058  0.0608  1.0622
16476SOL    HW154275   5.738   1.231   9.182  1.7524  0.4266 -0.8487
16476SOL    HW254276   5.603   1.295   9.155  0.7839 -1.9855 -1.8222
16477SOL     OW54277   4.472   9.345   7.883 -0.0609  0.3019 -0.6742
16477SOL    HW154278   4.462   9.346   7.978  0.3387  0.4097 -0.6327
16477SOL    HW254279   4.558   9.304   7.869  0.2613  1.0800 -0.9549
16478SOL     OW54280   4.904   9.895   8.209  0.3668  0.2649 -0.2277
16478SOL    HW154281   4.967   9.852   8.151  0.5963  2.9165 -2.0349
16478SOL    HW254282   4.957   9.924   8.283  0.3648 -1.7007  0.5893
16479SOL     OW54283   4.715   6.770   0.152 -0.1136  0.4298 -0.5840
16479SOL    HW154284   4.727   6.840   0.088 -1.9724  1.4934  0.1736
16479SOL    HW254285   4.638   6.722   0.121 -0.5575  0.4786  0.4049
16480SOL     OW54286   4.973   9.442   0.185 -0.0816  0.7499 -0.2138
16480SOL    HW154287   4.878   9.437   0.194  0.0480 -2.7224 -0.4603
16480SOL    HW254288   4.987   9.471   0.095 -0.8924 -0.2947 -0.6819
16481SOL     OW54289   6.141   8.528   8.341 -0.6052  0.0868  0.4712
16481SOL    HW154290   6.236   8.525   8.333 -0.5130 -1.0386  1.8287
16481SOL    HW254291   6.115   8.437   8.356 -1.6993  0.6495  2.1179
16482SOL     OW54292   6.660   7.882   7.699 -0.2897 -0.3044  0.4333
16482SOL    HW154293   6.620   7.858   7.783 -0.8688  2.5104  1.0141
16482SOL    HW254294   6.746   7.839   7.700 -1.6264 -3.0447  0.9651
16483SOL     OW54295   4.001   8.664   9.050 -0.0158  0.1842  0.3296
16483SOL    HW154296   3.996   8.590   9.110 -0.0704 -0.0083  0.0881
16483SOL    HW254297   3.991   8.741   9.107 -0.2309 -0.0004  0.5471
16484SOL     OW54298   4.885   9.532   8.277 -0.0862  0.0333  0.4434
16484SOL    HW154299   4.902   9.523   8.183  0.5713 -1.9681  0.7298
16484SOL    HW254300   4.959   9.582   8.310 -0.7268  1.4599 -0.2165
16485SOL     OW54301   5.619   7.971   7.610 -0.8690  0.1945  0.1881
16485SOL    HW154302   5.684   8.036   7.584 -0.5397 -0.2770 -0.1707
16485SOL    HW254303   5.540   7.997   7.562 -0.9477  0.7717  0.6332
16486SOL     OW54304   4.972   0.250   6.816  0.2125  0.5504 -0.1445
16486SOL    HW154305   4.894   0.306   6.814 -1.3336 -1.5404 -0.2371
16486SOL    HW254306   5.027   0.289   6.884 -2.3564  0.2216  2.2241
16487SOL     OW54307   5.990   7.184   9.885 -0.1696 -0.2968  0.2125
16487SOL    HW154308   5.983   7.252   9.952 -0.5313 -0.3454  0.2265
16487SOL    HW254309   5.960   7.227   9.805  3.3822  0.7371 -0.6080
16488SOL     OW54310   4.182   9.240   7.926  0.7127  0.2746  0.8718
16488SOL    HW154311   4.260   9.267   7.879  0.1411 -1.2377 -1.0121
16488SOL    HW254312   4.111   9.291   7.887  0.3133 -0.5770  0.4830
16489SOL     OW54313   2.055   7.001   9.612 -0.1663  0.3188 -0.5173
16489SOL    HW154314   2.008   6.972   9.690  0.7115  0.1819 -0.0273
16489SOL    HW254315   2.118   6.931   9.596 -1.6642 -0.6025 -2.5240
16490SOL     OW54316   5.002   7.988   9.328  0.1555  0.0024 -0.3250
16490SOL    HW154317   4.984   8.010   9.419 -1.6373 -0.3601 -0.5822
16490SOL    HW254318   5.085   7.940   9.331 -0.3831 -0.8789  1.2226
16491SOL     OW54319   5.465   8.350   8.436  0.4882  0.1338 -0.0694
16491SOL    HW154320   5.397   8.409   8.403 -0.2948  0.1426  1.4858
16491SOL    HW254321   5.423   8.264   8.441 -0.0022  0.4674  2.5360
16492SOL     OW54322   4.776   6.326   9.489  0.4004  0.9460  0.1477
16492SOL    HW154323   4.720   6.386   9.440 -1.0726  1.7953  2.7820
16492SOL    HW254324   4.840   6.383   9.532  1.0807  0.2954  0.0201
16493SOL     OW54325   4.099   7.491   8.776  0.4162 -0.0013  0.3946
16493SOL    HW154326   4.007   7.470   8.759  0.5466  1.3525 -2.2392
16493SOL    HW254327   4.148   7.425   8.726  0.8483  1.2452 -0.8423
16494SOL     OW54328   5.363   7.667   7.904  0.0665  0.1800 -0.3787
16494SOL    HW154329   5.305   7.594   7.925  0.1074  0.3566  0.3752
16494SOL    HW254330   5.323   7.709   7.828 -0.7094  0.2041  0.0379
16495SOL     OW54331   3.597   6.523   8.945  0.0818  0.1202 -0.3144
16495SOL    HW154332   3.605   6.437   8.903 -2.9541 -0.4144  0.1366
16495SOL    HW254333   3.584   6.584   8.872 -0.7131 -0.2114 -0.4577
16496SOL     OW54334   3.289   8.994   7.956  0.5540 -0.2020  0.7699
16496SOL    HW154335   3.216   9.026   7.903  1.6618  0.2764 -0.5155
16496SOL    HW254336   3.356   9.061   7.948  1.2904 -0.8216  1.6024
16497SOL     OW54337   4.364   9.599   9.036 -0.1076  0.2988  0.2187
16497SOL    HW154338   4.323   9.673   8.991 -0.9949  0.1554  0.7714
16497SOL    HW254339   4.302   9.577   9.106  0.6744 -0.2612  0.7369
16498SOL     OW54340   4.673   0.061   8.992 -0.1565  0.6519 -0.1113
16498SOL    HW154341   4.752   0.028   9.035  0.7085 -0.7249 -2.6355
16498SOL    HW254342   4.689   0.154   8.981  0.2492  0.7477  1.1480
16499SOL     OW54343   3.034   7.322   8.233 -0.2477  0.4505 -0.7757
16499SOL    HW154344   3.037   7.400   8.289  0.4654  0.5324 -0.9227
16499SOL    HW254345   3.073   7.351   8.151 -0.0698 -0.0424 -0.8618
16500SOL     OW54346   5.612   8.103   0.512  0.2509 -0.1355 -0.6829
16500SOL    HW154347   5.639   8.012   0.504 -0.9466 -0.6137  0.5420
16500SOL    HW254348   5.687   8.146   0.554  0.9106 -0.4830 -1.4741
16501SOL     OW54349   4.584   9.246   9.772 -0.1526 -0.0801  0.0296
16501SOL    HW154350   4.628   9.253   9.687  0.7501 -0.8914  0.4246
16501SOL    HW254351   4.559   9.154   9.779 -0.5697  0.0665  0.4706
16502SOL     OW54352   4.318   8.464   0.374  0.1249  0.6328 -0.0987
16502SOL    HW154353   4.289   8.544   0.330  1.7490  0.3963 -1.6228
16502SOL    HW254354   4.321   8.398   0.305  0.9343 -0.1960  0.7128
16503SOL     OW54355   5.353   9.887   9.394 -0.1653 -0.4370 -0.3875
16503SOL    HW154356   5.394   9.830   9.459 -0.6755 -0.6334 -0.2323
16503SOL    HW254357   5.396   9.865   9.312  2.1955  1.5007  0.2672
16504SOL     OW54358   3.835   7.925   7.210 -0.2904  0.6560  0.1528
16504SOL    HW154359   3.922   7.914   7.172 -0.4165  0.6341 -0.1223
16504SOL    HW254360   3.774   7.909   7.138 -0.5829 -1.3377  0.8230
16505SOL     OW54361   3.166   8.862   8.246 -0.0236 -0.2430 -0.1921
16505SOL    HW154362   3.120   8.913   8.180 -0.9196 -0.0612  0.5588
16505SOL    HW254363   3.107   8.861   8.321  0.4742 -1.4395  0.1999
16506SOL     OW54364   5.324   8.577   8.368  0.5172  0.1942  0.4140
16506SOL    HW154365   5.344   8.601   8.458 -0.2401 -1.0462  0.9218
16506SOL    HW254366   5.229   8.586   8.361  0.7551  2.1664 -0.8416
16507SOL     OW54367   3.475   8.202   8.088  0.3367 -0.3125  0.6322
16507SOL    HW154368   3.528   8.278   8.108  1.3085 -0.9244  0.4368
16507SOL    HW254369   3.425   8.185   8.167  0.6143  0.1230  0.9002
16508SOL     OW54370   4.868   6.656   8.650  0.0781  0.1712 -0.1483
16508SOL    HW154371   4.859   6.570   8.689 -0.0071  0.1245 -0.2686
16508SOL    HW254372   4.898   6.712   8.721  0.2198  0.0224 -0.0918
16509SOL     OW54373   4.669   8.015   9.287  0.2168 -0.2893 -0.4636
16509SOL    HW154374   4.586   8.062   9.282 -0.6946 -1.8360  0.0546
16509SOL    HW254375   4.719   8.061   9.355  0.6463  1.9388 -2.2139
16510SOL     OW54376   4.309   9.535   8.206  0.0409  0.0574  0.9208
16510SOL    HW154377   4.235   9.476   8.194 -0.5256  0.9558 -0.0935
16510SOL    HW254378   4.379   9.497   8.151 -0.1917  0.1117  0.5858
16511SOL     OW54379   1.938   9.236   7.890 -0.4236 -0.3057 -0.1904
16511SOL    HW154380   1.918   9.307   7.951 -0.4894 -0.5205  0.0363
16511SOL    HW254381   2.022   9.201   7.921 -0.3029 -0.2099 -0.4093
16512SOL     OW54382   4.036   9.951   8.411  0.3084  0.5345 -0.4778
16512SOL    HW154383   3.961   9.891   8.401 -0.7675  1.8567 -0.4527
16512SOL    HW254384   4.106   9.910   8.360  0.6714 -2.5035  2.2672
16513SOL     OW54385   4.871   8.188   8.873  0.5806 -0.3079  0.0087
16513SOL    HW154386   4.866   8.144   8.789  0.6686 -1.5134  0.6212
16513SOL    HW254387   4.794   8.157   8.921  1.6591 -1.2909  1.1434
16514SOL     OW54388   4.070   9.046   8.076 -0.7529  0.0146  0.1764
16514SOL    HW154389   4.130   9.101   8.024 -0.0668 -0.2900  0.6373
16514SOL    HW254390   4.084   8.957   8.042 -0.5310 -0.1398  0.6692
16515SOL     OW54391   3.897   8.138   8.505  0.7676 -0.5050  0.9078
16515SOL    HW154392   3.884   8.230   8.524  1.5428 -0.5298  1.5771
16515SOL    HW254393   3.815   8.110   8.465  0.0498  0.1598  1.8957
16516SOL     OW54394   4.941   8.188   9.149 -0.0379 -0.4060 -0.3094
16516SOL    HW154395   4.994   8.110   9.165 -0.5877 -0.9639 -1.1660
16516SOL    HW254396   4.930   8.191   9.054 -0.6093  0.3232 -0.2302
16517SOL     OW54397   3.377   6.299   9.134 -0.1324 -0.4913 -0.0803
16517SOL    HW154398   3.345   6.389   9.129 -0.2588 -0.6107 -2.1955
16517SOL    HW254399   3.395   6.285   9.226 -1.2827  1.2962  0.4568
16518SOL     OW54400   5.351   7.550   1.186 -0.2117  0.4367  0.2031
16518SOL    HW154401   5.368   7.629   1.237  1.2041  1.7706 -2.2690
16518SOL    HW254402   5.437   7.510   1.173 -0.8903 -1.4733  1.2559
16519SOL     OW54403   4.078   9.296   9.639  0.2834 -0.3856  0.1956
16519SOL    HW154404   4.136   9.219   9.646 -0.5142 -1.1954 -1.9504
16519SOL    HW254405   4.118   9.350   9.571 -0.2781  0.1215  0.2659
16520SOL     OW54406   5.433   8.781   9.535  0.5166  0.4572 -0.1299
16520SOL    HW154407   5.506   8.790   9.596  0.1392  1.1099  0.2342
16520SOL    HW254408   5.447   8.697   9.493  1.6782  0.7388 -0.3218
16521SOL     OW54409   5.957   0.753   8.760  0.3913 -0.1187 -0.9614
16521SOL    HW154410   5.956   0.705   8.677  1.0576 -1.4131 -0.2367
16521SOL    HW254411   5.874   0.731   8.802  0.3259  0.0530 -0.9951
16522SOL     OW54412   4.163   8.225   7.295 -0.2135  0.1140 -0.1129
16522SOL    HW154413   4.245   8.261   7.328 -1.7188  2.8603  0.7359
16522SOL    HW254414   4.160   8.136   7.330  1.7205  0.4490  0.9764
16523SOL     OW54415   4.405   8.120   8.196 -0.5273 -0.2487 -0.2209
16523SOL    HW154416   4.340   8.141   8.128 -1.4863  0.6860  0.9428
16523SOL    HW254417   4.379   8.175   8.271  0.1362 -1.7156  1.1082
16524SOL     OW54418   5.033   9.044   8.486 -0.1541  0.6156  0.2191
16524SOL    HW154419   5.031   9.123   8.433  0.4774  0.5884  0.1555
16524SOL    HW254420   4.984   9.067   8.565  0.5196  1.2443  0.4542
16525SOL     OW54421   4.645   9.659   8.271  0.4737 -0.2470 -0.4733
16525SOL    HW154422   4.705   9.584   8.274  0.7706  0.0614  2.0108
16525SOL    HW254423   4.684   9.717   8.206  3.6055  0.5146  1.9717
16526SOL     OW54424   6.633   8.902   9.893  0.3989  0.5980 -0.1575
16526SOL    HW154425   6.652   8.988   9.930  1.0021  0.6518 -0.5801
16526SOL    HW254426   6.655   8.840   9.962 -0.4434  0.7989  0.2998
16527SOL     OW54427   4.151   0.592   8.717  0.0980  0.6563  0.0743
16527SOL    HW154428   4.118   0.679   8.695 -0.2383 -0.0369 -2.3638
16527SOL    HW254429   4.098   0.533   8.664  2.0852 -0.8290 -0.3198
16528SOL     OW54430   4.124   9.067   7.691  0.4185  0.4356 -0.5337
16528SOL    HW154431   4.155   9.107   7.610  1.7438  0.3230 -0.1000
16528SOL    HW254432   4.161   9.122   7.761  1.4431 -0.9414  0.0377
16529SOL     OW54433   4.056   1.861   6.927 -0.5642 -0.1103  0.2460
16529SOL    HW154434   4.019   1.824   7.007 -1.6867  0.3212 -0.0657
16529SOL    HW254435   4.108   1.790   6.890 -1.5529 -0.9144  0.3864
16530SOL     OW54436   4.550   9.585   7.812  0.4704 -0.0708  0.1945
16530SOL    HW154437   4.513   9.498   7.824  1.9301 -0.6700  0.4932
16530SOL    HW254438   4.481   9.645   7.842  0.0255 -1.1718  1.4517
16531SOL     OW54439   4.368   8.990   8.957 -0.4778 -0.0065  0.2413
16531SOL    HW154440   4.310   9.057   8.994 -0.0250  0.8784 -0.6345
16531SOL    HW254441   4.434   8.976   9.024 -0.1605  0.9556  0.1345
16532SOL     OW54442   1.512   9.514   8.896  0.2267  0.1831  0.4414
16532SOL    HW154443   1.520   9.554   8.983  0.7755 -0.4456  0.6853
16532SOL    HW254444   1.600   9.521   8.858  0.4684 -1.2793  0.7064
16533SOL     OW54445   5.467   8.545   9.417 -0.3165 -0.3730  0.2839
16533SOL    HW154446   5.549   8.557   9.369 -0.2927  2.2937  0.9324
16533SOL    HW254447   5.487   8.477   9.482  1.4882  0.4807  0.6537
16534SOL     OW54448   4.818   9.334   8.815  0.5605 -0.9412  0.6527
16534SOL    HW154449   4.895   9.384   8.844  0.6574  0.1241 -1.2789
16534SOL    HW254450   4.783   9.386   8.742 -2.9956 -0.5404  2.5387
16535SOL     OW54451   4.755   9.256   7.055 -0.4110 -0.9002  0.2320
16535SOL    HW154452   4.763   9.161   7.049 -1.3281 -0.9315 -0.6458
16535SOL    HW254453   4.826   9.283   7.113  0.7835 -1.9750 -0.7187
16536SOL     OW54454   4.781   9.304   9.568  0.2529 -0.2246  0.8365
16536SOL    HW154455   4.845   9.296   9.639 -0.1760  0.9948  1.3754
16536SOL    HW254456   4.785   9.395   9.542 -0.3515 -0.4325  0.0001
16537SOL     OW54457   5.110   9.069   9.168 -0.2238  0.3513 -0.1903
16537SOL    HW154458   5.183   9.108   9.217 -0.5675 -1.7883  2.1447
16537SOL    HW254459   5.042   9.135   9.169  1.2585  1.9261 -1.3766
16538SOL     OW54460   3.204   7.355   6.721  0.0186 -0.2336 -0.1260
16538SOL    HW154461   3.199   7.307   6.639  0.7696 -2.6361  1.1797
16538SOL    HW254462   3.114   7.356   6.754  0.1437 -1.6235  0.2948
16539SOL     OW54463   4.736   8.989   7.102  0.0924 -0.0019  0.8677
16539SOL    HW154464   4.794   8.926   7.058 -0.2493  0.4551 -0.2412
16539SOL    HW254465   4.649   8.951   7.094  0.0954 -0.1854  1.6399
16540SOL     OW54466   5.148   8.737   8.168 -0.1793  0.1013 -0.5500
16540SOL    HW154467   5.134   8.661   8.224  1.0399 -0.1684 -0.6007
16540SOL    HW254468   5.101   8.808   8.211 -1.1061 -0.6130 -0.3685
16541SOL     OW54469   5.276   9.096   7.631  0.0588  0.6315 -0.4939
16541SOL    HW154470   5.218   9.032   7.589 -0.8636  1.7635 -0.9639
16541SOL    HW254471   5.341   9.042   7.678 -3.1455 -0.6954  2.6224
16542SOL     OW54472   5.098   0.392   7.940 -0.1858  0.2622  0.2923
16542SOL    HW154473   5.082   0.409   7.847 -0.4934  0.3217  0.3544
16542SOL    HW254474   5.019   0.423   7.984  0.1646  0.6943  0.6249
16543SOL     OW54475   3.324   8.507   9.728  0.1253 -0.0295 -0.3357
16543SOL    HW154476   3.418   8.519   9.714  0.3357 -0.0890  1.0117
16543SOL    HW254477   3.317   8.473   9.817 -1.2362  0.9187 -0.0668
16544SOL     OW54478   4.630   8.895   6.824 -0.3295  0.4948  0.0909
16544SOL    HW154479   4.717   8.867   6.853 -0.6240  1.0525  1.5650
16544SOL    HW254480   4.588   8.815   6.794  0.8416  0.2856 -1.0731
16545SOL     OW54481   3.028   5.971   7.945 -0.0643 -0.0423 -0.1644
16545SOL    HW154482   3.094   6.007   7.885 -1.1688 -2.6302 -3.0662
16545SOL    HW254483   3.009   5.884   7.910 -2.7191 -0.5989  2.4797
16546SOL     OW54484   5.443   7.375   9.023 -0.3158 -0.9358  0.3395
16546SOL    HW154485   5.384   7.413   9.088 -0.1179  1.6517 -0.9462
16546SOL    HW254486   5.520   7.432   9.024 -0.0164 -1.2783 -1.6486
16547SOL     OW54487   4.749   9.736   7.976 -0.1327  0.6343  0.2418
16547SOL    HW154488   4.811   9.664   7.990 -0.0813  0.9637  1.7051
16547SOL    HW254489   4.684   9.699   7.916  1.5534  0.3380 -1.4461
16548SOL     OW54490   6.094   7.800   8.822  0.0517 -0.3534  0.2972
16548SOL    HW154491   6.032   7.741   8.779  0.2351 -0.4971  0.2277
16548SOL    HW254492   6.039   7.859   8.874 -0.0060 -1.9437  2.0838
16549SOL     OW54493   4.808   8.475   8.314  0.2145  0.0667  0.0130
16549SOL    HW154494   4.746   8.436   8.376  2.0715  0.1974  2.0138
16549SOL    HW254495   4.857   8.400   8.279 -0.3096  0.0659 -0.7191
16550SOL     OW54496   3.331   6.394   8.698  0.0733  0.4321  0.0522
16550SOL    HW154497   3.332   6.393   8.602 -3.6878  0.9280 -0.0744
16550SOL    HW254498   3.419   6.368   8.723  1.1385  0.2629 -3.5407
16551SOL     OW54499   2.817   8.048   8.706 -0.0300  0.3583 -0.0703
16551SOL    HW154500   2.823   7.955   8.686  0.8809  0.1205  1.2261
16551SOL    HW254501   2.907   8.073   8.731 -0.3143  1.5176 -0.1945
16552SOL     OW54502   5.233   9.023   8.074 -0.0825 -0.1091  0.4397
16552SOL    HW154503   5.324   9.011   8.102 -0.3286 -0.7357  0.9752
16552SOL    HW254504   5.218   9.118   8.080  0.2831 -0.0941  1.1336
16553SOL     OW54505   4.049   8.912   8.350 -0.3061 -0.3016  0.4595
16553SOL    HW154506   4.082   8.844   8.291 -0.5786  1.1575 -1.4499
16553SOL    HW254507   3.954   8.902   8.348 -0.5252  1.7236 -1.9063
16554SOL     OW54508   4.420   9.023   9.389 -0.1696  0.1644 -0.4179
16554SOL    HW154509   4.326   9.038   9.378  0.0736  2.1570  0.0987
16554SOL    HW254510   4.427   8.968   9.467 -1.0200 -1.8996 -1.7553
16555SOL     OW54511   6.638   0.005   8.749  0.3735  0.0414  0.1575
16555SOL    HW154512   6.555  -0.019   8.708  0.6846  0.1021 -0.5056
16555SOL    HW254513   6.619   0.004   8.843 -0.2499 -0.4112  0.0289
16556SOL     OW54514   6.698   8.138   8.384  0.0292 -0.3055 -0.4921
16556SOL    HW154515   6.637   8.190   8.332 -0.9355  0.2061  1.1011
16556SOL    HW254516   6.654   8.054   8.396 -0.5375  0.1799  0.9415
16557SOL     OW54517   5.401   8.878   8.469 -0.7773 -0.3500  0.1478
16557SOL    HW154518   5.368   8.964   8.443  0.6692 -0.2801 -1.6036
16557SOL    HW254519   5.360   8.817   8.407  1.0623 -0.4452 -1.0277
16558SOL     OW54520   5.350   7.656   8.854 -0.4472 -0.6225 -0.6569
16558SOL    HW154521   5.380   7.581   8.802  0.8875 -1.1511  0.8442
16558SOL    HW254522   5.391   7.644   8.940 -1.6304  0.9011  0.1454
16559SOL     OW54523   4.641   5.680   9.844 -0.4845 -0.0538  0.3206
16559SOL    HW154524   4.686   5.598   9.863 -0.3248 -0.4372 -1.5794
16559SOL    HW254525   4.549   5.654   9.836 -0.5424  0.0926  0.5089
16560SOL     OW54526   5.183   8.447   9.798  0.0162 -0.5804  0.2791
16560SOL    HW154527   5.151   8.491   9.877 -1.5266 -0.5751 -0.3200
16560SOL    HW254528   5.208   8.359   9.828 -1.1547 -0.7961  0.6731
16561SOL     OW54529   4.652   9.575   9.079 -0.7813  0.0427  0.5916
16561SOL    HW154530   4.557   9.587   9.080 -0.8193 -0.2667  1.1693
16561SOL    HW254531   4.669   9.509   9.147  0.0247  1.4401  1.7740
16562SOL     OW54532   4.151   0.270   9.270  0.0060  0.9202  0.3981
16562SOL    HW154533   4.130   0.282   9.363 -0.6126  0.3031  0.3425
16562SOL    HW254534   4.134   0.178   9.253 -1.9325  1.4574 -0.8183
16563SOL     OW54535   4.133   0.414   7.649 -0.0535 -0.1653  0.2497
16563SOL    HW154536   4.183   0.374   7.720  0.0039 -0.3417  0.1116
16563SOL    HW254537   4.044   0.381   7.659 -0.3831  0.9696  1.1175
16564SOL     OW54538   4.403   9.060   8.507  0.1902  0.3565 -0.0514
16564SOL    HW154539   4.354   9.112   8.570  0.7054 -1.4324  1.8742
16564SOL    HW254540   4.359   9.077   8.423 -1.2092  1.8822  0.9566
16565SOL     OW54541   4.217   9.066   9.633  0.0191  0.3881 -0.1007
16565SOL    HW154542   4.295   9.011   9.634 -0.2624 -0.1259 -2.6864
16565SOL    HW254543   4.144   9.003   9.625 -0.5763  0.9442  0.7919
16566SOL     OW54544   3.636   8.806   9.666 -0.2830 -0.0751 -0.3293
16566SOL    HW154545   3.672   8.815   9.578  1.2724  1.3759  0.4295
16566SOL    HW254546   3.623   8.897   9.695  3.0450 -0.4042  2.4723
16567SOL     OW54547   3.613   8.553   9.773  0.3790  0.0159 -0.0250
16567SOL    HW154548   3.633   8.623   9.711 -0.7852  0.7657  0.4419
16567SOL    HW254549   3.669   8.480   9.746 -0.2586  0.2630 -2.0813
16568SOL     OW54550   5.916   8.263   8.987 -0.1368  0.4147 -0.3985
16568SOL    HW154551   5.926   8.349   9.028  2.8108 -0.2533  0.3915
16568SOL    HW254552   5.938   8.278   8.895  1.5802  0.2996 -0.0203
16569SOL     OW54553   4.100   9.203   6.210 -0.1541  0.2658 -0.2725
16569SOL    HW154554   4.025   9.145   6.219  0.0157 -0.0223 -0.6892
16569SOL    HW254555   4.076   9.263   6.140 -1.0055  1.7642  1.2681
16570SOL     OW54556   5.907   8.434   7.720  0.1032  0.1516 -0.7660
16570SOL    HW154557   5.870   8.393   7.642  1.5356  0.1066 -1.4403
16570SOL    HW254558   5.907   8.528   7.700 -0.7609  0.2605 -0.2745
16571SOL     OW54559   4.304   9.268   8.681  0.0608  0.1664 -0.1349
16571SOL    HW154560   4.217   9.260   8.720  0.3919  3.5817  1.4399
16571SOL    HW254561   4.364   9.232   8.746 -0.0028 -0.5233 -0.4558
16572SOL     OW54562   4.483   9.469   8.824 -0.0029 -0.2380 -0.1171
16572SOL    HW154563   4.567   9.439   8.859  0.2896  0.2786 -0.3734
16572SOL    HW254564   4.427   9.480   8.901  0.0050 -1.0703  0.0132
16573SOL     OW54565   4.740   9.262   7.885  0.6972  0.4522  0.0411
16573SOL    HW154566   4.778   9.226   7.805  2.6649  0.4175  0.9641
16573SOL    HW254567   4.759   9.356   7.880 -1.8681  0.9828 -0.9554
16574SOL     OW54568   5.788   7.322   8.368  0.1613  0.0946  0.5912
16574SOL    HW154569   5.721   7.374   8.324  1.6871 -1.1034 -3.4549
16574SOL    HW254570   5.739   7.262   8.424 -2.0056  0.9328 -0.3537
16575SOL     OW54571   4.865   9.767   9.221 -0.1397  0.1166  0.2791
16575SOL    HW154572   4.812   9.842   9.249 -0.8800 -0.1877 -0.2841
16575SOL    HW254573   4.850   9.761   9.127  1.0480  0.1302  0.0833
16576SOL     OW54574   4.611   9.385   8.492 -0.2118 -0.4512  0.0158
16576SOL    HW154575   4.696   9.426   8.508 -0.2582 -0.3440 -0.0141
16576SOL    HW254576   4.632   9.307   8.441 -0.1119 -0.5280  0.1751
16577SOL     OW54577   5.296   8.851   9.172  0.4260 -0.6840 -0.0018
16577SOL    HW154578   5.231   8.919   9.158  0.7570 -0.1321  1.0227
16577SOL    HW254579   5.289   8.830   9.265  4.6238  2.5036  1.1892
16578SOL     OW54580   4.923   7.367   9.251  0.0702  0.2032 -0.1528
16578SOL    HW154581   4.931   7.447   9.304  3.8634  1.0220 -1.8315
16578SOL    HW254582   4.885   7.397   9.169  1.9226  0.3918 -0.9554
16579SOL     OW54583   4.135   0.900   7.280 -0.6852 -0.4046  0.3856
16579SOL    HW154584   4.117   0.890   7.373 -1.9010  2.9465  0.6030
16579SOL    HW254585   4.191   0.978   7.275  0.3552 -1.2570 -1.6010
16580SOL     OW54586   3.916   9.961   7.117 -0.7532 -0.4422 -0.3273
16580SOL    HW154587   3.935   9.966   7.211 -0.5267  2.8670 -0.4998
16580SOL    HW254588   3.824   9.983   7.110 -0.0937  2.2340 -1.0860
16581SOL     OW54589   4.312   0.913   7.654 -0.4384 -0.3721  0.3168
16581SOL    HW154590   4.336   0.886   7.743 -1.9299  0.5074  1.0110
16581SOL    HW254591   4.299   0.831   7.607 -1.1620 -0.8522  1.3355
16582SOL     OW54592   3.985   8.157   9.664 -0.4308  0.9386  0.0162
16582SOL    HW154593   4.077   8.151   9.689 -0.4372  0.0490 -0.1819
16582SOL    HW254594   3.974   8.248   9.636  0.7704  0.6164 -1.5106
16583SOL     OW54595   3.990   0.873   0.480  0.5955 -0.2785  0.0692
16583SOL    HW154596   4.058   0.813   0.450  0.5867 -0.3054  0.1031
16583SOL    HW254597   3.938   0.822   0.542 -0.0677 -0.5690 -0.7232
16584SOL     OW54598   2.744   7.782   0.655 -0.3127 -0.7515 -0.4136
16584SOL    HW154599   2.826   7.762   0.701  0.3942 -0.8510 -1.6733
16584SOL    HW254600   2.739   7.878   0.658 -0.7203 -0.7963  0.6048
16585SOL     OW54601   3.812   8.913   8.562  0.0187  0.7710 -0.2249
16585SOL    HW154602   3.746   8.955   8.507 -0.6556  0.4062  0.2931
16585SOL    HW254603   3.822   8.826   8.525 -1.8999 -0.1706  1.4144
16586SOL     OW54604   5.526   9.006   9.783 -0.2886  0.0047  0.1435
16586SOL    HW154605   5.592   9.046   9.840  0.1866  0.4201 -0.6957
16586SOL    HW254606   5.561   8.918   9.765  1.3553  1.1552 -2.4584
16587SOL     OW54607   4.031   0.148   0.024  0.0164  0.4464  0.1858
16587SOL    HW154608   4.120   0.138   0.056 -0.7800  0.1302  2.3649
16587SOL    HW254609   4.032   0.231  -0.024  1.3228  0.7618  0.7312
16588SOL     OW54610   4.812   8.205   0.001 -0.2326  0.0514  1.0655
16588SOL    HW154611   4.784   8.153  -0.074  0.0348 -1.7351  2.1945
16588SOL    HW254612   4.895   8.166   0.028 -1.3945 -0.7251  3.6273
16589SOL     OW54613   5.262   8.190   9.839 -0.0497  0.1742 -0.0727
16589SOL    HW154614   5.250   8.145   9.755 -0.4179  1.2003 -0.5774
16589SOL    HW254615   5.299   8.123   9.897  1.6420 -0.1398 -1.4656
16590SOL     OW54616   3.544   9.850   0.282 -0.2085 -0.3951  0.4996
16590SOL    HW154617   3.582   9.771   0.243 -1.7264 -0.2202 -1.4199
16590SOL    HW254618   3.619   9.904   0.305  0.7918 -1.3048 -0.5549
16591SOL     OW54619   4.298   5.719   8.547  0.1222 -0.2868  0.0909
16591SOL    HW154620   4.260   5.806   8.532  0.3304 -0.2709 -0.3542
16591SOL    HW254621   4.335   5.695   8.463 -0.3910 -1.0313  0.0711
16592SOL     OW54622   4.773   8.768   0.063  0.1585  0.8846 -0.2346
16592SOL    HW154623   4.714   8.736  -0.005 -1.0875 -0.3030  1.3591
16592SOL    HW254624   4.751   8.860   0.073  0.4210  1.0939 -1.4970
16593SOL     OW54625   3.102   8.453   0.004 -0.9154  0.2722  0.3841
16593SOL    HW154626   3.063   8.489  -0.076  1.2626  0.4370 -0.6403
16593SOL    HW254627   3.140   8.370  -0.024 -2.1489 -0.7829  1.7857
16594SOL     OW54628   6.604   8.880   8.375  0.0880 -0.2359  0.5943
16594SOL    HW154629   6.588   8.969   8.343 -0.3475  0.2520  2.1272
16594SOL    HW254630   6.688   8.886   8.419  0.6288 -0.8775 -0.3403
16595SOL     OW54631   4.124   7.995   0.190  0.1794  0.0112  0.0085
16595SOL    HW154632   4.042   8.002   0.239  0.2856 -0.7813  0.3082
16595SOL    HW254633   4.191   7.985   0.257  0.2220 -2.0894 -0.2969
16596SOL     OW54634   5.140   8.095   8.839  0.3230 -0.0153  0.2975
16596SOL    HW154635   5.046   8.112   8.833  0.2047  0.1049  2.1243
16596SOL    HW254636   5.153   8.065   8.929  1.6565 -2.5202 -0.6908
16597SOL     OW54637   5.060   0.091   8.391 -0.2996 -0.4637  0.0731
16597SOL    HW154638   5.085   0.149   8.319  1.1791  0.2244  1.1152
16597SOL    HW254639   4.995   0.141   8.440 -0.9535 -0.7436 -0.4912
16598SOL     OW54640   3.079   0.419   0.857  0.1175 -0.5970  0.2460
16598SOL    HW154641   3.096   0.469   0.937 -0.2828 -0.0416 -0.0074
16598SOL    HW254642   2.999   0.371   0.875 -0.8259  0.7288 -0.3672
16599SOL     OW54643   6.570   8.212   8.649 -0.2135  0.1443  0.1045
16599SOL    HW154644   6.501   8.242   8.708 -0.1732 -1.6889  1.1157
16599SOL    HW254645   6.534   8.132   8.609  0.5282  0.3028 -0.9063
16600SOL     OW54646   6.215   7.772   9.921  0.2793  0.5199  0.5679
16600SOL    HW154647   6.191   7.726  10.001 -1.7773  1.2805  0.4182
16600SOL    HW254648   6.276   7.713   9.876  1.0156 -0.1520  2.4003
16601SOL     OW54649   3.617   0.150   9.112  0.5793 -0.1154 -0.4900
16601SOL    HW154650   3.583   0.217   9.053 -0.8067 -0.1593  0.2236
16601SOL    HW254651   3.554   0.078   9.105  0.9559 -0.5256  0.2540
16602SOL     OW54652   5.164   6.984   9.781 -0.2739 -0.5089  0.3239
16602SOL    HW154653   5.116   6.906   9.807 -0.0761  0.4052  3.7313
16602SOL    HW254654   5.104   7.056   9.798  0.3878  0.2628 -0.5357
16603SOL     OW54655   4.240   8.297   0.870  0.3589 -0.1034 -0.6744
16603SOL    HW154656   4.261   8.359   0.940 -2.5422 -0.1337  0.2668
16603SOL    HW254657   4.250   8.347   0.789 -0.0032  1.0111 -0.0301
16604SOL     OW54658   2.844   7.284   1.743  0.0675  0.0784 -0.2025
16604SOL    HW154659   2.854   7.268   1.837 -1.3823  1.0036  0.1430
16604SOL    HW254660   2.842   7.197   1.704  0.6874 -0.3166  0.6227
16605SOL     OW54661   7.088   9.873   9.657 -0.5092  0.1205 -0.2841
16605SOL    HW154662   7.066   9.802   9.596  0.2331  0.2159 -0.6685
16605SOL    HW254663   7.182   9.887   9.645 -0.4425  0.4435  0.5646
16606SOL     OW54664   3.920   7.787   0.439  0.0059  0.3318  0.0986
16606SOL    HW154665   4.013   7.766   0.429  0.3225  1.7819 -0.1515
16606SOL    HW254666   3.917   7.883   0.441 -1.6447  0.3413 -1.4108
16607SOL     OW54667   3.502   8.712   9.196  0.3696  0.0764  0.0662
16607SOL    HW154668   3.421   8.694   9.149 -0.3154 -0.9246  1.5666
16607SOL    HW254669   3.513   8.807   9.190 -0.4558  0.1170 -0.8856
16608SOL     OW54670   3.573   8.776   0.016  0.2001  0.0396 -0.2241
16608SOL    HW154671   3.562   8.854  -0.037 -0.9210 -0.1430 -0.2785
16608SOL    HW254672   3.632   8.720  -0.036  1.2692  0.9758 -0.0254
16609SOL     OW54673   4.742   8.767   8.806 -0.4076 -0.0012 -0.2764
16609SOL    HW154674   4.835   8.780   8.792 -0.3238 -1.5548 -1.2601
16609SOL    HW254675   4.703   8.854   8.796  0.6738  0.3007 -1.9264
16610SOL     OW54676   5.124   6.215   9.517 -0.1167  0.3366 -0.1801
16610SOL    HW154677   5.071   6.151   9.468 -1.8513  1.0943  0.6481
16610SOL    HW254678   5.070   6.294   9.519  1.2631  1.2889  0.3158
16611SOL     OW54679   4.861   7.777   9.818  0.2000 -0.4697  0.1702
16611SOL    HW154680   4.926   7.839   9.785 -0.1644 -0.5468 -0.7019
16611SOL    HW254681   4.777   7.813   9.790 -0.0096 -1.4361 -0.4908
16612SOL     OW54682   6.009   8.350   0.437 -0.2981 -0.2906  0.0187
16612SOL    HW154683   6.062   8.411   0.487  1.4170 -0.8913 -1.0563
16612SOL    HW254684   5.976   8.400   0.363 -0.0910 -0.3022 -0.0789
16613SOL     OW54685   2.846   8.279   0.007 -0.1491 -0.8741  0.0584
16613SOL    HW154686   2.926   8.324  -0.020 -1.0174  1.1907  0.8045
16613SOL    HW254687   2.860   8.258   0.099 -0.3437 -0.8091  0.1028
16614SOL     OW54688   4.198   8.376   9.768 -0.0821  0.4987  0.2886
16614SOL    HW154689   4.252   8.298   9.755 -0.7262 -0.1128  1.2025
16614SOL    HW254690   4.258   8.440   9.805  0.7435  0.8511 -1.6192
16615SOL     OW54691   4.037   8.996   9.146  0.6198  0.4203  1.1242
16615SOL    HW154692   4.031   9.079   9.192 -4.0347 -0.2845  2.0812
16615SOL    HW254693   4.070   8.934   9.211  0.1722  0.7326  1.6518
16616SOL     OW54694   5.038   9.646   9.371  0.1667 -0.6846 -0.0532
16616SOL    HW154695   4.990   9.682   9.297  0.5328 -2.3094 -1.1149
16616SOL    HW254696   5.075   9.564   9.338  2.7401 -0.0290  1.0804
16617SOL     OW54697   5.190   8.466   9.362  0.0614  0.7017 -0.0635
16617SOL    HW154698   5.190   8.390   9.303  3.6264 -0.6465  1.5234
16617SOL    HW254699   5.266   8.517   9.337  0.6992  0.9754  2.2696
16618SOL     OW54700   3.792   9.111   9.350 -0.3896 -0.0698  0.0744
16618SOL    HW154701   3.849   9.037   9.373  2.2303  1.4859 -1.1375
16618SOL    HW254702   3.722   9.108   9.415  0.3341 -2.8681  0.8097
16619SOL     OW54703   5.259   6.472   9.649  0.0539  0.0380  0.6318
16619SOL    HW154704   5.316   6.514   9.714  1.6184 -1.3310  0.1778
16619SOL    HW254705   5.255   6.381   9.676 -1.8198  0.0692  0.5480
16620SOL     OW54706   3.460   8.113   9.833  0.7006  0.0849  0.2800
16620SOL    HW154707   3.526   8.158   9.885 -0.4152  0.1235  1.7002
16620SOL    HW254708   3.430   8.042   9.890  0.5415 -0.8049 -0.9081
16621SOL     OW54709   5.912   6.761   9.694  0.1817 -0.0509  0.2528
16621SOL    HW154710   5.988   6.812   9.718  0.4629 -0.9634  1.3341
16621SOL    HW254711   5.938   6.670   9.707  0.0286 -0.5601 -2.5986
16622SOL     OW54712   4.899   9.834   9.724  0.1574  0.2693  0.6227
16622SOL    HW154713   4.954   9.760   9.698 -0.8785 -0.1127 -0.5734
16622SOL    HW254714   4.814   9.795   9.742  0.0877  0.9475  1.7490
16623SOL     OW54715   5.444   9.444   0.172  0.6746 -0.5151  0.4334
16623SOL    HW154716   5.434   9.359   0.216 -0.4710  0.0293  1.2435
16623SOL    HW254717   5.385   9.439   0.097  0.7967 -0.5277  0.3376
16624SOL     OW54718   4.118   9.164   9.361 -0.0572  0.0855  0.3992
16624SOL    HW154719   4.033   9.148   9.401  0.2097  0.8963  1.3135
16624SOL    HW254720   4.128   9.259   9.362  0.7054  0.0135 -0.0185
16625SOL     OW54721   4.192   1.489   8.238  0.2246  0.5139  0.0361
16625SOL    HW154722   4.237   1.408   8.257  1.7930  1.1519 -0.8537
16625SOL    HW254723   4.102   1.462   8.215  0.6510 -0.9260  0.0240
16626SOL     OW54724   4.839   9.188   9.199 -0.1783  0.1315 -0.2988
16626SOL    HW154725   4.761   9.214   9.248  0.6892  0.9959  0.6438
16626SOL    HW254726   4.823   9.217   9.110 -1.3875 -0.6422 -0.3441
16627SOL     OW54727   3.390   7.276   0.038  0.2491 -0.6597  0.2315
16627SOL    HW154728   3.387   7.186   0.007 -0.7906 -0.3616 -0.5654
16627SOL    HW254729   3.447   7.321  -0.024 -0.9038 -0.3204 -0.6067
16628SOL     OW54730   2.523   7.407   0.406 -0.3283  0.5149 -0.7298
16628SOL    HW154731   2.525   7.432   0.498  0.5890  2.8360 -1.3513
16628SOL    HW254732   2.440   7.443   0.373 -0.9397 -0.8246 -0.6918
16629SOL     OW54733   3.940   8.447   9.843  0.7016  0.5862 -0.0866
16629SOL    HW154734   3.869   8.409   9.793  1.1496  0.3991 -0.5931
16629SOL    HW254735   4.015   8.389   9.827  0.9898  0.8275  0.3633
16630SOL     OW54736   4.849   7.419   0.016 -0.0980 -0.4571 -0.4344
16630SOL    HW154737   4.810   7.381  -0.062 -0.9879  1.8668 -1.1897
16630SOL    HW254738   4.937   7.382   0.020 -0.2955 -1.1619 -2.1259
16631SOL     OW54739   4.346   8.247   0.215 -0.3485  0.2285 -0.2381
16631SOL    HW154740   4.369   8.168   0.263  0.0703 -0.0647 -0.9018
16631SOL    HW254741   4.266   8.224   0.167  0.0963  0.0038 -0.8887
16632SOL     OW54742   4.765   0.251   9.256  0.0053 -0.3708 -0.1869
16632SOL    HW154743   4.804   0.328   9.298  2.9234 -1.0195 -1.5549
16632SOL    HW254744   4.729   0.285   9.174 -0.4014 -0.1336  0.0896
16633SOL     OW54745   3.771   8.845   9.420 -0.5087 -0.1111 -0.1666
16633SOL    HW154746   3.704   8.851   9.352  0.9012 -0.7091 -1.6632
16633SOL    HW254747   3.832   8.778   9.388  1.7924  1.7055  0.2314
16634SOL     OW54748   4.769   7.271   7.865 -0.4587  0.0380  0.3670
16634SOL    HW154749   4.739   7.352   7.823  0.4309  1.9935  3.3522
16634SOL    HW254750   4.694   7.211   7.858 -2.2906  2.1905  0.8520
16635SOL     OW54751   3.238   9.878   1.221  0.7980  0.4638 -0.6521
16635SOL    HW154752   3.237   9.966   1.183  2.6929  1.1212  0.7868
16635SOL    HW254753   3.327   9.847   1.208  0.8808 -0.1769  1.2821
16636SOL     OW54754   5.938   9.587   0.081  0.5413 -0.5764  0.8162
16636SOL    HW154755   5.864   9.528   0.090  0.5479 -0.7549 -0.2890
16636SOL    HW254756   5.920   9.658   0.144 -1.4729  0.3276 -0.7271
16637SOL     OW54757   5.188   8.224   9.235  0.1370  0.0880  0.8436
16637SOL    HW154758   5.216   8.143   9.192 -0.3309  0.3062  0.1344
16637SOL    HW254759   5.093   8.222   9.231  0.0951  0.2850  1.5601
16638SOL     OW54760   4.459   0.703   2.081 -0.2518 -0.1328  0.0572
16638SOL    HW154761   4.468   0.764   2.154  0.4356  0.5979 -0.6267
16638SOL    HW254762   4.435   0.620   2.122 -0.2248  0.3525  1.0797
16639SOL     OW54763   6.000   0.044   2.687  0.0638 -0.2056  0.8731
16639SOL    HW154764   6.026   0.053   2.595 -1.3963 -1.0625  0.3630
16639SOL    HW254765   6.076   0.075   2.736  1.1348 -0.4051 -0.6125
16640SOL     OW54766   4.169   8.817   0.251  0.6326 -0.2090 -0.2405
16640SOL    HW154767   4.171   8.771   0.167 -1.4091 -2.2928  0.8052
16640SOL    HW254768   4.162   8.910   0.227 -2.4270 -0.9066 -2.4073
16641SOL     OW54769   5.226   9.660   1.146 -0.3888  0.2009 -1.1596
16641SOL    HW154770   5.216   9.570   1.175  1.0599 -0.3103 -2.1913
16641SOL    HW254771   5.151   9.706   1.185 -0.5913 -1.2219  0.1882
16642SOL     OW54772   5.336   1.027   9.634  0.2570  0.6955  0.2686
16642SOL    HW154773   5.269   1.086   9.600 -0.2230  0.0335  0.0892
16642SOL    HW254774   5.307   1.007   9.723 -1.0262 -1.5025 -0.6275
16643SOL     OW54775   5.635   9.906   1.517 -0.1091  0.1138  0.1467
16643SOL    HW154776   5.711   9.906   1.575 -0.1700  0.2448  0.2267
16643SOL    HW254777   5.560   9.901   1.577 -0.1640  0.0014  0.0687
16644SOL     OW54778   6.246   1.841   2.169  0.0320  0.4019  0.0989
16644SOL    HW154779   6.174   1.880   2.119  0.3175  1.3357  0.4093
16644SOL    HW254780   6.323   1.855   2.114  0.3910  1.6642  0.9046
16645SOL     OW54781   7.116   0.379   2.603 -0.1178 -0.6567 -0.4822
16645SOL    HW154782   7.054   0.315   2.569 -0.9908  0.9859 -2.0222
16645SOL    HW254783   7.164   0.410   2.526 -0.6478  1.5305  0.0414
16646SOL     OW54784   4.274   9.872   1.768 -0.1303 -0.3850 -0.1279
16646SOL    HW154785   4.361   9.833   1.779  0.1780  0.0046 -1.0949
16646SOL    HW254786   4.260   9.871   1.673  0.2848  2.6847 -0.2737
16647SOL     OW54787   5.026   0.428   0.797 -0.2785  0.3775  0.0905
16647SOL    HW154788   5.038   0.405   0.705 -2.4893 -0.2962 -0.0633
16647SOL    HW254789   5.015   0.344   0.841 -0.0591  0.7406  0.8338
16648SOL     OW54790   5.358   1.311   8.488 -0.3990 -0.2674  0.4661
16648SOL    HW154791   5.436   1.327   8.435  0.0154 -0.1356  1.1106
16648SOL    HW254792   5.290   1.367   8.449  0.0838  0.3423  0.4934
16649SOL     OW54793   6.411   8.979   9.037  0.6817 -0.4443 -0.2192
16649SOL    HW154794   6.476   9.030   8.989 -0.6298 -0.2780 -1.8653
16649SOL    HW254795   6.345   8.956   8.971 -0.5038 -1.3059  1.2337
16650SOL     OW54796   3.929   9.337   1.771  0.1496  0.1348 -0.0274
16650SOL    HW154797   3.957   9.367   1.858 -3.6693  0.1024  1.2939
16650SOL    HW254798   3.944   9.412   1.714 -1.3989  1.7032  1.5545
16651SOL     OW54799   3.438   9.990   1.636  0.4467  0.2875  0.4671
16651SOL    HW154800   3.442   9.962   1.727 -1.7022  0.2701  0.5918
16651SOL    HW254801   3.344   9.999   1.618  0.8085 -0.6151 -2.0223
16652SOL     OW54802   6.372   9.656   9.717 -0.0263  0.2000  0.0708
16652SOL    HW154803   6.328   9.715   9.655  0.3125  0.6191  0.2264
16652SOL    HW254804   6.448   9.705   9.747 -0.2138  0.0133  0.8608
16653SOL     OW54805   4.367   8.721   0.658  0.3417 -0.1027  0.2420
16653SOL    HW154806   4.329   8.718   0.571  2.1458 -0.0744 -0.5795
16653SOL    HW254807   4.418   8.802   0.659  1.4308 -0.7772  0.8294
16654SOL     OW54808   4.452   8.591   8.532  0.5493  0.1723 -0.3221
16654SOL    HW154809   4.540   8.553   8.536  1.1551  1.3474 -1.9808
16654SOL    HW254810   4.454   8.647   8.455 -1.5281  0.5710 -0.1037
16655SOL     OW54811   4.912   9.059   9.503  0.3789 -0.4081 -0.1180
16655SOL    HW154812   4.869   9.139   9.533 -2.1579 -1.3982 -0.9757
16655SOL    HW254813   4.908   9.065   9.407  0.0096 -1.6236 -0.1906
16656SOL     OW54814   4.392   9.386   0.915  0.4490  0.1241  0.7789
16656SOL    HW154815   4.468   9.417   0.966  0.4915  1.9902 -0.3529
16656SOL    HW254816   4.327   9.364   0.981  1.7645 -0.9650  1.7555
16657SOL     OW54817   5.368   0.557   1.037 -0.4768 -0.3346 -0.2665
16657SOL    HW154818   5.292   0.549   1.094 -2.1869  0.3736 -2.3915
16657SOL    HW254819   5.332   0.565   0.949  1.9456  2.8944 -1.0599
16658SOL     OW54820   4.266   9.648   0.313 -0.0453 -0.1445  0.2481
16658SOL    HW154821   4.296   9.678   0.227 -1.5878  2.0196  0.4133
16658SOL    HW254822   4.214   9.570   0.294  2.0572 -1.4330 -0.4428
16659SOL     OW54823   4.774   8.884   9.259 -0.5862 -0.2250  0.0895
16659SOL    HW154824   4.840   8.837   9.208 -0.8119 -1.4072  0.8592
16659SOL    HW254825   4.699   8.825   9.261 -1.9148  1.3832 -1.3346
16660SOL     OW54826   4.877   9.038   2.604 -0.1731  0.1858 -0.2821
16660SOL    HW154827   4.879   9.056   2.698 -1.1351 -2.0254  0.1902
16660SOL    HW254828   4.908   8.948   2.595 -0.7991  0.1148 -2.0199
16661SOL     OW54829   4.434   9.483   9.350  0.0216  0.4447 -0.1069
16661SOL    HW154830   4.388   9.521   9.275 -0.8862  1.5958  1.0218
16661SOL    HW254831   4.373   9.418   9.385  0.2145  0.3211  0.0025
16662SOL     OW54832   4.680   9.595   2.047  0.0511  0.4663 -0.5578
16662SOL    HW154833   4.740   9.618   1.976 -0.6575 -2.1150 -2.0614
16662SOL    HW254834   4.597   9.634   2.021 -0.0323  0.1326 -0.7971
16663SOL     OW54835   4.760   0.041   9.885  0.1102  0.4467  0.4685
16663SOL    HW154836   4.824   0.049   9.955  1.0355  1.4915 -0.4801
16663SOL    HW254837   4.681   0.009   9.929  1.1870 -0.6159  1.6802
16664SOL     OW54838   5.379   8.777   9.931 -0.8079  0.7781  0.1759
16664SOL    HW154839   5.389   8.869   9.907  1.1068  0.8763  1.3037
16664SOL    HW254840   5.341   8.736   9.853  0.6122  2.0421 -1.2166
16665SOL     OW54841   2.076   0.269   0.932 -0.2701 -0.2953 -0.2968
16665SOL    HW154842   2.165   0.304   0.936 -0.6665  0.6251  0.9294
16665SOL    HW254843   2.058   0.260   0.838  1.1946 -0.7202 -0.5499
16666SOL     OW54844   4.224   9.642   0.836 -0.7802 -0.0675  0.2827
16666SOL    HW154845   4.288   9.602   0.895 -0.7123  0.1725  0.3724
16666SOL    HW254846   4.252   9.616   0.749 -0.2249  0.5138  0.2849
16667SOL     OW54847   5.145   9.059   1.451  0.4079  0.4760  0.2557
16667SOL    HW154848   5.088   9.097   1.518 -0.8026 -3.3605  1.5711
16667SOL    HW254849   5.231   9.051   1.494  0.9932  2.7202 -0.4363
16668SOL     OW54850   3.243   8.994   0.123 -0.3563 -0.1927 -0.3798
16668SOL    HW154851   3.184   9.058   0.084  1.6635  2.3286  0.5313
16668SOL    HW254852   3.268   9.033   0.207  2.1549 -1.4544 -0.5022
16669SOL     OW54853   4.217   0.653   2.377 -0.2641 -0.4837  0.2304
16669SOL    HW154854   4.139   0.698   2.409 -0.2476  0.0996 -0.5283
16669SOL    HW254855   4.290   0.697   2.421 -0.2404  0.3144 -0.5997
16670SOL     OW54856   4.433   0.137   0.984  0.5766 -0.1663 -0.1619
16670SOL    HW154857   4.504   0.164   1.041 -0.9225  0.3587  1.5015
16670SOL    HW254858   4.403   0.218   0.943  0.7052 -0.3312 -0.5838
16671SOL     OW54859   4.248   9.298   1.101 -0.1215  0.2952 -0.2645
16671SOL    HW154860   4.227   9.364   1.167  1.4895 -1.1251  1.7501
16671SOL    HW254861   4.240   9.214   1.148 -1.3604 -0.9177 -2.5541
16672SOL     OW54862   2.257   0.251   1.223  0.1563 -0.2313 -0.1369
16672SOL    HW154863   2.187   0.315   1.215 -0.1753 -0.4174  1.1995
16672SOL    HW254864   2.251   0.198   1.143 -0.2019  0.7572 -0.7685
16673SOL     OW54865   5.453   9.999   0.339  0.4926  0.0636 -0.3453
16673SOL    HW154866   5.510  10.076   0.343 -1.4288  1.4932 -0.0382
16673SOL    HW254867   5.462   9.958   0.425  1.6297 -0.1610 -0.5578
16674SOL     OW54868   3.230   9.345   1.505  0.5166 -0.0439 -0.5196
16674SOL    HW154869   3.244   9.304   1.419  0.2528  2.2213 -1.7078
16674SOL    HW254870   3.139   9.324   1.526  0.7750 -1.1546 -0.4898
16675SOL     OW54871   4.897   9.256   1.371 -0.0467 -0.2808  0.4134
16675SOL    HW154872   4.885   9.266   1.277  0.7899 -1.4371  0.1686
16675SOL    HW254873   4.944   9.335   1.398  0.1121 -0.1605 -0.2199
16676SOL     OW54874   4.593   8.662   9.309 -0.3396 -0.3316  0.3381
16676SOL    HW154875   4.586   8.580   9.356 -2.6171 -1.7231 -2.2763
16676SOL    HW254876   4.503   8.694   9.301  0.3851  1.8554  0.3228
16677SOL     OW54877   3.755   8.767   1.430 -0.1719 -0.3168  0.0614
16677SOL    HW154878   3.733   8.815   1.510  0.5578 -1.3687  0.9242
16677SOL    HW254879   3.851   8.770   1.426 -0.2070 -0.2166 -0.8175
16678SOL     OW54880   3.447   8.329   1.413  0.5111 -0.2043 -0.0520
16678SOL    HW154881   3.356   8.303   1.430  0.9844 -1.4815  0.6035
16678SOL    HW254882   3.460   8.307   1.320 -0.0158  0.5381 -0.3138
16679SOL     OW54883   5.290   9.440   2.756 -0.0440 -0.0400  0.2349
16679SOL    HW154884   5.287   9.396   2.671 -0.6184  0.6862 -0.1255
16679SOL    HW254885   5.225   9.510   2.749  1.8943  1.8091  0.2736
16680SOL     OW54886   4.895   0.641   0.938 -0.1885 -0.5459  0.4255
16680SOL    HW154887   4.948   0.583   0.882 -1.1335 -0.2910 -0.7675
16680SOL    HW254888   4.918   0.616   1.027  2.1608 -0.2289 -0.0593
16681SOL     OW54889   3.492   9.402   0.010  0.5563  0.2447  0.2281
16681SOL    HW154890   3.423   9.412   0.075  0.7736  1.4295  0.2873
16681SOL    HW254891   3.457   9.340  -0.053 -0.8665  1.3986 -0.1459
16682SOL     OW54892   5.086   9.347   3.148  0.5061  0.1163 -0.1678
16682SOL    HW154893   5.022   9.411   3.177  2.0035  1.2480  0.7659
16682SOL    HW254894   5.170   9.395   3.151  1.6613 -1.8957  0.6520
16683SOL     OW54895   5.417   9.934   1.708 -0.0217  0.6157 -0.8395
16683SOL    HW154896   5.389   9.876   1.779 -2.4143  0.7818 -1.5935
16683SOL    HW254897   5.451  10.012   1.752 -1.1117  0.5528  0.1317
16684SOL     OW54898   4.833   9.098   9.878  0.0628  0.4536  0.3941
16684SOL    HW154899   4.749   9.138   9.856 -1.0770 -1.7874  0.5027
16684SOL    HW254900   4.826   9.076   9.971  0.2849 -0.8334  0.1224
16685SOL     OW54901   4.934   0.050   9.125  0.2878  0.1811  0.3511
16685SOL    HW154902   4.924   0.130   9.176  1.8483  0.8708 -0.3985
16685SOL    HW254903   5.009   0.005   9.164  1.4296  0.6606 -1.2369
16686SOL     OW54904   5.758   9.329   9.362  0.2026  0.3313 -0.1295
16686SOL    HW154905   5.849   9.356   9.354  0.3831 -0.2835 -0.1535
16686SOL    HW254906   5.749   9.297   9.452  0.1392 -0.0834 -0.2821
16687SOL     OW54907   4.242   9.314   1.936  0.1198 -0.3188  0.5112
16687SOL    HW154908   4.274   9.223   1.934 -0.3393 -0.5404  2.4221
16687SOL    HW254909   4.322   9.367   1.939  0.3991 -0.6162 -1.0242
16688SOL     OW54910   2.498   1.216   0.278  1.1404  0.0576  0.1147
16688SOL    HW154911   2.440   1.241   0.206  2.1066 -2.3487 -1.5871
16688SOL    HW254912   2.479   1.123   0.293 -0.7369  1.0546  4.6526
16689SOL     OW54913   3.487   0.050   1.042  0.2684 -0.3016 -0.6299
16689SOL    HW154914   3.516  -0.027   1.090 -2.6746 -0.5445  0.8977
16689SOL    HW254915   3.473   0.019   0.952 -1.4109 -1.6964  0.1035
16690SOL     OW54916   4.466   8.963   0.665 -0.6318 -0.5551  0.0959
16690SOL    HW154917   4.384   8.964   0.713 -0.7121  1.4726 -0.0462
16690SOL    HW254918   4.514   9.039   0.698  0.7967 -1.2039 -0.4709
16691SOL     OW54919   2.729   7.908   1.666 -0.2141 -0.1372  0.2313
16691SOL    HW154920   2.786   7.893   1.591 -1.6617 -0.7499 -0.7755
16691SOL    HW254921   2.703   8.000   1.659  0.1760 -0.0139  0.3683
16692SOL     OW54922   4.271   9.132   8.292 -0.2889  0.0333 -0.1252
16692SOL    HW154923   4.231   9.055   8.252  0.5319  0.4180 -1.7380
16692SOL    HW254924   4.220   9.206   8.259  0.3732  0.3501 -0.4607
16693SOL     OW54925   2.418   9.311   0.592  0.1495 -0.2786 -0.2114
16693SOL    HW154926   2.458   9.232   0.629 -1.0924 -0.8374 -0.0165
16693SOL    HW254927   2.360   9.342   0.661 -0.2758  0.1148 -0.7444
16694SOL     OW54928   5.813   0.304   1.093  0.7213  0.1099 -0.2156
16694SOL    HW154929   5.803   0.271   1.182  0.8917  1.1911  0.2130
16694SOL    HW254930   5.802   0.399   1.101 -2.7841 -0.0586 -1.8515
16695SOL     OW54931   4.504   0.591   9.459  0.4670 -0.2410  0.4869
16695SOL    HW154932   4.547   0.676   9.466  1.9979 -0.9510 -0.0155
16695SOL    HW254933   4.471   0.573   9.547  1.0291  0.4226  0.8422
16696SOL     OW54934   4.902   0.406   2.230 -0.2147  0.2146 -0.2737
16696SOL    HW154935   4.837   0.403   2.300  0.6699  0.4501  0.5476
16696SOL    HW254936   4.858   0.453   2.159 -0.9924  0.2530  0.2291
16697SOL     OW54937   3.493   0.691   1.564 -0.2192 -0.1377 -0.5323
16697SOL    HW154938   3.552   0.741   1.620 -0.8070 -0.6970  0.6277
16697SOL    HW254939   3.409   0.737   1.571 -0.4538 -0.5755 -0.4271
16698SOL     OW54940   6.050   8.837   2.209 -0.4422  0.1609 -0.4078
16698SOL    HW154941   5.984   8.905   2.199 -2.6009 -1.8024 -0.0960
16698SOL    HW254942   6.113   8.853   2.139 -1.2810  2.0554 -0.7373
16699SOL     OW54943   2.470   0.570   8.848  0.1624 -0.1654  0.1753
16699SOL    HW154944   2.504   0.595   8.762 -0.9386 -0.6862 -0.4146
16699SOL    HW254945   2.382   0.607   8.851  0.2771  0.0370  1.1727
16700SOL     OW54946   2.982   9.883   1.815 -0.0993  0.3133  0.2253
16700SOL    HW154947   2.993   9.882   1.910 -0.1491  0.7604  0.2354
16700SOL    HW254948   2.993   9.974   1.790 -1.0106  0.3422 -0.0907
16701SOL     OW54949   5.775   8.415   1.487 -0.1185 -0.4619 -0.2298
16701SOL    HW154950   5.691   8.377   1.460  0.0637 -0.7063 -0.4555
16701SOL    HW254951   5.824   8.425   1.406  0.0820 -0.3436 -0.0946
16702SOL     OW54952   4.033   9.113   0.371  0.0293  0.1923 -0.4765
16702SOL    HW154953   4.113   9.150   0.334  0.3100  0.2074  0.1376
16702SOL    HW254954   3.979   9.091   0.295  0.3652  0.7373 -0.8738
16703SOL     OW54955   5.678   1.005   8.723 -0.4025  0.7658 -0.9161
16703SOL    HW154956   5.736   0.959   8.663  0.9714  1.5365 -0.2085
16703SOL    HW254957   5.736   1.039   8.792 -1.9411 -0.2667  0.9501
16704SOL     OW54958   6.035   9.934   9.986  0.0766 -0.7100  0.2858
16704SOL    HW154959   6.016   9.941   9.892 -1.7570 -1.5202  0.5825
16704SOL    HW254960   6.105   9.869   9.991  1.1959  0.3917 -0.6207
16705SOL     OW54961   5.327   0.375   2.187  0.3530 -0.4598  0.1348
16705SOL    HW154962   5.305   0.341   2.274  3.0613 -1.8024  0.3372
16705SOL    HW254963   5.242   0.392   2.146 -0.9704 -0.1709  2.8787
16706SOL     OW54964   3.575   9.695   3.685  0.2486 -0.4093 -0.3385
16706SOL    HW154965   3.568   9.788   3.709 -0.9913 -0.6991  0.4669
16706SOL    HW254966   3.617   9.654   3.760  1.6388 -0.3588 -1.0753
16707SOL     OW54967   2.917   0.247   2.215 -0.5666  0.2778 -0.0669
16707SOL    HW154968   3.003   0.206   2.204 -0.8529 -0.4223  0.2391
16707SOL    HW254969   2.917   0.321   2.155 -0.0125 -0.1357 -0.5775
16708SOL     OW54970   6.865   0.613   2.003 -0.0173  0.0613 -0.2380
16708SOL    HW154971   6.895   0.523   2.012  0.4584  0.3476  1.2711
16708SOL    HW254972   6.814   0.614   1.922 -0.6077 -1.7320  0.0827
16709SOL     OW54973   2.326   2.017   3.187  0.0272  0.4655 -0.8228
16709SOL    HW154974   2.329   2.019   3.092 -0.7008  0.5445 -0.8478
16709SOL    HW254975   2.242   1.976   3.208  0.8471 -0.9861 -0.2179
16710SOL     OW54976   6.462   9.666   2.351  0.0511  1.5337  0.2111
16710SOL    HW154977   6.385   9.687   2.404 -0.5164  0.4279 -0.1586
16710SOL    HW254978   6.457   9.726   2.277 -2.1080 -0.4996 -1.3675
16711SOL     OW54979   5.225   0.792   2.790  0.7635 -0.0620  0.4177
16711SOL    HW154980   5.165   0.786   2.716  0.1999  1.0636  0.7723
16711SOL    HW254981   5.300   0.842   2.756  1.1571 -0.7896  0.2011
16712SOL     OW54982   1.386   0.078   2.604  0.3312 -0.5029  0.1385
16712SOL    HW154983   1.306   0.104   2.651  0.6906  0.9100  0.0069
16712SOL    HW254984   1.399   0.149   2.541  1.0658 -1.3002 -0.5998
16713SOL     OW54985   4.099   0.691   1.539  0.1417  0.3091  0.1934
16713SOL    HW154986   4.083   0.600   1.511  1.3834  0.4280 -0.9736
16713SOL    HW254987   4.012   0.730   1.542 -0.1888 -0.0988 -2.2937
16714SOL     OW54988   3.586   9.960   2.956  0.0523  0.3228 -0.2094
16714SOL    HW154989   3.496   9.948   2.986 -0.0953  1.2572 -0.2792
16714SOL    HW254990   3.588  10.048   2.920  0.9608  0.2539 -0.3404
16715SOL     OW54991   6.054   0.489   3.932 -0.0032  0.7490  0.0187
16715SOL    HW154992   6.108   0.434   3.876 -1.0315 -0.5517  0.2560
16715SOL    HW254993   5.968   0.447   3.931 -0.6301  1.9652  0.7826
16716SOL     OW54994   5.663   9.604   4.516  0.6220 -0.9722  0.3345
16716SOL    HW154995   5.675   9.631   4.607 -0.3220  1.1441 -0.1411
16716SOL    HW254996   5.568   9.592   4.506  0.5256  0.5860 -0.8367
16717SOL     OW54997   3.297   0.131   5.210 -0.1729 -0.1277 -0.5093
16717SOL    HW154998   3.253   0.215   5.227  1.2893  0.2700  1.3896
16717SOL    HW254999   3.361   0.152   5.141  0.0566  0.2661 -0.1779
16718SOL     OW55000   7.533   9.265   3.626 -0.2613 -0.1491  0.5703
16718SOL    HW155001   7.520   9.199   3.558  1.3321 -1.0110  1.0518
16718SOL    HW255002   7.582   9.218   3.694 -1.1740  0.8988  1.9672
16719SOL     OW55003   4.217   0.014   2.496 -0.0778  0.3122 -0.0342
16719SOL    HW155004   4.170   0.017   2.579 -0.1289 -1.1827  0.0070
16719SOL    HW255005   4.149   0.002   2.430  0.1402 -0.8078 -0.0704
16720SOL     OW55006   4.318   0.052   3.697  0.2072 -0.2457 -0.5170
16720SOL    HW155007   4.404   0.042   3.655  0.6748  1.8403 -0.1197
16720SOL    HW255008   4.335   0.032   3.790  0.5685  1.4301 -0.2038
16721SOL     OW55009   4.931   0.875   4.071  0.4704 -0.0398  0.3430
16721SOL    HW155010   4.906   0.785   4.094  0.1660  0.2338  1.1243
16721SOL    HW255011   4.868   0.929   4.118 -0.3462  0.5533 -1.3976
16722SOL     OW55012   2.653   9.967   3.325 -0.2877  0.7260  0.6005
16722SOL    HW155013   2.691  10.003   3.245 -0.8106  0.0484  0.0438
16722SOL    HW255014   2.558   9.968   3.310 -0.3338 -0.4076  0.7740
16723SOL     OW55015   4.636   9.524   3.838 -0.0943  0.3279  0.2940
16723SOL    HW155016   4.707   9.587   3.845  0.7081 -0.3650 -1.3426
16723SOL    HW255017   4.583   9.555   3.764 -3.1106  2.3862  3.1721
16724SOL     OW55018   3.390   0.201   3.846 -0.1244  0.8065  0.3094
16724SOL    HW155019   3.440   0.217   3.927 -0.1626  0.9424  0.3077
16724SOL    HW255020   3.388   0.286   3.803 -0.4631  0.8317  0.3698
16725SOL     OW55021   6.309   9.842   3.270 -0.5447  0.1162 -0.2050
16725SOL    HW155022   6.305   9.748   3.251  0.9385  0.5361 -2.7194
16725SOL    HW255023   6.398   9.868   3.246 -1.1674  2.3141 -0.2214
16726SOL     OW55024   3.818   0.266   4.057 -0.1275 -0.1324  0.4887
16726SOL    HW155025   3.859   0.317   4.127 -1.0827 -0.4848  1.3239
16726SOL    HW255026   3.765   0.330   4.009  0.8544  0.1912 -0.1791
16727SOL     OW55027   4.036   9.541   1.589 -0.1704 -0.3331  0.5442
16727SOL    HW155028   3.973   9.607   1.619  0.5576 -0.0813  1.5410
16727SOL    HW255029   4.058   9.568   1.499 -0.5118  0.3048  0.6473
16728SOL     OW55030   3.531   0.519   3.452 -0.0149  0.2408 -0.0718
16728SOL    HW155031   3.467   0.582   3.418  0.0810  0.5845  0.3878
16728SOL    HW255032   3.546   0.459   3.378 -1.1752 -0.0903 -0.0542
16729SOL     OW55033   6.202   9.779   2.880  0.9785  0.2024 -0.2186
16729SOL    HW155034   6.108   9.762   2.884  1.1799 -0.6708  1.2869
16729SOL    HW255035   6.209   9.867   2.843 -0.4674  0.5367  0.2683
16730SOL     OW55036   3.781   1.042   2.874 -0.4659 -0.1146  0.1194
16730SOL    HW155037   3.862   0.991   2.880 -1.5064 -1.7458  0.6485
16730SOL    HW255038   3.775   1.067   2.782  0.3348 -0.4823 -0.0373
16731SOL     OW55039   3.269   9.083   2.714  0.0785 -0.4200 -0.0396
16731SOL    HW155040   3.222   9.048   2.639 -1.8162  3.1554 -0.6376
16731SOL    HW255041   3.341   9.133   2.676 -0.0098  0.1710  0.5570
16732SOL     OW55042   3.817   0.763   0.652 -0.5647  0.1135  0.1809
16732SOL    HW155043   3.851   0.681   0.688  1.8048  0.9435 -0.1000
16732SOL    HW255044   3.749   0.735   0.590  0.1583 -1.6345  0.1390
16733SOL     OW55045   4.665   8.543   2.083  0.2284  0.1719  0.1109
16733SOL    HW155046   4.611   8.615   2.052  0.3918 -0.1065 -0.8210
16733SOL    HW255047   4.751   8.559   2.044  0.3642 -0.3235  0.2043
16734SOL     OW55048   4.880   9.159   2.865 -0.4403 -0.5204 -0.3200
16734SOL    HW155049   4.843   9.246   2.853 -0.5616 -0.5981 -0.5193
16734SOL    HW255050   4.971   9.168   2.834  0.2690  0.1410  1.8972
16735SOL     OW55051   5.084   1.630   2.810 -0.0751  0.3855 -0.4120
16735SOL    HW155052   5.178   1.618   2.825  0.0229  0.1963 -1.1210
16735SOL    HW255053   5.047   1.542   2.822 -0.4261  0.7891  1.6042
16736SOL     OW55054   3.856   0.703   3.533 -0.1922 -0.5357 -0.3509
16736SOL    HW155055   3.946   0.696   3.563  0.1056 -0.6581 -1.2478
16736SOL    HW255056   3.856   0.658   3.448 -1.2410 -1.1149 -0.0524
16737SOL     OW55057   4.400   8.762   2.486  0.0878  0.4381 -0.1162
16737SOL    HW155058   4.458   8.798   2.553  1.1124 -3.1277  1.0488
16737SOL    HW255059   4.315   8.752   2.529  0.4583 -0.8142  0.3468
16738SOL     OW55060   3.485   8.904   1.043  0.3152  0.1722 -0.9248
16738SOL    HW155061   3.536   8.908   1.123 -1.6011  0.5339  0.3153
16738SOL    HW255062   3.425   8.978   1.048  0.4786  0.4813 -2.9239
16739SOL     OW55063   3.984   8.583   1.607  0.2551  0.1305 -0.0354
16739SOL    HW155064   3.997   8.675   1.583  1.3980  0.0784  0.3521
16739SOL    HW255065   4.071   8.544   1.601 -0.8222 -1.9168 -4.1775
16740SOL     OW55066   4.342   8.474   1.093  0.2274 -0.5279  0.1722
16740SOL    HW155067   4.435   8.494   1.109  0.7979  0.0573 -3.3290
16740SOL    HW255068   4.298   8.558   1.105  0.8530  0.2354 -2.4900
16741SOL     OW55069   4.486   8.669   2.771 -0.1267 -0.3004  0.1942
16741SOL    HW155070   4.535   8.727   2.713 -2.2367 -0.2186 -1.5751
16741SOL    HW255071   4.455   8.725   2.842  0.9561 -0.0281  0.4547
16742SOL     OW55072   2.897   0.686   3.225 -0.1595  0.5301 -0.5038
16742SOL    HW155073   2.889   0.725   3.138  0.2096 -2.2817 -1.8588
16742SOL    HW255074   2.876   0.594   3.212  3.8155 -0.8196  1.5863
16743SOL     OW55075   2.938   9.457   2.356 -0.6920 -0.3899  0.0871
16743SOL    HW155076   2.909   9.439   2.266 -0.1614  0.7670 -0.3211
16743SOL    HW255077   2.862   9.436   2.410 -1.8305  1.2080 -0.8454
16744SOL     OW55078   4.433   9.129   3.474 -0.1383  0.0151  0.0220
16744SOL    HW155079   4.368   9.117   3.543 -0.0125  0.6068  0.2503
16744SOL    HW255080   4.453   9.041   3.443  1.5087 -0.4541  2.2996
16745SOL     OW55081   5.917   8.758   3.117 -0.4884  0.3064 -0.3618
16745SOL    HW155082   5.894   8.840   3.073  1.3156  1.4624  0.7898
16745SOL    HW255083   5.951   8.785   3.202 -0.8509 -1.7067  0.4433
16746SOL     OW55084   7.421   7.512   1.160  0.2243  0.9434  0.1380
16746SOL    HW155085   7.450   7.603   1.166 -0.5568  1.1005  2.1146
16746SOL    HW255086   7.351   7.513   1.094 -0.7961  2.0810  1.2036
16747SOL     OW55087   4.123   8.189   4.232  0.4035 -0.2433  0.7770
16747SOL    HW155088   4.176   8.244   4.175  0.5685 -0.5204  0.6599
16747SOL    HW255089   4.036   8.188   4.190 -0.8586  3.5051  3.1124
16748SOL     OW55090   6.114   9.873   3.686 -0.0732 -0.7406  0.0362
16748SOL    HW155091   6.193   9.827   3.713  0.4409 -0.3637 -0.8085
16748SOL    HW255092   6.146   9.944   3.630 -1.0349 -0.7727 -0.5598
16749SOL     OW55093   4.698   0.561   3.486 -0.0553 -0.2701  1.6548
16749SOL    HW155094   4.709   0.647   3.445  0.6321 -0.3566  1.6397
16749SOL    HW255095   4.604   0.551   3.498 -0.4598 -1.1803 -1.8910
16750SOL     OW55096   4.356   9.759   3.043 -0.3942 -0.0025  0.3974
16750SOL    HW155097   4.310   9.738   3.125 -0.5143 -2.9804 -0.3664
16750SOL    HW255098   4.317   9.700   2.979  2.8592 -0.9536 -0.8051
16751SOL     OW55099   3.827   0.195   3.443  0.0819 -0.0186 -0.3186
16751SOL    HW155100   3.827   0.170   3.351  0.1733 -1.2299  0.0093
16751SOL    HW255101   3.741   0.167   3.475  0.5643 -0.7957  0.2893
16752SOL     OW55102   6.046   0.240   2.187 -0.5687  0.0650 -0.1823
16752SOL    HW155103   6.064   0.327   2.154 -1.2486  0.3708  0.2381
16752SOL    HW255104   6.088   0.181   2.124  0.6174  0.7059 -0.0194
16753SOL     OW55105   3.874   9.639   0.233  0.0490 -0.5491  0.2441
16753SOL    HW155106   3.925   9.718   0.211  0.7701 -1.0810 -0.0267
16753SOL    HW255107   3.869   9.640   0.328  1.0604 -0.7864  0.3114
16754SOL     OW55108   4.145   1.289   2.648  0.2359 -0.5380 -0.8083
16754SOL    HW155109   4.222   1.295   2.591  0.8906  2.6211  0.2964
16754SOL    HW255110   4.178   1.249   2.729  0.2734 -0.9565 -1.0282
16755SOL     OW55111   4.788   8.639   1.853  0.2500 -0.7439 -0.5214
16755SOL    HW155112   4.702   8.632   1.812 -0.1103 -0.2814  0.1452
16755SOL    HW255113   4.822   8.723   1.822 -0.3262 -0.0547  0.6929
16756SOL     OW55114   4.508   9.825   4.137 -0.2836 -0.0120  0.2883
16756SOL    HW155115   4.526   9.839   4.230 -1.4003  0.7234  0.3954
16756SOL    HW255116   4.595   9.819   4.097  0.2049 -0.0613  1.3304
16757SOL     OW55117   4.182   8.315   4.495 -0.4370 -0.3438  0.3589
16757SOL    HW155118   4.144   8.268   4.421 -0.0277 -0.5557  0.2819
16757SOL    HW255119   4.144   8.403   4.490  0.2604 -0.0920 -0.6095
16758SOL     OW55120   4.426   1.840   5.015  0.8076  0.1848 -0.3511
16758SOL    HW155121   4.334   1.843   5.043  1.0148 -1.4039  0.5319
16758SOL    HW255122   4.450   1.932   5.003 -0.3081  0.7252  1.3827
16759SOL     OW55123   3.444   0.232   2.976 -0.1210 -0.6614  0.0681
16759SOL    HW155124   3.384   0.158   2.981  1.1171 -1.7289 -0.3248
16759SOL    HW255125   3.412   0.284   2.902  1.0292 -2.7235 -1.9493
16760SOL     OW55126   5.991   8.191   1.491 -0.0356  0.2337  0.0155
16760SOL    HW155127   5.938   8.266   1.518  1.6293  1.3649  0.1601
16760SOL    HW255128   5.985   8.190   1.396 -0.2213  0.4237  0.0265
16761SOL     OW55129   6.232   0.203   4.218 -0.0514  0.4494  0.4589
16761SOL    HW155130   6.190   0.210   4.303 -0.1965  2.1854  0.2619
16761SOL    HW255131   6.286   0.124   4.224 -0.9992 -0.1146  1.7278
16762SOL     OW55132   4.419   9.931   3.261  0.1723 -0.4004 -0.0628
16762SOL    HW155133   4.394  10.023   3.261  2.0263  0.1262  0.4382
16762SOL    HW255134   4.406   9.902   3.171 -1.5164  0.0269  0.0342
16763SOL     OW55135   6.572   9.742   2.895 -0.3383  0.2092  0.5168
16763SOL    HW155136   6.513   9.708   2.828 -0.4918 -0.9235  1.2144
16763SOL    HW255137   6.565   9.837   2.886 -0.7964  0.0740 -0.6778
16764SOL     OW55138   7.364   7.766   3.322  0.4154 -0.4574  0.1012
16764SOL    HW155139   7.398   7.729   3.240  0.3541 -1.1064  0.3619
16764SOL    HW255140   7.293   7.824   3.294  0.2431 -0.8516 -0.2990
16765SOL     OW55141   3.963   9.522   2.175  0.3649  0.2928 -0.2529
16765SOL    HW155142   3.931   9.440   2.136 -2.2959  1.7741 -1.3185
16765SOL    HW255143   3.950   9.511   2.269  1.2231 -0.9889 -0.2734
16766SOL     OW55144   4.695   0.049   3.072  0.2792  0.0790  0.0055
16766SOL    HW155145   4.611   0.048   3.027 -1.6127 -1.1921  3.3907
16766SOL    HW255146   4.681   0.105   3.148  2.6236  0.1068  0.4639
16767SOL     OW55147   6.089   7.563   2.560 -0.0392 -0.1238 -0.4023
16767SOL    HW155148   6.151   7.571   2.633  0.9965 -1.1050 -1.1505
16767SOL    HW255149   6.032   7.639   2.569  0.4911  0.1313  1.0423
16768SOL     OW55150   4.444   8.659   5.254 -0.6589 -0.6503  0.1344
16768SOL    HW155151   4.501   8.632   5.326 -0.6069 -2.0220 -0.4072
16768SOL    HW255152   4.429   8.579   5.204 -3.1037 -0.3554  0.3060
16769SOL     OW55153   5.037   9.180   1.936  0.0712  0.1252 -0.0444
16769SOL    HW155154   5.053   9.208   2.026  0.1485  0.2455 -0.0965
16769SOL    HW255155   5.112   9.123   1.915 -0.2451 -0.3781  0.1709
16770SOL     OW55156   2.641   0.440   2.538 -0.1660  0.2604 -0.3603
16770SOL    HW155157   2.597   0.451   2.453  0.6517 -0.7410 -0.9267
16770SOL    HW255158   2.734   0.448   2.517 -0.0202  1.2085  0.6469
16771SOL     OW55159   5.402   0.172   3.042 -0.3548  0.2181  0.0657
16771SOL    HW155160   5.345   0.248   3.027 -1.8320 -0.9124 -0.0563
16771SOL    HW255161   5.396   0.121   2.962  1.2723  0.3592 -0.1617
16772SOL     OW55162   5.391   1.179   2.128  0.3750  0.3139  0.6155
16772SOL    HW155163   5.467   1.165   2.185 -0.9564  0.3673  2.4475
16772SOL    HW255164   5.402   1.268   2.095  0.1561  0.9962  2.3568
16773SOL     OW55165   3.878   9.337   3.440 -0.2464  0.1468  0.1897
16773SOL    HW155166   3.965   9.372   3.418 -0.9241  1.1684 -0.9476
16773SOL    HW255167   3.860   9.370   3.528  0.3589  0.2475  0.2777
16774SOL     OW55168   5.933   0.451   1.921 -0.4697  0.4844 -0.2772
16774SOL    HW155169   5.873   0.448   1.997 -0.9592  1.3723 -0.6220
16774SOL    HW255170   5.877   0.479   1.848 -0.1568 -1.0663 -1.1258
16775SOL     OW55171   6.021   8.839   3.380 -0.0952  0.0210  0.2809
16775SOL    HW155172   6.063   8.903   3.436 -1.0155 -0.0377  1.0612
16775SOL    HW255173   6.008   8.762   3.436  1.2647 -0.9603 -0.7208
16776SOL     OW55174   4.622   9.689   2.927  0.3068  0.2530  1.3254
16776SOL    HW155175   4.638   9.662   3.017  0.7857 -2.6898  0.3897
16776SOL    HW255176   4.527   9.696   2.920  0.1642 -1.4718  1.5067
16777SOL     OW55177   4.787   7.790   4.570 -0.0788  0.4114  0.5741
16777SOL    HW155178   4.713   7.768   4.627 -0.3103  1.1895  0.5840
16777SOL    HW255179   4.799   7.884   4.583 -0.3177  0.6570 -0.8827
16778SOL     OW55180   3.640   9.015   2.824 -0.4559 -0.0224  0.0592
16778SOL    HW155181   3.640   9.110   2.812 -1.4977 -0.0153  0.0781
16778SOL    HW255182   3.648   9.003   2.918  0.1447  0.0430  0.0152
16779SOL     OW55183   3.534   9.304   2.088  0.0256  0.2923  0.7665
16779SOL    HW155184   3.571   9.230   2.136 -0.2651  0.7997  1.8005
16779SOL    HW255185   3.571   9.297   2.000  1.0003 -0.3532  1.2165
16780SOL     OW55186   3.807   8.812   1.949 -0.7876 -0.0051  0.2248
16780SOL    HW155187   3.732   8.778   1.998 -1.4755  0.6106 -0.3919
16780SOL    HW255188   3.784   8.799   1.857  0.9297 -2.0833  0.0556
16781SOL     OW55189   3.039   9.038   4.278  0.9409  0.2534 -0.2765
16781SOL    HW155190   3.012   9.043   4.369 -0.8590 -1.1839 -0.7001
16781SOL    HW255191   2.961   9.063   4.228  1.0009 -1.7990 -1.4727
16782SOL     OW55192   5.911   8.102   3.368 -0.2588 -0.0783 -0.2641
16782SOL    HW155193   5.817   8.097   3.382 -0.3307  1.4438 -0.0701
16782SOL    HW255194   5.948   8.108   3.456 -0.0642  0.4786 -0.3820
16783SOL     OW55195   4.328   9.507   4.832 -0.0761  0.3407 -0.0018
16783SOL    HW155196   4.283   9.591   4.821 -2.0100 -0.8796 -1.6502
16783SOL    HW255197   4.421   9.530   4.833 -0.6373  2.7273  1.7445
16784SOL     OW55198   3.412   8.138   5.250 -0.5523  0.1171 -0.3483
16784SOL    HW155199   3.344   8.184   5.297 -0.0407  1.0044 -0.4687
16784SOL    HW255200   3.424   8.188   5.169 -0.5695 -0.6907 -0.8558
16785SOL     OW55201   4.201   0.059   5.219 -0.2426  0.0999  0.6626
16785SOL    HW155202   4.194   0.112   5.298 -0.5448 -0.8569  1.2884
16785SOL    HW255203   4.295   0.055   5.201 -0.3460  3.1050 -0.9729
16786SOL     OW55204   3.824   8.492   4.867 -0.5499 -0.3342 -0.3291
16786SOL    HW155205   3.835   8.412   4.917 -0.7533 -0.3752 -0.3485
16786SOL    HW255206   3.911   8.532   4.865 -0.9571  0.7117  1.8220
16787SOL     OW55207   2.637   0.989   4.123 -0.5345  0.0138 -0.2304
16787SOL    HW155208   2.680   1.006   4.207  0.1559 -0.2814 -0.5188
16787SOL    HW255209   2.576   0.917   4.141  0.9293 -1.2828 -0.3946
16788SOL     OW55210   6.331   7.855   2.878 -0.1825 -0.6822 -0.7982
16788SOL    HW155211   6.332   7.815   2.791 -0.7298  0.8636 -1.5357
16788SOL    HW255212   6.248   7.903   2.882  1.5767  2.5176 -0.9763
16789SOL     OW55213   3.295   8.861   4.920 -0.7696  0.1480  0.0709
16789SOL    HW155214   3.199   8.860   4.915 -0.7651  2.3198 -1.1028
16789SOL    HW255215   3.322   8.783   4.873 -1.9618 -0.3897  0.2473
16790SOL     OW55216   4.882   9.669   3.734  0.0046  0.3202 -0.1017
16790SOL    HW155217   4.904   9.756   3.699  2.4952 -0.9471 -1.8181
16790SOL    HW255218   4.867   9.615   3.657 -2.2849 -0.6391  0.9672
16791SOL     OW55219   4.172   0.199   5.817 -0.0353  0.0621  0.1072
16791SOL    HW155220   4.161   0.268   5.882  2.8226  0.0806  0.6335
16791SOL    HW255221   4.212   0.242   5.742 -2.0358 -0.2413 -1.1588
16792SOL     OW55222   5.255   9.408   5.791  0.2493 -0.1630 -0.0678
16792SOL    HW155223   5.292   9.496   5.791 -0.2658  0.0831  1.8311
16792SOL    HW255224   5.235   9.390   5.699  1.5363  1.1854 -0.6316
16793SOL     OW55225   5.416   9.772   4.790  0.4162 -0.8542 -0.3563
16793SOL    HW155226   5.355   9.831   4.834 -0.0396 -0.4523 -1.5158
16793SOL    HW255227   5.493   9.771   4.846  0.1441  0.2595  0.0525
16794SOL     OW55228   5.164   0.429   4.544  0.1551 -0.1342  0.0342
16794SOL    HW155229   5.233   0.421   4.610  1.1319 -0.1344 -0.9587
16794SOL    HW255230   5.205   0.479   4.473 -0.5104 -1.0882 -1.0409
16795SOL     OW55231   6.516   0.074   4.806 -0.2106 -0.4043 -0.4381
16795SOL    HW155232   6.608   0.101   4.804 -0.6416  1.6321  2.4152
16795SOL    HW255233   6.518  -0.020   4.824  1.3145 -0.2675  0.1435
16796SOL     OW55234   4.546   0.834   6.100 -0.2575 -0.6949  0.1262
16796SOL    HW155235   4.514   0.902   6.158 -1.2031 -2.9606  2.3461
16796SOL    HW255236   4.612   0.787   6.151  0.7213 -1.1770 -1.5224
16797SOL     OW55237   4.867   9.167   4.504  0.2680  0.1566  1.3822
16797SOL    HW155238   4.809   9.180   4.579  0.8159  2.3281  1.4482
16797SOL    HW255239   4.951   9.204   4.530  1.1828 -1.2997  0.5970
16798SOL     OW55240   3.815   9.711   3.136  0.3299  0.1069 -0.3476
16798SOL    HW155241   3.778   9.747   3.217 -0.6333 -1.9718  0.1648
16798SOL    HW255242   3.743   9.715   3.073 -0.4728 -2.8661  0.3205
16799SOL     OW55243   4.195   9.091   5.343 -0.6077 -0.2292 -0.7424
16799SOL    HW155244   4.162   9.176   5.314 -0.7392 -0.0326 -0.0236
16799SOL    HW255245   4.138   9.066   5.416 -0.6867 -1.0224 -1.0676
16800SOL     OW55246   4.626   9.444   5.008 -0.3089 -0.2253 -0.3281
16800SOL    HW155247   4.611   9.510   4.941 -0.9442  0.1539  0.1820
16800SOL    HW255248   4.658   9.494   5.084 -2.4683 -0.2582  0.6530
16801SOL     OW55249   4.425   9.482   2.178 -0.0269 -0.1578  0.1966
16801SOL    HW155250   4.361   9.412   2.193  0.5589 -0.5535  0.8473
16801SOL    HW255251   4.510   9.439   2.185  0.3235  0.2919 -1.0203
16802SOL     OW55252   4.758   9.877   5.142 -0.3281 -0.3589  0.6453
16802SOL    HW155253   4.754   9.928   5.223  0.4226 -0.0811  0.5037
16802SOL    HW255254   4.833   9.912   5.094 -0.1670 -1.1907  0.2770
16803SOL     OW55255   3.148   9.736   5.003 -0.0387  0.5387  0.3152
16803SOL    HW155256   3.129   9.653   4.958  0.2139  0.4227  0.4236
16803SOL    HW255257   3.242   9.746   4.995 -0.4011  2.3431 -2.3762
16804SOL     OW55258   5.097   8.944   4.770  0.1287 -0.4577  0.9360
16804SOL    HW155259   5.057   9.031   4.767  1.3509  0.1102  0.8311
16804SOL    HW255260   5.116   8.930   4.863 -2.2707 -1.6636  1.3070
16805SOL     OW55261   6.154   9.515   4.354 -0.3329 -0.1312  0.3792
16805SOL    HW155262   6.070   9.550   4.326  0.1675  1.2661  0.5978
16805SOL    HW255263   6.136   9.476   4.440 -0.8448 -0.1844  0.2468
16806SOL     OW55264   6.185   8.604   3.921  0.0694 -0.0719 -0.0892
16806SOL    HW155265   6.236   8.585   4.000  0.1336 -2.5273 -0.6840
16806SOL    HW255266   6.104   8.554   3.931 -0.3417  0.3464 -1.1534
16807SOL     OW55267   5.168   9.495   4.425 -0.2025 -0.1151  0.9335
16807SOL    HW155268   5.227   9.463   4.356 -0.7155  1.0435 -0.0471
16807SOL    HW255269   5.169   9.425   4.490  1.0857 -0.7824  0.2319
16808SOL     OW55270   5.065   9.757   5.088  0.4142  0.3256  0.1710
16808SOL    HW155271   5.034   9.823   5.025  0.2914  0.5282  0.4434
16808SOL    HW255272   5.043   9.793   5.173  1.4479  0.4913  0.3726
16809SOL     OW55273   2.193   1.726   3.418 -0.1292  0.2555 -0.1985
16809SOL    HW155274   2.177   1.639   3.455  0.3099  0.6692  0.9772
16809SOL    HW255275   2.222   1.709   3.329  4.1762 -1.0451  1.3371
16810SOL     OW55276   4.254   9.510   5.906  0.1047 -0.4309  0.5833
16810SOL    HW155277   4.331   9.468   5.867  0.8071  0.5360  0.9229
16810SOL    HW255278   4.205   9.544   5.831  1.4095  1.3495  0.5149
16811SOL     OW55279   4.361   9.301   5.056 -0.3444 -0.4369  0.0448
16811SOL    HW155280   4.395   9.346   5.134 -1.9725  0.9481 -0.0258
16811SOL    HW255281   4.370   9.365   4.985 -0.9671 -0.8855 -0.4416
16812SOL     OW55282   4.872   9.530   4.650  0.3606 -0.0935 -0.1025
16812SOL    HW155283   4.885   9.567   4.738  0.1456  0.9173 -0.4922
16812SOL    HW255284   4.864   9.435   4.665  0.7145  0.0308  0.9244
16813SOL     OW55285   4.379   7.834   2.230 -0.6779  0.3938 -0.4087
16813SOL    HW155286   4.365   7.745   2.199  2.4818 -1.4148  3.0014
16813SOL    HW255287   4.302   7.853   2.284 -1.5690 -0.0823 -1.4954
16814SOL     OW55288   5.660   9.591   5.139  0.2423 -0.2862  0.1404
16814SOL    HW155289   5.631   9.629   5.056  0.1425 -0.7230 -0.0231
16814SOL    HW255290   5.756   9.601   5.136  0.3134 -1.0793 -0.4111
16815SOL     OW55291   3.877   8.854   4.997  0.3577  0.0221  0.0642
16815SOL    HW155292   3.865   8.948   4.981 -0.2640 -0.5064 -2.8569
16815SOL    HW255293   3.811   8.833   5.063  0.1705  1.5484  0.3838
16816SOL     OW55294   4.847   9.912   5.488  0.1517 -0.3154  0.2377
16816SOL    HW155295   4.834   9.997   5.444 -0.5203 -0.9264 -0.7529
16816SOL    HW255296   4.836   9.932   5.581  1.0051  0.8835  0.1036
16817SOL     OW55297   3.892   9.679   5.450  0.2474 -0.2568 -0.2216
16817SOL    HW155298   3.975   9.713   5.417 -0.1949 -2.5419 -3.9901
16817SOL    HW255299   3.906   9.584   5.455 -0.8907 -0.3244  3.0159
16818SOL     OW55300   5.859   9.325   4.097  0.0281 -0.1815  0.2157
16818SOL    HW155301   5.824   9.412   4.117 -0.1292  0.6973 -3.5887
16818SOL    HW255302   5.930   9.314   4.160  0.4173  2.9376  0.4226
16819SOL     OW55303   4.038   8.694   3.652  0.2505  0.2926 -0.4504
16819SOL    HW155304   4.069   8.684   3.562 -1.5130  1.1560 -1.1799
16819SOL    HW255305   3.943   8.693   3.645  0.0758  1.9158  1.2282
16820SOL     OW55306   4.159   9.317   3.771 -0.2103  0.0893 -0.0706
16820SOL    HW155307   4.158   9.373   3.693 -1.8491  1.6704  1.0217
16820SOL    HW255308   4.229   9.353   3.825  2.7640 -2.6778 -1.8935
16821SOL     OW55309   5.532   0.314   4.479  0.3063 -0.4507  0.3943
16821SOL    HW155310   5.465   0.323   4.411  0.4558  1.0806  0.4413
16821SOL    HW255311   5.550   0.220   4.482  0.4147 -0.5245 -1.7939
16822SOL     OW55312   4.548   8.241   5.327 -0.1027  0.4715  0.2413
16822SOL    HW155313   4.518   8.293   5.253  1.4258 -1.7806 -2.0072
16822SOL    HW255314   4.638   8.270   5.341  0.4367 -0.8882 -0.4054
16823SOL     OW55315   3.110   7.584   6.146 -0.0458 -0.3583  0.0349
16823SOL    HW155316   3.028   7.538   6.129 -0.5382  0.9294 -1.1430
16823SOL    HW255317   3.084   7.659   6.200  0.4610 -0.3584  0.2793
16824SOL     OW55318   4.163   9.438   4.626  0.0465 -0.2371  0.1628
16824SOL    HW155319   4.072   9.437   4.656 -0.2597  0.2689 -0.7306
16824SOL    HW255320   4.213   9.468   4.702 -0.5420 -0.4137  0.6262
16825SOL     OW55321   5.014   9.715   5.743 -0.1728 -0.0161 -0.4268
16825SOL    HW155322   4.980   9.804   5.746 -1.5573 -0.5588  0.5627
16825SOL    HW255323   4.939   9.660   5.766  1.8491 -1.1137  4.0086
16826SOL     OW55324   5.017   0.394   5.741 -0.1972  0.3674  0.2746
16826SOL    HW155325   4.933   0.433   5.720  0.2762  2.2902  1.7796
16826SOL    HW255326   4.997   0.328   5.807 -0.5538  0.6958  0.4971
16827SOL     OW55327   3.668   8.423   4.020 -0.1414 -0.5229  0.1197
16827SOL    HW155328   3.640   8.493   4.079  2.1994  0.3305  0.2615
16827SOL    HW255329   3.644   8.455   3.933  0.2861  0.1556  0.2469
16828SOL     OW55330   3.869   0.111   5.686  0.4217  0.1608 -0.4353
16828SOL    HW155331   3.875   0.133   5.593 -2.1775  0.7829 -0.4975
16828SOL    HW255332   3.912   0.184   5.730 -0.2045  0.9246 -1.0617
16829SOL     OW55333   5.279   9.037   3.504 -0.3915  0.0250  0.2194
16829SOL    HW155334   5.186   9.015   3.505 -0.4035  0.1215  2.1707
16829SOL    HW255335   5.290   9.094   3.427 -1.8177 -0.4740 -0.3577
16830SOL     OW55336   6.407   7.659   2.057 -0.0673  0.4200  0.3205
16830SOL    HW155337   6.416   7.660   1.962  1.1183  0.6119  0.4311
16830SOL    HW255338   6.496   7.644   2.090 -0.4270  0.5986  1.4057
16831SOL     OW55339   4.884   9.135   3.227 -0.1142 -0.2534 -0.4513
16831SOL    HW155340   4.930   9.077   3.167  0.6149 -0.5555  0.3805
16831SOL    HW255341   4.922   9.222   3.211  0.9185 -0.5349  0.3751
16832SOL     OW55342   4.477   0.215   4.075 -0.4367 -0.1201  0.0641
16832SOL    HW155343   4.566   0.206   4.109 -0.6505 -0.9179  0.4275
16832SOL    HW255344   4.422   0.168   4.139 -1.1300  0.4790 -0.0876
16833SOL     OW55345   2.910   9.335   5.786 -0.7513  0.1551  0.2727
16833SOL    HW155346   2.937   9.413   5.833  1.3715 -0.3977  0.0391
16833SOL    HW255347   2.937   9.262   5.842 -0.5510 -0.4462 -0.5781
16834SOL     OW55348   5.475   9.847   5.137  0.2050 -0.1730  0.0221
16834SOL    HW155349   5.446   9.934   5.110  3.4746  1.2567  0.9267
16834SOL    HW255350   5.541   9.822   5.072  1.1290 -0.8427  1.1814
16835SOL     OW55351   3.786   9.681   4.633  0.1258  0.2409 -0.3136
16835SOL    HW155352   3.773   9.770   4.665  0.5280  0.3726 -0.5256
16835SOL    HW255353   3.798   9.629   4.713  1.3238  0.6001 -0.2644
16836SOL     OW55354   3.597   0.601   2.973 -0.0845  0.3245  0.6406
16836SOL    HW155355   3.592   0.638   2.885  0.5030 -1.4891 -0.1585
16836SOL    HW255356   3.658   0.660   3.020  0.7866  0.4309 -0.5989
16837SOL     OW55357   2.460   8.628   4.331 -0.1121  0.1490  0.1619
16837SOL    HW155358   2.478   8.583   4.248  0.4087  0.1177  0.2902
16837SOL    HW255359   2.368   8.610   4.349 -0.5648  1.1927 -1.0439
16838SOL     OW55360   4.381   9.425   4.357 -0.1922  0.2636  0.5345
16838SOL    HW155361   4.379   9.509   4.404 -1.0267 -0.4051  1.6993
16838SOL    HW255362   4.333   9.364   4.413  0.8692 -1.1383 -0.0528
16839SOL     OW55363   5.704   7.388   6.655 -0.0117  0.4471 -0.2424
16839SOL    HW155364   5.673   7.457   6.597 -0.1569  0.3625 -0.2664
16839SOL    HW255365   5.800   7.389   6.645  0.0975  1.6166  0.8595
16840SOL     OW55366   4.106   0.385   3.143  0.2055  0.1623  0.1821
16840SOL    HW155367   4.135   0.392   3.234  1.0718 -1.8136  0.0613
16840SOL    HW255368   4.183   0.356   3.095 -0.4184  0.5990 -1.0995
16841SOL     OW55369   4.086   9.985   3.564 -0.6263 -0.1502  0.1930
16841SOL    HW155370   4.155   9.983   3.631 -0.4049  0.5355 -0.0100
16841SOL    HW255371   4.009   9.947   3.608 -0.3200 -0.2499  0.6481
16842SOL     OW55372   5.334   9.808   5.372  0.5722 -0.0767 -0.1382
16842SOL    HW155373   5.298   9.722   5.347 -1.6125  0.8250 -0.2756
16842SOL    HW255374   5.381   9.838   5.295 -3.8207  1.4756 -2.3818
16843SOL     OW55375   4.373   0.321   3.858  0.3296 -0.2678 -0.6926
16843SOL    HW155376   4.405   0.411   3.864 -0.1122 -0.1603  0.1637
16843SOL    HW255377   4.407   0.278   3.937 -0.0177 -0.6680 -0.7592
16844SOL     OW55378   5.394   9.023   6.514  0.4564 -0.1447  0.3556
16844SOL    HW155379   5.346   8.972   6.579 -1.9741  0.3103 -1.0516
16844SOL    HW255380   5.345   9.105   6.505  1.5768  0.4085 -0.9811
16845SOL     OW55381   5.535   0.443   1.829  0.3423 -0.1162  0.0415
16845SOL    HW155382   5.481   0.447   1.750  1.4452  1.2240 -0.6643
16845SOL    HW255383   5.560   0.534   1.845  1.6549 -0.6130  0.8752
16846SOL     OW55384   4.420   0.531   3.575  0.0139  0.5585 -0.4144
16846SOL    HW155385   4.325   0.537   3.585 -0.2023  0.1292 -2.0563
16846SOL    HW255386   4.455   0.574   3.653 -1.5285  0.9710  0.0682
16847SOL     OW55387   3.856   9.078   6.240 -0.4083  0.5321  0.1114
16847SOL    HW155388   3.766   9.094   6.212 -1.4413 -2.1582  1.6928
16847SOL    HW255389   3.857   9.100   6.333  0.4521  0.1659  0.2020
16848SOL     OW55390   2.169   9.324   6.050 -0.3776  0.3319 -0.1876
16848SOL    HW155391   2.208   9.318   6.138  1.6087  0.9547 -0.9894
16848SOL    HW255392   2.142   9.416   6.043  1.1581  0.7584 -0.8784
16849SOL     OW55393   3.300   9.916   5.395 -0.3837  0.2340  0.1254
16849SOL    HW155394   3.216   9.878   5.367  0.5989 -1.9398  0.0788
16849SOL    HW255395   3.310   9.994   5.340 -2.8269  1.0744  0.8090
16850SOL     OW55396   3.549   9.670   8.443 -0.2630  0.6426  0.5738
16850SOL    HW155397   3.501   9.651   8.523 -0.3610 -1.9508 -0.0511
16850SOL    HW255398   3.481   9.690   8.378 -0.3983 -0.5999  0.3128
16851SOL     OW55399   4.368   9.676   6.386  0.3766  0.6112  0.0928
16851SOL    HW155400   4.344   9.722   6.467  0.4042  1.4429 -0.3611
16851SOL    HW255401   4.328   9.590   6.395 -0.9044  1.2129  0.3408
16852SOL     OW55402   4.400   0.001   9.067 -0.1053  0.1261  0.0158
16852SOL    HW155403   4.495  -0.005   9.064 -0.1756 -0.7609 -0.3682
16852SOL    HW255404   4.378   0.073   9.007  0.3435  0.6267  0.4454
16853SOL     OW55405   4.681   0.262   7.505  0.1729  0.1124  0.2186
16853SOL    HW155406   4.588   0.242   7.494  0.2167 -0.2350  0.5221
16853SOL    HW255407   4.722   0.179   7.528  0.2098  0.6880  2.3395
16854SOL     OW55408   5.161   1.235   5.952  0.0087  0.2087  0.3413
16854SOL    HW155409   5.078   1.236   6.000 -0.6660  0.9102 -0.8198
16854SOL    HW255410   5.166   1.147   5.916 -0.6630  0.4208 -0.2973
16855SOL     OW55411   3.823   0.817   7.769  0.8562 -0.0426 -0.6664
16855SOL    HW155412   3.848   0.888   7.710 -0.3938  1.0622  0.1044
16855SOL    HW255413   3.906   0.776   7.794  1.8753  3.0406  1.2321
16856SOL     OW55414   2.796   1.605   7.846  0.3648 -0.1582  0.1664
16856SOL    HW155415   2.864   1.540   7.828 -0.4927 -1.9452  3.0909
16856SOL    HW255416   2.727   1.587   7.783  1.9820  0.8453 -1.9765
16857SOL     OW55417   3.823   0.489   5.717  0.2377 -0.0955 -0.0158
16857SOL    HW155418   3.744   0.542   5.725 -1.6931 -2.9549  0.6484
16857SOL    HW255419   3.850   0.472   5.808  0.8505 -0.2562 -0.2240
16858SOL     OW55420   4.571   2.483   7.761 -0.0091 -0.3959 -0.2286
16858SOL    HW155421   4.659   2.475   7.797 -0.3072 -1.5093  0.2498
16858SOL    HW255422   4.562   2.408   7.702 -1.3458 -1.4010  1.2201
16859SOL     OW55423   4.967   0.387   7.547  0.4367 -0.4243 -0.5830
16859SOL    HW155424   5.020   0.466   7.542  0.8696 -0.6980 -0.3174
16859SOL    HW255425   4.882   0.418   7.579  1.1437 -0.3184  1.2431
16860SOL     OW55426   5.887   8.623   5.183 -0.0236 -0.3064  0.1528
16860SOL    HW155427   5.956   8.682   5.213  0.2502 -0.3246 -0.4266
16860SOL    HW255428   5.838   8.675   5.118 -0.6116 -0.2629  0.6321
16861SOL     OW55429   3.503   9.227   5.798  0.4360  0.4294 -0.0655
16861SOL    HW155430   3.423   9.177   5.817  0.1844  1.5209  1.8224
16861SOL    HW255431   3.473   9.316   5.780  1.2143  0.8059  0.4757
16862SOL     OW55432   6.299   9.327   6.190  0.2124  0.0235  0.3015
16862SOL    HW155433   6.264   9.377   6.117  1.7732  0.7987  0.0824
16862SOL    HW255434   6.228   9.266   6.213 -1.0657  1.1911 -0.4872
16863SOL     OW55435   3.624   0.677   6.132 -0.4981 -0.1871  0.0629
16863SOL    HW155436   3.628   0.582   6.134 -0.9713 -0.1930  0.7882
16863SOL    HW255437   3.566   0.697   6.058  0.0942 -0.4396 -0.4759
16864SOL     OW55438   5.051   9.587   7.475  0.4552 -0.0385 -0.2276
16864SOL    HW155439   5.005   9.537   7.408  1.0041 -0.4894 -0.2736
16864SOL    HW255440   5.051   9.530   7.552  0.7737  0.0359 -0.1728
16865SOL     OW55441   5.844   9.403   4.584 -0.3358 -0.1940 -0.1206
16865SOL    HW155442   5.842   9.444   4.671 -0.0821  0.6078 -0.4831
16865SOL    HW255443   5.771   9.444   4.537 -0.2068 -0.3121 -0.4253
16866SOL     OW55444   4.223   0.482   7.415 -0.6498 -0.0774  0.3292
16866SOL    HW155445   4.182   0.451   7.496 -1.2488 -0.3461 -0.0715
16866SOL    HW255446   4.158   0.463   7.347 -1.2468  2.5013  0.1356
16867SOL     OW55447   3.998   8.933   6.674 -0.5126 -0.3214 -0.6454
16867SOL    HW155448   3.949   8.906   6.751 -0.1130  0.1851 -0.2071
16867SOL    HW255449   4.073   8.873   6.670  1.2331  1.6660  1.2309
16868SOL     OW55450   4.469   9.101   5.433 -0.1157 -0.3088  0.8716
16868SOL    HW155451   4.529   9.146   5.374 -0.5355 -0.4186  0.3542
16868SOL    HW255452   4.381   9.124   5.401 -0.3367 -2.2247  0.0130
16869SOL     OW55453   5.170   9.619   4.794  0.6714  0.3508  0.5701
16869SOL    HW155454   5.177   9.525   4.815  2.6982  0.1757 -0.8027
16869SOL    HW255455   5.260   9.651   4.798  0.0127  2.2064  0.8061
16870SOL     OW55456   4.493   8.710   6.672  0.4635 -0.5540 -0.3899
16870SOL    HW155457   4.559   8.704   6.603  0.3864 -0.4601 -0.4720
16870SOL    HW255458   4.458   8.621   6.679 -0.8547 -0.1622 -1.7798
16871SOL     OW55459   3.293   1.001   6.473 -0.0404  0.4509 -0.0993
16871SOL    HW155460   3.386   1.015   6.490  0.1793 -0.5119 -0.4535
16871SOL    HW255461   3.279   1.039   6.386  0.2577 -0.3261 -0.4921
16872SOL     OW55462   3.542   1.080   6.503 -0.2271 -0.1333  0.3262
16872SOL    HW155463   3.532   1.132   6.423  0.0779  0.5090  0.7059
16872SOL    HW255464   3.621   1.114   6.544 -0.6067 -0.1859  1.1047
16873SOL     OW55465   5.643   0.889   7.946 -0.9950  0.2626  0.0987
16873SOL    HW155466   5.703   0.859   8.014  1.9900 -0.4011 -2.7103
16873SOL    HW255467   5.642   0.819   7.881 -2.5670  1.5099 -1.2955
16874SOL     OW55468   4.705   0.772   6.341  0.2434  0.2000  0.3545
16874SOL    HW155469   4.682   0.804   6.428  1.0163  1.9447 -0.0747
16874SOL    HW255470   4.797   0.797   6.329  0.7882 -1.9198 -0.1073
16875SOL     OW55471   5.177   9.399   6.836  0.1163  0.2812 -0.3556
16875SOL    HW155472   5.157   9.406   6.743 -1.0522 -0.4789 -0.1778
16875SOL    HW255473   5.267   9.430   6.844 -0.0074  0.9926 -1.6352
16876SOL     OW55474   5.057   9.192   5.420  0.0267  0.5973 -0.9810
16876SOL    HW155475   5.075   9.144   5.338 -0.8705 -0.9464 -0.2853
16876SOL    HW255476   5.004   9.266   5.393  1.0785  0.9913 -2.0234
16877SOL     OW55477   5.473   9.723   5.961 -0.4835  0.6165 -0.0067
16877SOL    HW155478   5.464   9.728   5.866 -1.4092  1.4099  0.1190
16877SOL    HW255479   5.562   9.755   5.979  0.2581 -0.9939 -0.7202
16878SOL     OW55480   5.669   8.937   5.871  0.0274  0.0674  0.1621
16878SOL    HW155481   5.687   9.003   5.805 -0.3746  0.0070 -0.0122
16878SOL    HW255482   5.661   8.985   5.953 -0.4970  0.2633 -0.0025
16879SOL     OW55483   4.326   8.337   7.064  0.0674  0.1201 -0.4045
16879SOL    HW155484   4.236   8.369   7.057  0.0322 -0.1942 -1.4505
16879SOL    HW255485   4.374   8.384   6.995  0.7692  0.4972  0.3353
16880SOL     OW55486   5.699   9.654   7.289  0.2414 -0.0924  0.6285
16880SOL    HW155487   5.771   9.715   7.307  0.4648 -0.1638 -0.0008
16880SOL    HW255488   5.720   9.577   7.341 -0.3076  0.5547  1.8276
16881SOL     OW55489   5.027   9.822   7.009  0.3443 -0.0895  0.4288
16881SOL    HW155490   5.089   9.851   6.942  0.8948 -1.7431  0.2051
16881SOL    HW255491   5.058   9.862   7.090  0.9924  0.0786  0.0988
16882SOL     OW55492   3.512   9.058   6.773  0.6689 -0.0326  0.7719
16882SOL    HW155493   3.602   9.091   6.772  1.1062 -1.2047  0.1806
16882SOL    HW255494   3.477   9.087   6.857  1.7270  0.1277  1.1677
16883SOL     OW55495   4.335   9.086   5.824  0.2665  0.5027  0.0418
16883SOL    HW155496   4.350   9.095   5.918 -2.5944 -0.4551  0.6422
16883SOL    HW255497   4.317   9.174   5.793 -1.7810  0.4241  0.9756
16884SOL     OW55498   3.089   9.646   6.593  0.4180 -0.0536 -0.8046
16884SOL    HW155499   3.125   9.718   6.645 -0.4980  0.7019 -1.1941
16884SOL    HW255500   3.005   9.626   6.634  1.8008 -2.6273  0.8339
16885SOL     OW55501   2.648   0.301   6.633 -0.0669 -0.1448 -0.8486
16885SOL    HW155502   2.606   0.216   6.627  2.2923 -1.3611 -0.8654
16885SOL    HW255503   2.647   0.322   6.726 -0.5783 -0.2301 -0.8357
16886SOL     OW55504   6.789   2.560   4.282  0.5216  0.1826  0.2914
16886SOL    HW155505   6.741   2.630   4.326  1.0728  1.1190 -0.5956
16886SOL    HW255506   6.880   2.589   4.282  1.0302 -1.3145  1.4437
16887SOL     OW55507   5.400   9.377   8.227  0.8497  0.2003  0.3522
16887SOL    HW155508   5.487   9.351   8.258  0.9011  0.8597  0.7498
16887SOL    HW255509   5.404   9.472   8.220  0.5414  0.1373 -0.7897
16888SOL     OW55510   4.366   0.702   5.131  0.4611 -0.5105  0.0443
16888SOL    HW155511   4.455   0.736   5.137  0.5671 -0.9517  1.0714
16888SOL    HW255512   4.348   0.667   5.218 -0.4277 -1.1539 -0.3953
16889SOL     OW55513   4.096   8.671   5.009 -0.2181 -0.0159  0.1003
16889SOL    HW155514   4.038   8.745   4.992  0.1606  0.2588 -0.0011
16889SOL    HW255515   4.143   8.695   5.089  2.9674  1.7695 -2.1596
16890SOL     OW55516   5.160   8.414   7.030 -0.1166  0.6459 -0.1434
16890SOL    HW155517   5.175   8.321   7.011 -0.3498  0.6943 -0.5498
16890SOL    HW255518   5.076   8.434   6.990 -1.0828  0.5026  1.7257
16891SOL     OW55519   4.587   8.994   7.964 -0.6659 -0.2925  0.3807
16891SOL    HW155520   4.507   8.947   7.988 -0.2873 -0.4661  1.3043
16891SOL    HW255521   4.555   9.074   7.922 -1.3491  0.2409  1.8970
16892SOL     OW55522   2.584   0.405   6.342 -0.1390  0.1098 -0.0195
16892SOL    HW155523   2.541   0.490   6.333  0.9508  0.6508 -0.2274
16892SOL    HW255524   2.612   0.401   6.433  0.2170  0.1838 -0.1222
16893SOL     OW55525   4.481   9.342   6.851 -0.3082 -0.3741 -0.0760
16893SOL    HW155526   4.552   9.372   6.907 -2.2839  1.0919  1.7197
16893SOL    HW255527   4.509   9.363   6.762  0.9919  1.2735  0.7024
16894SOL     OW55528   3.952   0.460   6.687 -0.3925 -0.0852  0.4072
16894SOL    HW155529   3.956   0.535   6.746  0.2379  1.0009 -0.9880
16894SOL    HW255530   4.010   0.483   6.614  0.7026 -2.4113  0.4929
16895SOL     OW55531   6.089   0.195   6.520 -0.0045 -0.0167  0.0454
16895SOL    HW155532   6.098   0.257   6.592  2.3978  0.5301 -0.6983
16895SOL    HW255533   6.078   0.250   6.442  1.3202 -0.5280 -0.5071
16896SOL     OW55534   6.125   7.679   4.890  0.4053  0.0498 -0.4528
16896SOL    HW155535   6.159   7.767   4.878  0.6807  0.1268  0.7906
16896SOL    HW255536   6.182   7.624   4.836 -0.2532  0.7158 -1.8395
16897SOL     OW55537   4.594   0.908   6.560  0.1734  0.0431  0.4416
16897SOL    HW155538   4.646   0.965   6.616 -0.9356 -0.5642  2.1295
16897SOL    HW255539   4.579   0.829   6.613  2.5062 -2.2499 -2.1937
16898SOL     OW55540   5.212   0.315   6.649  0.1283  0.0550 -0.1938
16898SOL    HW155541   5.240   0.226   6.673 -1.0253 -0.7669 -1.7636
16898SOL    HW255542   5.146   0.301   6.581  0.2130  2.1406 -0.7287
16899SOL     OW55543   4.003   9.178   8.501 -0.3103 -0.1278  0.3512
16899SOL    HW155544   4.056   9.132   8.436 -1.4037 -1.2527  0.2331
16899SOL    HW255545   3.957   9.245   8.451 -1.3541 -1.1613 -0.1193
16900SOL     OW55546   5.225   9.382   5.534  0.0230 -0.3466  0.2807
16900SOL    HW155547   5.244   9.448   5.468 -0.0436 -0.4945  0.1113
16900SOL    HW255548   5.152   9.331   5.497  0.4464 -0.8675  0.1579
16901SOL     OW55549   4.076   9.911   6.553 -0.2103  0.0128  0.2799
16901SOL    HW155550   4.124   9.969   6.612  1.3582 -0.2498 -0.7194
16901SOL    HW255551   3.999   9.885   6.604  0.7442  0.3608  1.9584
16902SOL     OW55552   3.403   8.358   7.447 -0.4360 -0.7612 -0.4652
16902SOL    HW155553   3.366   8.446   7.451  0.7716 -0.1798 -1.6531
16902SOL    HW255554   3.495   8.372   7.424  0.9656 -2.0805  3.9032
16903SOL     OW55555   3.181   7.602   6.525 -0.3630 -0.1269  0.1557
16903SOL    HW155556   3.099   7.618   6.479 -0.0688  0.5333 -0.1578
16903SOL    HW255557   3.227   7.538   6.472  0.0528  0.7671 -0.5725
16904SOL     OW55558   5.158   8.829   6.307  0.1572  0.0044 -0.9070
16904SOL    HW155559   5.229   8.766   6.297  0.4936  0.3011 -0.4120
16904SOL    HW255560   5.080   8.775   6.322  0.5777 -0.2785  0.3174
16905SOL     OW55561   4.055   0.642   5.386 -0.3472  0.2426  0.5132
16905SOL    HW155562   4.146   0.611   5.382 -0.0928  1.1996 -2.4187
16905SOL    HW255563   4.054   0.706   5.457  1.5780  1.1085 -0.2137
16906SOL     OW55564   3.908   1.289   7.203  0.1880  0.0092  0.2410
16906SOL    HW155565   3.931   1.197   7.188  0.2386  0.0907 -0.2022
16906SOL    HW255566   3.940   1.308   7.291 -0.8156 -0.7052  0.7618
16907SOL     OW55567   5.782   9.588   6.371  0.2790 -0.3331  0.5966
16907SOL    HW155568   5.859   9.645   6.374  0.7313 -0.9344  0.5107
16907SOL    HW255569   5.754   9.590   6.279 -0.4498  0.7148  0.8239
16908SOL     OW55570   5.402   9.154   6.850 -0.4052  0.0412  0.0138
16908SOL    HW155571   5.373   9.093   6.783 -1.5320  0.8221 -0.2263
16908SOL    HW255572   5.488   9.122   6.877 -0.0569 -0.4109 -1.6216
16909SOL     OW55573   4.729   0.118   6.439  0.1896 -0.1067  0.4843
16909SOL    HW155574   4.762   0.207   6.427 -0.4302  0.0506 -0.0633
16909SOL    HW255575   4.761   0.093   6.526 -0.2308  0.9228  0.9578
16910SOL     OW55576   4.457   9.197   6.413 -0.3470 -0.0149  0.0762
16910SOL    HW155577   4.414   9.113   6.426  0.0882 -0.4659 -1.2785
16910SOL    HW255578   4.471   9.202   6.318  1.1850  0.8091  0.3310
16911SOL     OW55579   2.743   0.443   8.435 -0.1391  0.2936 -0.4704
16911SOL    HW155580   2.658   0.481   8.459 -0.1681 -0.7647  1.2027
16911SOL    HW255581   2.721   0.364   8.387 -0.1177 -0.1555  0.2484
16912SOL     OW55582   3.991   9.575   8.439 -0.0391  0.0647  0.0236
16912SOL    HW155583   3.970   9.669   8.446  2.3992  0.7557 -1.4081
16912SOL    HW255584   3.940   9.534   8.508 -3.1056  2.1350 -0.8920
16913SOL     OW55585   3.646   9.095   0.050 -0.1170  0.3330 -0.3668
16913SOL    HW155586   3.561   9.074   0.011  0.1643  0.0035 -0.8176
16913SOL    HW255587   3.632   9.090   0.144 -0.3781 -0.6517 -0.4462
16914SOL     OW55588   5.095   1.346   9.017  0.5918 -0.4904 -0.2797
16914SOL    HW155589   5.061   1.284   8.952  0.2577 -0.7517  0.1407
16914SOL    HW255590   5.144   1.291   9.078  1.7912 -0.1145 -0.8890
16915SOL     OW55591   5.720   8.555   9.297 -0.1070  0.3218 -0.4059
16915SOL    HW155592   5.702   8.640   9.257 -1.5716  0.0870 -0.2871
16915SOL    HW255593   5.786   8.515   9.241  0.0800  1.2452 -0.8548
16916SOL     OW55594   4.094   0.748   7.525  0.2050 -0.1471 -0.4978
16916SOL    HW155595   4.056   0.679   7.471  0.6366 -0.7890  0.0124
16916SOL    HW255596   4.089   0.715   7.614  0.6632  0.3594 -0.2796
16917SOL     OW55597   3.647   0.340   8.164  0.3078  0.3017 -0.3278
16917SOL    HW155598   3.735   0.311   8.141  1.8891  2.4827  2.7321
16917SOL    HW255599   3.640   0.429   8.129 -0.2080  0.5982  0.4930
16918SOL     OW55600   6.577   0.271   9.759 -0.0471 -0.3873 -0.5179
16918SOL    HW155601   6.546   0.361   9.744 -2.5467 -1.0984  0.2779
16918SOL    HW255602   6.655   0.282   9.814 -0.1448  1.3002 -0.6850
16919SOL     OW55603   4.878   1.161   8.929  0.2543 -0.0812 -0.4317
16919SOL    HW155604   4.810   1.101   8.899 -0.2719 -0.5316  1.6436
16919SOL    HW255605   4.902   1.210   8.850 -2.2903 -0.0728 -1.2521
16920SOL     OW55606   2.734   1.515   9.985  0.1189  0.0606 -0.0383
16920SOL    HW155607   2.803   1.529  10.050 -1.4943  0.2212  1.6978
16920SOL    HW255608   2.738   1.422   9.964 -2.3313 -1.0458  3.8665
16921SOL     OW55609   5.822   9.960   0.181 -0.0630  0.0214 -0.5769
16921SOL    HW155610   5.888   9.953   0.113 -0.4061 -1.7231 -0.7401
16921SOL    HW255611   5.842   9.889   0.242  0.2525  1.5775  1.1583
16922SOL     OW55612   4.737   9.857   8.824  0.3651  0.4086 -0.0851
16922SOL    HW155613   4.667   9.861   8.759 -1.7922  0.2975  2.1614
16922SOL    HW255614   4.708   9.916   8.893  1.3548 -1.4184  1.9396
16923SOL     OW55615   5.259   0.829   1.366  0.3716  0.2263 -0.2525
16923SOL    HW155616   5.205   0.751   1.359  0.0770  0.2694  1.3115
16923SOL    HW255617   5.197   0.902   1.363  0.4840  0.3345 -0.0044
16924SOL     OW55618   4.648   0.342   9.023 -0.0931 -0.4789 -0.3247
16924SOL    HW155619   4.652   0.367   8.931 -0.0717  1.1529  0.1165
16924SOL    HW255620   4.639   0.424   9.070 -1.4936 -1.4125  1.0553
16925SOL     OW55621   5.233   9.873   9.772  0.0241  0.0044 -0.2598
16925SOL    HW155622   5.272   9.950   9.730 -0.2566  0.0804 -0.3860
16925SOL    HW255623   5.188   9.827   9.701  0.3117 -0.3535 -0.2095
16926SOL     OW55624   4.887   8.106   8.587 -0.2453 -0.2561  0.0973
16926SOL    HW155625   4.916   8.197   8.581  2.6114 -0.9302  2.6697
16926SOL    HW255626   4.917   8.066   8.506  1.4818  0.2927  0.4577
16927SOL     OW55627   3.760   0.895   8.999 -0.3553 -0.0160 -0.5196
16927SOL    HW155628   3.694   0.830   9.024 -1.6469  0.9865 -1.2728
16927SOL    HW255629   3.825   0.890   9.069 -2.2882  0.4887  1.3955
16928SOL     OW55630   3.857   0.407   5.965 -0.5547 -0.7627 -0.1707
16928SOL    HW155631   3.766   0.423   5.990  0.2611 -0.2097  2.5490
16928SOL    HW255632   3.891   0.348   6.032  1.3622 -0.2285 -0.6255
16929SOL     OW55633   5.354   0.377   8.538  0.3293  0.2154 -0.3844
16929SOL    HW155634   5.318   0.463   8.516  1.5758  0.6757 -0.6518
16929SOL    HW255635   5.413   0.394   8.611  0.0966 -0.5197 -0.0254
16930SOL     OW55636   6.655   0.118   0.964 -0.0276 -0.3621 -0.0781
16930SOL    HW155637   6.707   0.096   1.042  0.0341  1.6336  0.4737
16930SOL    HW255638   6.584   0.053   0.964  0.9281 -1.4310  0.6754
16931SOL     OW55639   4.167   0.365   7.934  0.3113 -0.4957 -0.1501
16931SOL    HW155640   4.262   0.378   7.929  0.2674 -0.1155 -0.0374
16931SOL    HW255641   4.151   0.344   8.026  0.0213  1.7035  0.3290
16932SOL     OW55642   4.027   9.988   8.054 -0.0611  0.0202 -0.0806
16932SOL    HW155643   4.053  10.074   8.087 -0.7007 -0.2314  1.1304
16932SOL    HW255644   4.108   9.939   8.049  0.1620  0.3512  0.2776
16933SOL     OW55645   5.222   0.535   8.231 -0.0977  0.2615 -0.4696
16933SOL    HW155646   5.193   0.553   8.320  0.8575  0.1693 -0.1319
16933SOL    HW255647   5.234   0.621   8.191 -0.5657  0.3019 -0.5257
16934SOL     OW55648   4.334   0.275   7.215  0.0899 -0.3991 -0.3040
16934SOL    HW155649   4.253   0.325   7.221 -0.0358 -0.6510  0.1450
16934SOL    HW255650   4.393   0.330   7.162 -0.7155 -0.6837 -1.5184
16935SOL     OW55651   5.210   9.958   9.020 -0.4775 -0.5776 -0.1264
16935SOL    HW155652   5.171   9.902   9.087  0.5455 -2.2127 -0.8698
16935SOL    HW255653   5.164   9.935   8.939 -0.4312  0.0652 -0.3392
16936SOL     OW55654   4.241   9.428   6.354 -0.1517 -0.1651  0.1528
16936SOL    HW155655   4.153   9.458   6.374 -0.5701 -1.0548 -0.3448
16936SOL    HW255656   4.236   9.332   6.357  1.0220 -0.2197  1.1104
16937SOL     OW55657   4.412   0.249   7.474 -0.8588 -0.4346 -0.0487
16937SOL    HW155658   4.388   0.291   7.556  1.5007  0.1971  0.3669
16937SOL    HW255659   4.363   0.296   7.406 -0.0145  1.4850  0.6432
16938SOL     OW55660   5.147   0.455   8.776 -0.5675 -0.1989 -0.5745
16938SOL    HW155661   5.236   0.489   8.763 -0.1286 -1.1776 -0.1448
16938SOL    HW255662   5.133   0.460   8.871 -0.8461 -0.3606 -0.6076
16939SOL     OW55663   4.299   0.851   8.924  0.1092 -0.4720  0.4050
16939SOL    HW155664   4.271   0.766   8.958  0.8623 -0.6853  0.5043
16939SOL    HW255665   4.393   0.856   8.945  0.2010  0.1279 -0.1280
16940SOL     OW55666   4.475   9.754   7.466 -0.0990 -0.0751  0.4468
16940SOL    HW155667   4.537   9.769   7.394 -0.4393 -0.0748  0.1539
16940SOL    HW255668   4.462   9.840   7.505 -0.2074 -0.0103  0.2686
16941SOL     OW55669   4.794   9.543   9.483 -0.3342 -0.2606 -0.0171
16941SOL    HW155670   4.725   9.608   9.465 -1.5432 -1.0897  1.4825
16941SOL    HW255671   4.863   9.564   9.421 -0.6532  2.5508  0.4887
16942SOL     OW55672   4.495   1.101   8.796 -0.2285  0.1618 -0.8076
16942SOL    HW155673   4.570   1.040   8.792 -1.3949 -1.2675 -1.4032
16942SOL    HW255674   4.502   1.141   8.882  0.4231 -1.0396 -0.2767
16943SOL     OW55675   4.999   9.706   6.227  0.1054 -0.2792  0.1628
16943SOL    HW155676   5.076   9.667   6.184  1.1020  2.0037 -0.2298
16943SOL    HW255677   4.931   9.705   6.160  0.6000  0.0699 -0.3519
16944SOL     OW55678   6.332   8.559   9.760  0.0538  0.8647 -0.0132
16944SOL    HW155679   6.395   8.488   9.750  2.1434  2.6714 -0.2746
16944SOL    HW255680   6.251   8.525   9.722  1.4053 -0.8417 -1.4958
16945SOL     OW55681   4.538   9.897   8.641  0.8594  0.3760 -0.1376
16945SOL    HW155682   4.482   9.838   8.591  0.2535 -0.0616  1.0345
16945SOL    HW255683   4.512   9.984   8.614  0.6460  0.1366 -0.7019
16946SOL     OW55684   3.989   0.551   8.292  0.3362 -0.4222  0.8042
16946SOL    HW155685   4.012   0.458   8.295  2.7953  0.0621 -1.1779
16946SOL    HW255686   4.066   0.596   8.327  0.2004  0.9637 -0.6059
16947SOL     OW55687   2.958   9.562   8.480  0.2079 -0.3427  0.0416
16947SOL    HW155688   2.984   9.614   8.556 -0.3497  2.0125 -1.3350
16947SOL    HW255689   2.982   9.616   8.404 -0.5456 -2.0210 -1.4345
16948SOL     OW55690   4.926   9.240   8.102 -0.3713  0.2546  0.1447
16948SOL    HW155691   4.875   9.223   8.022  0.6974  0.0468 -0.4982
16948SOL    HW255692   5.006   9.281   8.071  0.6001 -0.9757  0.9957
16949SOL     OW55693   4.715   0.680   8.142  0.3997  0.5752 -0.2547
16949SOL    HW155694   4.698   0.753   8.082  1.5567  0.3666 -0.8421
16949SOL    HW255695   4.664   0.607   8.107 -1.4820  1.3298  0.8438
16950SOL     OW55696   5.868   0.475   7.362 -0.1346  0.1222 -0.5177
16950SOL    HW155697   5.781   0.437   7.362  0.2911 -0.9727  2.1137
16950SOL    HW255698   5.917   0.423   7.298 -0.4681 -1.5543  0.5775
16951SOL     OW55699   4.181   1.438   7.116  0.1086  0.4016 -0.4795
16951SOL    HW155700   4.103   1.389   7.090 -0.3809  0.1601  1.3684
16951SOL    HW255701   4.248   1.410   7.054 -0.2999 -2.2667  0.1981
16952SOL     OW55702   4.060   0.484   9.656  0.4467  0.2116 -0.7273
16952SOL    HW155703   4.154   0.468   9.649  0.4655  0.3412 -0.7589
16952SOL    HW255704   4.034   0.510   9.568  0.6162  1.4586 -0.4103
16953SOL     OW55705   5.317   9.711   8.912 -0.6491  0.0696  0.2258
16953SOL    HW155706   5.367   9.705   8.831 -0.3726 -1.1100  0.4857
16953SOL    HW255707   5.348   9.792   8.953  0.3199 -0.1399 -0.0899
16954SOL     OW55708   6.539   8.540   9.356 -0.1514  0.0914  0.5679
16954SOL    HW155709   6.618   8.522   9.407 -0.5571  1.2734  1.6598
16954SOL    HW255710   6.528   8.635   9.363 -0.6085  0.1757 -1.1561
16955SOL     OW55711   2.903   9.322   9.069 -0.1008 -0.0406 -0.3126
16955SOL    HW155712   2.951   9.263   9.011  0.2440  1.0193 -1.1370
16955SOL    HW255713   2.941   9.408   9.051  1.3704  0.0446  2.8799
16956SOL     OW55714   5.096   8.632   0.405 -0.4275 -0.4076 -0.1729
16956SOL    HW155715   5.125   8.707   0.458 -0.8639 -0.4728  0.1558
16956SOL    HW255716   5.123   8.555   0.454 -0.4741 -0.4651 -0.2379
16957SOL     OW55717   5.182   0.043   6.761 -0.0804 -0.2906 -0.3744
16957SOL    HW155718   5.115  -0.004   6.713 -1.3158 -0.9749  1.9813
16957SOL    HW255719   5.135   0.089   6.830  1.4985  1.7823 -0.6313
16958SOL     OW55720   4.672   0.442   8.775  0.0594  0.2568 -0.1710
16958SOL    HW155721   4.746   0.457   8.716 -0.1295  1.1437 -0.1979
16958SOL    HW255722   4.597   0.432   8.717  0.4245 -2.5463 -0.2323
16959SOL     OW55723   5.212   9.306   8.048 -0.0258  0.0208 -0.1527
16959SOL    HW155724   5.226   9.371   7.979 -1.5933  1.6316  1.0057
16959SOL    HW255725   5.258   9.342   8.124  1.7247 -1.7655 -0.3368
16960SOL     OW55726   6.436   9.931   8.562 -0.0494  0.1152 -0.0488
16960SOL    HW155727   6.427   9.842   8.597 -0.0116  0.2862  0.3977
16960SOL    HW255728   6.486   9.920   8.482  0.9763 -0.1381  0.6156
16961SOL     OW55729   4.268   0.929   8.653 -0.2371 -0.5894 -0.5764
16961SOL    HW155730   4.231   1.015   8.670  0.3551 -0.6372  0.9708
16961SOL    HW255731   4.299   0.898   8.738  1.4243 -1.4518 -1.4679
16962SOL     OW55732   3.353   9.322   9.748 -0.2143 -0.0827  0.0460
16962SOL    HW155733   3.279   9.265   9.727 -0.8344  1.0121 -0.8454
16962SOL    HW255734   3.323   9.374   9.823 -0.7891  1.1135 -0.9818
16963SOL     OW55735   5.651   9.243   1.340 -0.4240 -0.4261 -0.6181
16963SOL    HW155736   5.609   9.166   1.377  0.9220 -0.6587  0.4600
16963SOL    HW255737   5.656   9.306   1.412 -0.8274  0.3903 -1.2860
16964SOL     OW55738   4.359   0.358   8.472 -0.4989 -0.2869  0.3343
16964SOL    HW155739   4.389   0.432   8.525 -0.4899  1.8179 -2.5146
16964SOL    HW255740   4.266   0.349   8.494 -0.3444  0.1247  1.1918
16965SOL     OW55741   3.729   9.877   8.966  0.1223 -0.0856 -0.4028
16965SOL    HW155742   3.694   9.893   8.878 -0.8339  3.5687  0.5549
16965SOL    HW255743   3.655   9.840   9.014  0.1612 -0.5380 -0.6849
16966SOL     OW55744   4.725   0.642   9.663 -0.4299  0.0633  0.2935
16966SOL    HW155745   4.633   0.668   9.669 -1.0148 -2.2514  2.2653
16966SOL    HW255746   4.748   0.617   9.752  2.0394  0.3357 -0.2419
16967SOL     OW55747   5.037   1.046   8.074  0.2393  0.1189  0.2201
16967SOL    HW155748   4.985   1.116   8.113  0.6143  1.4420 -1.5830
16967SOL    HW255749   5.109   1.033   8.135 -0.6667  0.2271  1.3291
16968SOL     OW55750   6.477   7.531   9.371  0.3567  0.5166  0.0387
16968SOL    HW155751   6.490   7.583   9.450  0.3211  1.3059 -0.4701
16968SOL    HW255752   6.389   7.495   9.381 -0.1221  1.6038 -0.2030
16969SOL     OW55753   4.764   0.865   7.878  0.3072  0.1064 -1.2824
16969SOL    HW155754   4.853   0.892   7.857  0.7274 -0.5964 -0.4057
16969SOL    HW255755   4.726   0.941   7.924  1.3715 -0.6188  0.8495
16970SOL     OW55756   4.548   9.685   9.478  0.2218  0.6052 -0.0288
16970SOL    HW155757   4.470   9.728   9.513 -0.6975 -0.5956 -0.5343
16970SOL    HW255758   4.516   9.600   9.447  1.9552 -0.4175  0.8851
16971SOL     OW55759   4.277   0.186   8.858 -0.1294  0.5041  0.6173
16971SOL    HW155760   4.186   0.216   8.853 -0.4472 -0.3276  1.2949
16971SOL    HW255761   4.285   0.121   8.789 -0.3591 -0.2063  1.2517
16972SOL     OW55762   3.289   9.335   8.099 -0.2370  0.0786 -0.4456
16972SOL    HW155763   3.259   9.272   8.164  2.1272 -0.2488  0.3676
16972SOL    HW255764   3.234   9.411   8.112 -0.6366 -0.4563  1.0898
16973SOL     OW55765   4.766   8.518   9.142  0.1253  0.2035 -0.2375
16973SOL    HW155766   4.686   8.560   9.173  0.7762  0.3422  1.2829
16973SOL    HW255767   4.828   8.589   9.130  1.1045 -0.2377  1.9570
16974SOL     OW55768   3.946   8.666   9.647  0.2963 -0.2150 -0.1333
16974SOL    HW155769   3.955   8.572   9.666  2.5153  0.2000  1.0319
16974SOL    HW255770   3.979   8.675   9.557 -0.6406 -0.6566 -0.5261
16975SOL     OW55771   5.735   9.957   8.188  0.5467 -0.1550 -0.0162
16975SOL    HW155772   5.717  10.039   8.143 -0.1685 -0.9547 -1.2037
16975SOL    HW255773   5.656   9.938   8.238  1.2968  0.6726  1.5254
16976SOL     OW55774   5.571   0.675   7.767  0.0780 -0.8491 -0.0144
16976SOL    HW155775   5.616   0.729   7.701  0.1782  1.0503  1.5734
16976SOL    HW255776   5.480   0.672   7.738  0.1604 -0.1942 -0.3396
16977SOL     OW55777   4.666   9.693   6.322  0.0346  0.2342  0.3151
16977SOL    HW155778   4.588   9.736   6.286 -1.8404 -1.6449  2.0062
16977SOL    HW255779   4.650   9.690   6.416  2.4068  0.2377  0.7505
16978SOL     OW55780   5.366   9.192   0.288  0.2032  0.0280 -0.6787
16978SOL    HW155781   5.275   9.205   0.263  0.2978  0.2632 -0.9056
16978SOL    HW255782   5.364   9.183   0.384 -0.1168 -0.5233 -0.7373
16979SOL     OW55783   3.994   9.960   7.769  0.1225 -0.0418  0.1466
16979SOL    HW155784   4.016   9.991   7.856 -2.4391 -0.0008  0.8302
16979SOL    HW255785   4.006  10.036   7.712  2.9324 -0.3761  0.2220
16980SOL     OW55786   4.248   9.815   9.334  0.1143 -0.2543 -0.0818
16980SOL    HW155787   4.198   9.879   9.284 -0.7352 -0.1742  0.8752
16980SOL    HW255788   4.217   9.730   9.301  0.5887 -0.2018 -0.6964
16981SOL     OW55789   5.436   0.464   9.597 -0.5953  0.0405  0.3764
16981SOL    HW155790   5.433   0.432   9.687 -1.0191 -0.9032  0.0370
16981SOL    HW255791   5.372   0.534   9.594  1.0797  1.6694  1.3957
16982SOL     OW55792   5.788   0.009   9.233 -0.2186  0.2324 -0.2795
16982SOL    HW155793   5.858  -0.054   9.223 -1.6663 -1.2480 -1.4176
16982SOL    HW255794   5.817   0.067   9.303  0.7354 -2.2296  1.4240
16983SOL     OW55795   3.748   0.481   8.938 -0.0091  0.4269  0.0353
16983SOL    HW155796   3.725   0.558   8.990  0.5285 -0.8393  2.2277
16983SOL    HW255797   3.843   0.485   8.929  0.3437 -1.3605  2.4971
16984SOL     OW55798   4.543   9.246   9.062 -0.3597  0.2310  0.2902
16984SOL    HW155799   4.577   9.276   9.147  2.5516  0.1111 -0.7723
16984SOL    HW255800   4.466   9.195   9.084  0.3983  0.1283  2.9014
16985SOL     OW55801   2.815   8.643   1.017 -0.3739  0.0884  0.0493
16985SOL    HW155802   2.877   8.632   1.089  0.1594 -1.5728 -0.6459
16985SOL    HW255803   2.729   8.637   1.059 -0.0787  0.9862  0.8063
16986SOL     OW55804   5.347   0.366   9.129 -0.3898 -0.6271  0.0728
16986SOL    HW155805   5.379   0.276   9.119 -0.9445 -0.8971  0.6595
16986SOL    HW255806   5.309   0.388   9.044  1.0831 -0.4034 -0.5392
16987SOL     OW55807   4.201   0.694   8.368 -0.1950  0.2107 -0.3593
16987SOL    HW155808   4.209   0.759   8.299  0.3649  0.2811 -0.2377
16987SOL    HW255809   4.271   0.716   8.430 -1.3655  0.8164  0.7818
16988SOL     OW55810   4.893   1.012   9.368 -0.2272 -0.4521 -0.0983
16988SOL    HW155811   4.947   0.994   9.291  0.4756 -1.1802  0.5599
16988SOL    HW255812   4.806   0.981   9.343 -0.1782  0.0254 -0.8832
16989SOL     OW55813   6.327   9.459   8.839  0.0655 -0.0951  0.0594
16989SOL    HW155814   6.264   9.523   8.870 -0.0852  0.4516 -1.3687
16989SOL    HW255815   6.311   9.451   8.745  1.3579 -0.7918 -0.1240
16990SOL     OW55816   6.060   0.500   8.891 -0.0519  0.0120  0.2522
16990SOL    HW155817   6.076   0.453   8.808 -0.3152 -0.8185  0.6683
16990SOL    HW255818   6.135   0.559   8.899 -0.0230  0.1010 -0.5831
16991SOL     OW55819   5.089   0.002   9.532 -0.2749 -0.5960  0.7686
16991SOL    HW155820   5.183   0.020   9.527 -0.6356  1.9729  2.2316
16991SOL    HW255821   5.065  -0.026   9.443  1.2879  1.9778 -0.5290
16992SOL     OW55822   6.655   9.756   0.022  0.2169  0.0761 -0.0811
16992SOL    HW155823   6.719   9.773   0.092 -0.3743  0.9653  0.2572
16992SOL    HW255824   6.624   9.668   0.040 -2.4040  1.4899  2.8219
16993SOL     OW55825   5.839   1.505   9.001 -0.2595  0.4805  0.2143
16993SOL    HW155826   5.827   1.421   9.045  1.6950 -0.5731 -1.2358
16993SOL    HW255827   5.763   1.513   8.943  0.5828 -1.2354 -1.1428
16994SOL     OW55828   3.964   0.717   9.148 -0.2846 -0.6574 -0.5365
16994SOL    HW155829   4.022   0.688   9.078 -0.1114 -1.5705 -0.0360
16994SOL    HW255830   3.876   0.693   9.118 -0.1199 -1.9478 -0.0250
16995SOL     OW55831   4.366   9.404   9.856  0.0457  0.0622  0.4777
16995SOL    HW155832   4.362   9.464   9.781 -0.3964  0.4567  0.8103
16995SOL    HW255833   4.423   9.333   9.827  0.0913  0.3448 -0.1385
16996SOL     OW55834   5.150   9.421   9.298  0.2593 -0.1720  0.3103
16996SOL    HW155835   5.180   9.347   9.350  0.2227 -0.3805  0.0339
16996SOL    HW255836   5.221   9.439   9.237  0.2027 -0.0821  0.2678
16997SOL     OW55837   2.192   9.819   9.914  0.3509 -0.1079  0.1640
16997SOL    HW155838   2.208   9.905   9.874  0.4510  0.1660  0.7754
16997SOL    HW255839   2.247   9.819   9.993  0.5614 -0.8465  0.0226
16998SOL     OW55840   5.324   7.954   0.432  0.4992 -0.5923  0.8118
16998SOL    HW155841   5.392   7.920   0.372  0.8547  2.5241 -0.6811
16998SOL    HW255842   5.242   7.931   0.389  0.7436  1.0650 -0.6120
16999SOL     OW55843   5.004   0.267   9.636  0.0426 -0.0566  0.5480
16999SOL    HW155844   4.974   0.354   9.611 -0.7123 -0.7979 -1.2123
16999SOL    HW255845   5.085   0.283   9.685 -0.2797  1.6412  0.5646
17000SOL     OW55846   3.560   0.576   7.958 -0.0676  0.4010 -0.7561
17000SOL    HW155847   3.507   0.645   7.998  0.4863 -1.0248  2.6004
17000SOL    HW255848   3.500   0.529   7.901 -1.8329  0.3318  1.1104
17001SOL     OW55849   3.786   0.353   1.409 -0.0751  0.1967 -0.4213
17001SOL    HW155850   3.775   0.298   1.486 -1.7551  0.8687 -0.1582
17001SOL    HW255851   3.726   0.316   1.344  0.8788  0.0029 -1.2113
17002SOL     OW55852   5.129   9.633   9.625  0.3812 -0.1243  0.1148
17002SOL    HW155853   5.097   9.627   9.535  0.2407 -0.8506  0.2088
17002SOL    HW255854   5.223   9.620   9.619  0.5196  0.9277 -0.0443
17003SOL     OW55855   5.255   0.296   1.114 -0.2775  0.7854 -0.4814
17003SOL    HW155856   5.183   0.327   1.169  0.3142  0.4046  0.5233
17003SOL    HW255857   5.216   0.227   1.060 -1.4065  2.6626 -2.1491
17004SOL     OW55858   4.817   9.418   2.636  0.3174 -0.1696  0.1994
17004SOL    HW155859   4.784   9.507   2.623 -1.9671 -1.0503 -0.3455
17004SOL    HW255860   4.882   9.427   2.706  2.2171  2.3483 -1.7746
17005SOL     OW55861   7.387   9.912   1.604 -0.2771 -0.2407  0.0796
17005SOL    HW155862   7.387   9.999   1.562 -0.7704  0.4530  1.5001
17005SOL    HW255863   7.471   9.874   1.580  0.5180  1.1858  0.5554
17006SOL     OW55864   6.297   0.018   0.752 -0.7467  0.1983 -0.1159
17006SOL    HW155865   6.390   0.034   0.739 -1.1029  1.9721 -0.6438
17006SOL    HW255866   6.293  -0.067   0.797  1.1433  0.5784  0.8101
17007SOL     OW55867   6.846   0.712   1.360 -0.0086  0.0854 -0.7481
17007SOL    HW155868   6.940   0.714   1.375 -0.1864  0.9273  0.2638
17007SOL    HW255869   6.807   0.736   1.444 -1.1694 -1.7955 -0.7007
17008SOL     OW55870   7.366   2.087   9.250 -0.0300 -0.2924 -0.0815
17008SOL    HW155871   7.413   2.120   9.326 -0.7499  0.8914 -0.1264
17008SOL    HW255872   7.283   2.135   9.251 -0.5468 -1.1411 -0.9283
17009SOL     OW55873   6.577   0.359   0.077  0.2718  0.2069 -0.5954
17009SOL    HW155874   6.580   0.409   0.158  0.1997 -0.3156 -0.2708
17009SOL    HW255875   6.665   0.368   0.040  0.3181  0.4061 -0.4371
17010SOL     OW55876   4.680   9.147   1.071 -0.9459  0.2524 -0.1551
17010SOL    HW155877   4.721   9.234   1.068 -3.1319  1.3011 -0.2758
17010SOL    HW255878   4.616   9.153   1.141 -3.2038 -0.3009 -2.1119
17011SOL     OW55879   6.338   0.523   2.209  0.0392 -0.1303  0.6898
17011SOL    HW155880   6.283   0.467   2.155  1.1707  1.6007 -2.3569
17011SOL    HW255881   6.422   0.477   2.214  0.9341  1.2175 -1.7209
17012SOL     OW55882   7.216   9.796   2.150  0.5128 -0.4484 -0.1912
17012SOL    HW155883   7.168   9.738   2.209 -1.2928 -1.3133 -2.4422
17012SOL    HW255884   7.296   9.749   2.129  0.2245 -1.0129 -0.0190
17013SOL     OW55885   6.009   0.023   1.229  0.1359 -0.2112 -0.4061
17013SOL    HW155886   5.982  -0.062   1.263  1.1912 -0.3868  0.0287
17013SOL    HW255887   5.947   0.085   1.265 -1.3194 -0.9360 -1.6252
17014SOL     OW55888   7.497   0.933   0.399  0.0352  0.0244  0.0215
17014SOL    HW155889   7.501   0.999   0.331 -2.2433 -0.4350 -0.6255
17014SOL    HW255890   7.571   0.875   0.382  0.3702  0.7840 -1.1421
17015SOL     OW55891   5.017   2.168   1.555 -0.0192  0.4857  0.4058
17015SOL    HW155892   4.992   2.204   1.470 -1.3952  0.0663  0.6232
17015SOL    HW255893   4.941   2.185   1.611 -0.5349 -2.3710  0.6272
17016SOL     OW55894   6.959   0.852   9.674  0.7912  0.3688  0.1362
17016SOL    HW155895   7.012   0.820   9.602  0.2626 -0.8544  0.2781
17016SOL    HW255896   7.021   0.865   9.746  0.8714 -1.3041  0.3827
17017SOL     OW55897   7.868   2.004   1.992 -0.6136  0.1509 -0.1565
17017SOL    HW155898   7.866   2.099   1.983 -3.7246  0.2528  1.2399
17017SOL    HW255899   7.904   1.989   2.079  0.0959 -0.0029 -0.4651
17018SOL     OW55900   4.193   0.469   1.920 -0.1756  0.5020 -0.0416
17018SOL    HW155901   4.273   0.479   1.867 -1.5775 -0.9766 -2.5434
17018SOL    HW255902   4.147   0.553   1.908  0.5828  1.0390  0.7250
17019SOL     OW55903   5.886   1.642   1.970 -0.2120 -0.3627  0.2530
17019SOL    HW155904   5.841   1.727   1.970 -1.6269 -1.0996  1.0057
17019SOL    HW255905   5.871   1.607   1.883 -2.3974 -1.2666  0.9694
17020SOL     OW55906   6.177   8.749   1.206  0.0154  0.0337 -0.1445
17020SOL    HW155907   6.268   8.731   1.185  0.0541 -0.9620  0.8465
17020SOL    HW255908   6.147   8.806   1.135  0.4970 -2.2029 -2.2008
17021SOL     OW55909   5.667   9.960   1.172  0.0872 -0.7550  0.3768
17021SOL    HW155910   5.573   9.946   1.183  0.0733 -0.5106  0.5682
17021SOL    HW255911   5.705   9.873   1.184 -0.2347 -1.1103 -1.0886
17022SOL     OW55912   8.238   2.831   0.278 -0.8565 -0.2626 -0.6427
17022SOL    HW155913   8.282   2.820   0.193 -0.7500 -0.9898 -0.4959
17022SOL    HW255914   8.151   2.863   0.256 -0.7484 -0.2149 -1.0150
17023SOL     OW55915   5.452   0.655   9.856  0.0150  0.6237 -0.0865
17023SOL    HW155916   5.370   0.653   9.806  0.3307 -1.2847 -0.5768
17023SOL    HW255917   5.425   0.658   9.947 -0.5939  0.8603 -0.2753
17024SOL     OW55918   6.894   0.391   2.260 -0.3386  0.1929 -0.5146
17024SOL    HW155919   6.901   0.318   2.320  2.4235  1.6976  1.0895
17024SOL    HW255920   6.938   0.361   2.180 -2.0132 -1.0021 -0.9965
17025SOL     OW55921   7.536   0.213   0.474  0.2647 -0.7581 -0.3841
17025SOL    HW155922   7.617   0.262   0.490  0.3087 -0.8939 -0.1720
17025SOL    HW255923   7.478   0.238   0.546  0.2952 -1.0275 -0.2633
17026SOL     OW55924   6.734   1.237   9.978  0.0275 -0.1443  0.5449
17026SOL    HW155925   6.668   1.257  10.044 -1.4217  1.2548 -1.2779
17026SOL    HW255926   6.744   1.142   9.983 -1.2144 -0.2280  1.7096
17027SOL     OW55927   6.472   0.073   1.465  0.2382  0.5139  0.6044
17027SOL    HW155928   6.436   0.124   1.537 -0.1382 -0.4663  1.1175
17027SOL    HW255929   6.403   0.072   1.399 -0.4458 -0.8381  1.3311
17028SOL     OW55930   6.609   1.428   1.124 -0.4909  0.8525  0.2630
17028SOL    HW155931   6.663   1.393   1.052 -0.2110  1.6016  0.0981
17028SOL    HW255932   6.542   1.480   1.080  0.0617  1.8347  0.5635
17029SOL     OW55933   6.797   0.225   0.390  0.5999  0.5179 -0.7537
17029SOL    HW155934   6.772   0.317   0.386  2.3565  1.0245 -0.7689
17029SOL    HW255935   6.744   0.187   0.459 -0.6822  1.3666 -1.2667
17030SOL     OW55936   5.522   0.410   1.222  0.1180 -0.0154  0.0667
17030SOL    HW155937   5.458   0.421   1.152  1.7105 -0.6168 -1.5224
17030SOL    HW255938   5.503   0.323   1.258 -1.2884  0.6730  0.9950
17031SOL     OW55939   6.883   1.393   0.968 -0.1227 -0.1346  0.3707
17031SOL    HW155940   6.889   1.384   1.063 -1.1700  0.7709  0.5210
17031SOL    HW255941   6.928   1.315   0.935 -0.1330 -0.6825  1.6041
17032SOL     OW55942   6.349   2.021   1.093  0.2382 -0.2992  0.1618
17032SOL    HW155943   6.349   1.926   1.088  1.4304 -0.2509 -1.1593
17032SOL    HW255944   6.440   2.044   1.110  0.1193  0.6397 -0.4391
17033SOL     OW55945   5.168   0.704   2.510 -0.0563 -0.3383 -0.0354
17033SOL    HW155946   5.093   0.653   2.481  0.5407 -1.5463  0.4723
17033SOL    HW255947   5.152   0.792   2.478 -1.0630 -0.8754 -1.0361
17034SOL     OW55948   5.871   2.732   1.316  0.5493  0.2004  0.1995
17034SOL    HW155949   5.818   2.729   1.236  0.0074 -0.2786  0.5763
17034SOL    HW255950   5.828   2.671   1.376  1.6859 -0.3879  0.4175
17035SOL     OW55951   8.067   0.875   8.169 -0.0954  0.4048  0.4777
17035SOL    HW155952   8.017   0.941   8.216  0.7285 -0.4960  2.7239
17035SOL    HW255953   8.043   0.792   8.211  0.3139 -0.4957 -1.0151
17036SOL     OW55954   7.081   1.219   0.683 -0.0775 -0.2863  0.1321
17036SOL    HW155955   7.008   1.180   0.732  0.2295 -0.5115  0.4069
17036SOL    HW255956   7.150   1.231   0.748 -0.4468  1.4500  0.2221
17037SOL     OW55957   6.313   0.351   1.440  0.2150  0.5054  0.1411
17037SOL    HW155958   6.260   0.390   1.511  0.8233  1.4551  0.0900
17037SOL    HW255959   6.398   0.333   1.481 -0.2192 -1.2399  0.2853
17038SOL     OW55960   6.584   2.196   0.067 -0.5580 -0.6645 -0.6580
17038SOL    HW155961   6.616   2.113   0.103  1.0798 -0.5801 -1.8378
17038SOL    HW255962   6.553   2.245   0.143 -0.0592 -1.7377  0.2483
17039SOL     OW55963   6.001   8.502   1.211 -0.4471  0.3149 -0.8897
17039SOL    HW155964   5.988   8.597   1.201 -2.1810  0.2546  0.4613
17039SOL    HW255965   6.085   8.494   1.256  0.0406  1.1870 -1.6265
17040SOL     OW55966   5.030   8.651   1.656  0.2133 -0.2310  0.0255
17040SOL    HW155967   5.001   8.724   1.710 -0.0422 -0.4614  0.2043
17040SOL    HW255968   4.990   8.667   1.570  0.2639 -0.0915  0.0282
17041SOL     OW55969   7.598   9.891   0.430 -0.1707 -0.3879  0.0006
17041SOL    HW155970   7.532   9.918   0.494  1.8117  0.4960  1.7547
17041SOL    HW255971   7.672   9.950   0.446  0.2874  0.0485 -3.3537
17042SOL     OW55972   5.815   0.487   9.456 -0.5448 -0.0052  0.1375
17042SOL    HW155973   5.782   0.556   9.513 -1.3243 -0.5085  0.3006
17042SOL    HW255974   5.891   0.526   9.413 -1.5951  1.3136 -0.5727
17043SOL     OW55975   6.545   2.294   2.361  0.2026 -0.3679 -0.3296
17043SOL    HW155976   6.512   2.224   2.305  0.2382  0.5285 -1.4808
17043SOL    HW255977   6.545   2.372   2.305  0.4327  0.4946  0.8524
17044SOL     OW55978   6.939   9.303   0.237 -0.0601 -0.0927 -0.3294
17044SOL    HW155979   6.925   9.350   0.155  1.9701 -1.3991 -1.4826
17044SOL    HW255980   6.870   9.237   0.239 -2.0420  1.9464  0.5954
17045SOL     OW55981   6.688   1.572   1.346 -0.2863  0.0123 -0.1891
17045SOL    HW155982   6.773   1.531   1.356  0.7203  1.6992 -1.5654
17045SOL    HW255983   6.650   1.531   1.268 -0.4518 -0.2593  0.0335
17046SOL     OW55984   5.663   1.341   0.679 -0.0345 -0.1990 -0.2529
17046SOL    HW155985   5.742   1.391   0.657  0.7399 -2.2335 -2.3587
17046SOL    HW255986   5.693   1.274   0.740 -0.1871 -0.7079 -0.7276
17047SOL     OW55987   6.660   2.086   0.698  0.5053  0.4247  0.3241
17047SOL    HW155988   6.742   2.087   0.648  1.5791  2.9927  2.0040
17047SOL    HW255989   6.687   2.073   0.789 -1.0471  0.1142  0.7581
17048SOL     OW55990   5.023   1.574   1.199 -0.2124 -0.2031 -0.3304
17048SOL    HW155991   5.057   1.637   1.136 -1.2799 -0.3238 -1.0500
17048SOL    HW255992   4.981   1.627   1.266 -0.1559 -0.1108 -0.3676
17049SOL     OW55993   6.865   2.827   0.389 -0.1296 -0.3790 -0.1369
17049SOL    HW155994   6.832   2.767   0.322  1.2754  0.7558 -1.8747
17049SOL    HW255995   6.873   2.911   0.344  2.6368 -0.0291  0.9301
17050SOL     OW55996   5.793   0.832   0.051 -0.6641  0.2691 -0.5997
17050SOL    HW155997   5.794   0.756  -0.008 -2.0032  0.1455 -0.4761
17050SOL    HW255998   5.713   0.879   0.028  0.3632  1.8717 -0.9403
17051SOL     OW55999   8.211   8.288   1.152  0.0828  0.6521  0.2659
17051SOL    HW156000   8.298   8.249   1.162  0.6608  1.2392 -2.2441
17051SOL    HW256001   8.151   8.216   1.168  1.0782 -0.3070 -0.2355
17052SOL     OW56002   5.090   0.707   3.016  0.1468 -0.1937  0.0388
17052SOL    HW156003   5.119   0.721   2.926 -1.3520 -0.3115 -0.4860
17052SOL    HW256004   5.048   0.621   3.014  0.2484 -0.2627  0.8864
17053SOL     OW56005   5.343   0.824   0.405  0.0699  0.3617 -0.6990
17053SOL    HW156006   5.432   0.846   0.377  0.8072  0.1512  1.4196
17053SOL    HW256007   5.335   0.730   0.387  2.5182 -1.0792  4.6849
17054SOL     OW56008   6.113   9.972   3.151  0.2892  0.3911  0.1652
17054SOL    HW156009   6.170   9.895   3.154 -0.7538 -0.4852 -1.5552
17054SOL    HW256010   6.164  10.037   3.102  0.6404  0.3362  0.4569
17055SOL     OW56011   6.342   0.413   9.896 -0.2852  0.0015 -0.6840
17055SOL    HW156012   6.426   0.402   9.941 -0.6303  1.4431  0.3406
17055SOL    HW256013   6.365   0.450   9.811  0.2539 -1.4614 -1.2034
17056SOL     OW56014   6.254   1.394   9.269  0.2290 -0.3233  0.5006
17056SOL    HW156015   6.167   1.404   9.231 -0.1032 -1.5711  0.8880
17056SOL    HW256016   6.238   1.363   9.358  1.0543  0.0576  0.7862
17057SOL     OW56017   7.030   1.214   0.204  0.5022 -0.2955 -0.3145
17057SOL    HW156018   7.016   1.169   0.120 -2.0807 -2.3347  1.1386
17057SOL    HW256019   6.991   1.301   0.190 -0.7742 -0.9447 -0.9552
17058SOL     OW56020   7.410   2.801   3.373  0.4939  0.0787  0.5249
17058SOL    HW156021   7.346   2.865   3.344  0.6570 -0.4363 -1.0300
17058SOL    HW256022   7.491   2.852   3.385  0.6463  0.1514 -0.7829
17059SOL     OW56023   6.233   1.693   0.498  0.2007 -0.1086  0.0395
17059SOL    HW156024   6.306   1.698   0.560  0.4725 -1.0439 -0.1973
17059SOL    HW256025   6.268   1.730   0.417  0.2914 -0.1998  0.0368
17060SOL     OW56026   6.512   1.439   9.569 -0.3807  0.0995 -0.0532
17060SOL    HW156027   6.449   1.387   9.520 -1.8675 -0.3216  2.2371
17060SOL    HW256028   6.480   1.529   9.563 -0.3365  0.1067 -0.1856
17061SOL     OW56029   7.578   1.089   1.422 -0.3011 -0.5168  0.1266
17061SOL    HW156030   7.486   1.103   1.445 -0.8834 -1.1223 -1.7391
17061SOL    HW256031   7.612   1.032   1.490 -1.0735  0.4161  1.3014
17062SOL     OW56032   6.847   0.417   0.684  0.1396 -0.0102 -0.8979
17062SOL    HW156033   6.853   0.322   0.693 -1.0392 -0.2080 -2.0446
17062SOL    HW256034   6.866   0.451   0.771  0.1018 -1.3211 -0.3682
17063SOL     OW56035   6.591   1.455   1.606  0.1320 -0.1147  0.1395
17063SOL    HW156036   6.647   1.426   1.534  1.3965  0.4460  0.8812
17063SOL    HW256037   6.587   1.550   1.596 -1.7958 -0.2476 -0.6873
17064SOL     OW56038   6.697   2.223   1.580 -0.0660 -0.2969 -0.2602
17064SOL    HW156039   6.747   2.145   1.556  0.0549 -0.2876 -0.0389
17064SOL    HW256040   6.616   2.217   1.529 -0.2011 -0.7289  0.0116
17065SOL     OW56041   7.066   0.720   2.127 -0.0192 -0.4609  0.3037
17065SOL    HW156042   6.986   0.674   2.103  1.0184 -0.7480 -2.7769
17065SOL    HW256043   7.133   0.651   2.132  0.8678  0.2613 -1.1933
17066SOL     OW56044   6.023   9.738   2.175  0.3149  0.7904  0.7654
17066SOL    HW156045   5.936   9.768   2.146  0.6985  1.8652  0.6863
17066SOL    HW256046   6.080   9.814   2.160  1.4909 -0.2681 -0.2159
17067SOL     OW56047   7.435   1.458   0.437 -0.0180 -0.6357 -0.3487
17067SOL    HW156048   7.518   1.466   0.485 -0.8403 -0.1999  1.0458
17067SOL    HW256049   7.425   1.364   0.422  0.3339 -0.7640  0.2038
17068SOL     OW56050   7.093   2.271   0.490  0.3655 -0.0114  0.1908
17068SOL    HW156051   7.073   2.187   0.531  2.2226 -1.0755 -0.9972
17068SOL    HW256052   7.024   2.282   0.424  1.2332 -1.6209 -1.0406
17069SOL     OW56053   5.994   0.433   8.138  0.2800 -0.0495 -0.1150
17069SOL    HW156054   5.984   0.528   8.141  0.7762  0.0083 -0.1279
17069SOL    HW256055   6.042   0.417   8.056  0.3751 -0.2917 -0.0136
17070SOL     OW56056   6.999   0.228   1.766  0.2925 -0.4760  0.3238
17070SOL    HW156057   6.943   0.287   1.717 -1.3432 -0.9332  1.5685
17070SOL    HW256058   7.078   0.278   1.785  0.6835 -0.1021 -2.1916
17071SOL     OW56059   7.845   1.261   9.387 -0.0203  0.3183 -0.4118
17071SOL    HW156060   7.774   1.297   9.334 -0.0824 -0.0681 -0.5931
17071SOL    HW256061   7.801   1.203   9.449  0.0692  0.6303 -0.0507
17072SOL     OW56062   6.279   1.254   0.195  0.0401 -0.4409  0.0527
17072SOL    HW156063   6.310   1.329   0.145 -1.0719  0.8187  1.2021
17072SOL    HW256064   6.318   1.265   0.282 -0.2999 -1.0668  0.2887
17073SOL     OW56065   5.515   8.565   1.714  0.4356 -0.2122 -0.3925
17073SOL    HW156066   5.529   8.612   1.795  1.5448  0.1628 -0.7936
17073SOL    HW256067   5.421   8.546   1.712  0.6278 -1.4834  1.6558
17074SOL     OW56068   7.121   9.159   0.387 -0.3945 -0.2260  0.3162
17074SOL    HW156069   7.078   9.230   0.340 -1.0634 -0.6093  0.3401
17074SOL    HW256070   7.050   9.111   0.429 -0.0287 -1.3011 -0.2467
17075SOL     OW56071   6.495   1.234   1.296 -0.4034  1.1383 -0.0676
17075SOL    HW156072   6.571   1.193   1.339 -1.8549 -0.3582  1.1398
17075SOL    HW256073   6.533   1.305   1.245  1.6237  1.7670  2.1789
17076SOL     OW56074   5.419   9.549   0.544  0.6400 -0.3092  0.2882
17076SOL    HW156075   5.364   9.577   0.471  0.6608 -0.5490  0.1799
17076SOL    HW256076   5.376   9.471   0.578  0.5954 -0.1589  0.5728
17077SOL     OW56077   7.111   1.672   0.133  0.4782 -0.0661 -0.0821
17077SOL    HW156078   7.041   1.707   0.079  2.3351  2.8083 -0.7683
17077SOL    HW256079   7.086   1.695   0.222 -0.0403 -0.1104 -0.2161
17078SOL     OW56080   6.636   0.393   1.056  0.2365 -0.3251  0.3130
17078SOL    HW156081   6.543   0.371   1.045  0.0130  0.1307  1.2988
17078SOL    HW256082   6.677   0.309   1.079  0.1209 -0.5876 -0.4300
17079SOL     OW56083   7.163   0.394   1.013  0.3981 -0.6975 -0.0825
17079SOL    HW156084   7.115   0.333   0.957 -1.1244  0.6952 -0.3333
17079SOL    HW256085   7.239   0.419   0.961 -0.0975 -0.7425 -0.8401
17080SOL     OW56086   6.188   1.976   0.725  0.0559  0.2138  0.0463
17080SOL    HW156087   6.208   1.896   0.774  3.5059  0.8798 -0.1147
17080SOL    HW256088   6.124   2.022   0.779  0.3111 -1.2326  1.6414
17081SOL     OW56089   6.555   0.336   1.603 -0.1551 -0.2514 -0.0284
17081SOL    HW156090   6.581   0.422   1.637 -2.0977  0.5735 -0.5628
17081SOL    HW256091   6.537   0.284   1.681  1.1337 -0.2190  0.3006
17082SOL     OW56092   6.493   2.433   1.274 -0.5660 -0.3666  0.1345
17082SOL    HW156093   6.423   2.377   1.241 -0.6497  1.4044 -2.8101
17082SOL    HW256094   6.572   2.379   1.267 -1.1239 -1.2410  0.4431
17083SOL     OW56095   5.426   0.001   0.067 -0.0507  0.6276 -0.4558
17083SOL    HW156096   5.435  -0.004   0.162 -2.2781 -0.1117 -0.2377
17083SOL    HW256097   5.416  -0.091   0.039  0.8487  0.8168 -1.4309
17084SOL     OW56098   6.004   0.426   0.074 -0.5043  0.4381  0.5914
17084SOL    HW156099   5.930   0.366   0.064 -0.3852  0.1498  1.3849
17084SOL    HW256100   6.067   0.399   0.008 -0.4490 -0.3238  0.9529
17085SOL     OW56101   6.560   1.842   0.649  0.4096  0.4802  0.1989
17085SOL    HW156102   6.544   1.913   0.711 -0.8489 -0.2040  0.6649
17085SOL    HW256103   6.497   1.774   0.673 -0.0301  0.1700 -1.7561
17086SOL     OW56104   6.300   1.025   2.043 -0.4084  0.7366  0.1960
17086SOL    HW156105   6.335   0.964   1.978  3.3030  1.0805  1.7757
17086SOL    HW256106   6.248   0.970   2.101 -1.3057 -0.0518 -1.3129
17087SOL     OW56107   6.380   9.888   9.061  0.4089 -0.0570 -0.1591
17087SOL    HW156108   6.393   9.811   9.116  0.9027 -0.0601 -0.2731
17087SOL    HW256109   6.466   9.904   9.022 -0.1735 -0.6728 -1.7400
17088SOL     OW56110   5.795   1.158   1.944  0.0169  0.7557 -0.3370
17088SOL    HW156111   5.759   1.233   1.896  0.4372 -0.0831 -1.9851
17088SOL    HW256112   5.784   1.084   1.885 -2.2250 -0.9146  2.0584
17089SOL     OW56113   4.695   0.867   0.069 -0.1216  0.7056  0.3969
17089SOL    HW156114   4.717   0.941   0.012  1.2460 -0.5091 -0.6759
17089SOL    HW256115   4.778   0.840   0.107 -0.6074 -0.3111  0.7556
17090SOL     OW56116   5.915   0.243   0.306  0.1450  0.2139 -0.2351
17090SOL    HW156117   5.857   0.170   0.285 -0.8731  0.5079  1.5120
17090SOL    HW256118   5.857   0.314   0.333  1.2979  0.5505  1.4470
17091SOL     OW56119   6.295   9.212   1.643  0.8039 -0.3991 -0.2173
17091SOL    HW156120   6.343   9.129   1.644  2.9036  0.7920 -0.2518
17091SOL    HW256121   6.268   9.225   1.734  3.4099  0.5211  0.4637
17092SOL     OW56122   4.756   0.073   9.479 -0.8164 -0.6392  0.3451
17092SOL    HW156123   4.725   0.128   9.407  0.0272 -1.9450 -1.0518
17092SOL    HW256124   4.686   0.008   9.491 -0.4916 -1.0543 -0.0028
17093SOL     OW56125   6.091   0.300   1.118  0.3241 -0.0812 -0.0643
17093SOL    HW156126   6.000   0.307   1.088 -0.0662  0.6445  1.2457
17093SOL    HW256127   6.089   0.230   1.183  1.1384 -1.5587 -1.5983
17094SOL     OW56128   6.950   9.180   0.621 -0.2140  0.0691  0.3012
17094SOL    HW156129   6.988   9.267   0.611 -1.3524  0.6872  1.2434
17094SOL    HW256130   7.017   9.129   0.666  0.2082  0.6279  0.3039
17095SOL     OW56131   6.531   1.594   9.887  0.1052 -0.3378 -0.0776
17095SOL    HW156132   6.520   1.673   9.834 -1.0580 -2.2330 -2.8000
17095SOL    HW256133   6.601   1.546   9.844  0.9999 -0.6894  1.7337
17096SOL     OW56134   7.308   1.395   9.399 -0.2980  0.2873 -0.5311
17096SOL    HW156135   7.350   1.315   9.432 -0.1651  0.7001  0.3246
17096SOL    HW256136   7.215   1.372   9.394 -0.4174  0.4235  0.8071
17097SOL     OW56137   7.431   1.389   1.300  0.1715 -0.3758 -0.5402
17097SOL    HW156138   7.400   1.300   1.281  2.0640 -1.0784 -0.4131
17097SOL    HW256139   7.460   1.385   1.391 -0.0987  0.4955 -0.4096
17098SOL     OW56140   5.777   0.155   1.329  0.2075  1.0561 -0.5159
17098SOL    HW156141   5.727   0.078   1.300  2.4123 -0.3518 -0.6825
17098SOL    HW256142   5.768   0.155   1.424 -2.0867  2.2335 -0.6912
17099SOL     OW56143   8.666   1.688   2.481  0.1868 -0.0786 -0.1036
17099SOL    HW156144   8.629   1.600   2.472  1.7950 -0.5184 -3.1148
17099SOL    HW256145   8.592   1.747   2.465 -0.1609 -0.9339 -1.8242
17100SOL     OW56146   7.144   0.882   2.416  0.1267  0.0644  0.5808
17100SOL    HW156147   7.107   0.806   2.461 -0.6003 -0.0657 -0.2380
17100SOL    HW256148   7.081   0.953   2.433  0.9532  0.5694  1.5979
17101SOL     OW56149   6.908   9.578   2.231 -0.4860  0.0809  0.8688
17101SOL    HW156150   6.816   9.553   2.224 -1.5451  4.3080 -1.8701
17101SOL    HW256151   6.910   9.644   2.299  0.8279 -1.1373  2.0321
17102SOL     OW56152   6.323   9.406   1.390  0.6173  0.1306 -0.1407
17102SOL    HW156153   6.412   9.375   1.404  0.3474 -0.0691  1.2581
17102SOL    HW256154   6.268   9.341   1.434 -0.4234 -1.2685 -3.3484
17103SOL     OW56155   5.942   0.954   1.088 -0.3787  0.6430 -0.1962
17103SOL    HW156156   5.858   0.979   1.050 -0.7473  0.8920  0.7724
17103SOL    HW256157   5.976   0.887   1.029 -2.8713 -2.0491  1.2597
17104SOL     OW56158   7.340   0.174   0.283 -0.4235 -0.2717 -0.2493
17104SOL    HW156159   7.258   0.172   0.332 -0.7269 -0.3560 -0.7569
17104SOL    HW256160   7.408   0.185   0.349 -0.9987  1.9989 -0.0307
17105SOL     OW56161   7.430   0.012   0.681 -0.2612  0.7405  0.4360
17105SOL    HW156162   7.340  -0.006   0.652 -0.0314 -1.7268  1.1889
17105SOL    HW256163   7.429   0.105   0.704 -2.3655  0.9758 -0.4658
17106SOL     OW56164   5.100   1.486   0.416  0.0823  0.6445 -0.2617
17106SOL    HW156165   5.026   1.545   0.432 -0.6400  0.3280 -2.2401
17106SOL    HW256166   5.063   1.399   0.424  0.9913  0.4416  1.9484
17107SOL     OW56167   7.577   1.391   1.547  0.6905  0.3655 -0.4038
17107SOL    HW156168   7.528   1.355   1.621  1.2830 -0.6755 -0.4984
17107SOL    HW256169   7.668   1.389   1.575  0.9179 -0.0143 -1.1451
17108SOL     OW56170   7.695   0.727   1.539  0.1185 -0.3799 -0.0809
17108SOL    HW156171   7.785   0.715   1.509  0.7151  0.0393  1.4398
17108SOL    HW256172   7.695   0.815   1.577 -0.4444 -1.0627  1.5597
17109SOL     OW56173   6.583   9.824   9.766 -0.5006  0.2193  0.2630
17109SOL    HW156174   6.613   9.817   9.856 -0.4020 -0.7072  0.1642
17109SOL    HW256175   6.628   9.901   9.731 -0.3636  0.4420  0.9316
17110SOL     OW56176   7.255   9.820   9.992 -0.0024 -0.0349  0.0093
17110SOL    HW156177   7.276   9.913  10.000 -0.1937 -0.0069  0.1714
17110SOL    HW256178   7.323   9.785   9.934 -0.1406  0.2777 -0.3409
17111SOL     OW56179   6.994   0.342   1.217  0.3035 -0.3817 -0.1240
17111SOL    HW156180   7.018   0.412   1.278 -1.3963 -0.2963  0.4810
17111SOL    HW256181   7.066   0.338   1.155  0.9116  1.1900  0.4607
17112SOL     OW56182   7.058   0.999   2.145 -0.6244 -0.3276 -0.4230
17112SOL    HW156183   6.994   1.034   2.082  0.0020  0.6405 -0.5333
17112SOL    HW256184   7.048   0.904   2.139 -0.8220 -0.2364 -1.7370
17113SOL     OW56185   6.741   1.019   2.332 -0.1902  0.5691  0.0781
17113SOL    HW156186   6.745   0.947   2.268  1.0361 -0.2691  1.0795
17113SOL    HW256187   6.649   1.024   2.356 -0.2916 -0.6984  0.0079
17114SOL     OW56188   4.065   0.672   3.102  0.2098  0.6093 -0.1707
17114SOL    HW156189   4.104   0.717   3.178 -3.2330  1.4382  1.2045
17114SOL    HW256190   4.082   0.579   3.118  2.2360  0.9784 -0.0165
17115SOL     OW56191   7.216   9.321   0.022 -0.7890 -0.6016 -0.1017
17115SOL    HW156192   7.141   9.380   0.012 -1.4170 -1.3318  0.2718
17115SOL    HW256193   7.180   9.243   0.065  0.3059 -0.6972  0.6617
17116SOL     OW56194   5.577   1.437   1.356  0.2492 -0.7362 -0.4773
17116SOL    HW156195   5.503   1.379   1.343 -0.7323  0.6071 -0.9587
17116SOL    HW256196   5.639   1.413   1.287  1.1296 -3.1849  1.1214
17117SOL     OW56197   5.474   1.402   0.483 -0.0785 -0.2777  0.2126
17117SOL    HW156198   5.531   1.383   0.556 -0.6316  0.6232  0.8942
17117SOL    HW256199   5.407   1.334   0.486 -0.9716  0.6337  1.4821
17118SOL     OW56200   6.295   9.434   1.116  0.0241  0.6269  0.1753
17118SOL    HW156201   6.243   9.515   1.114 -0.2243  0.4587 -0.7619
17118SOL    HW256202   6.290   9.404   1.206 -0.4569  1.2956  0.3753
17119SOL     OW56203   5.908   8.809   1.650 -0.1195 -0.7700 -0.1042
17119SOL    HW156204   5.957   8.869   1.595 -1.8724 -0.9674 -1.9647
17119SOL    HW256205   5.921   8.841   1.739  0.6370  1.1356 -0.8805
17120SOL     OW56206   6.170   0.832   2.179 -0.0930 -0.2037 -0.0583
17120SOL    HW156207   6.156   0.758   2.119 -1.1529  2.0940 -2.7466
17120SOL    HW256208   6.087   0.878   2.180  1.3112  2.4114 -0.4480
17121SOL     OW56209   6.501   9.715   0.692  0.0072 -0.0261  0.2441
17121SOL    HW156210   6.533   9.625   0.697 -0.6666 -0.3458 -1.1008
17121SOL    HW256211   6.451   9.719   0.610  1.3168  1.9850 -0.4832
17122SOL     OW56212   5.947   2.286   0.641  0.4416 -0.2676  0.1636
17122SOL    HW156213   5.871   2.244   0.681  0.7673  0.9897  2.1563
17122SOL    HW256214   5.936   2.270   0.547 -1.0096 -2.1562  0.6210
17123SOL     OW56215   4.719   9.927   2.782  0.8520  0.3321  0.3765
17123SOL    HW156216   4.739  10.016   2.812  0.5873 -0.2601  2.4114
17123SOL    HW256217   4.661   9.892   2.849  0.1689 -1.0509 -0.9087
17124SOL     OW56218   6.487   7.759   0.470  0.2872  0.4422 -0.0099
17124SOL    HW156219   6.554   7.818   0.434  1.0899 -0.5367 -0.1251
17124SOL    HW256220   6.528   7.721   0.548  0.0756 -0.5973 -0.4027
17125SOL     OW56221   5.620   0.078   2.110  0.3251 -0.5102  0.2577
17125SOL    HW156222   5.568   0.154   2.133  0.1112 -0.1417 -1.3763
17125SOL    HW256223   5.659   0.049   2.193 -0.0982  0.9810  0.9872
17126SOL     OW56224   8.371   2.000   1.473  0.2402 -0.1946  0.7490
17126SOL    HW156225   8.344   1.949   1.397 -0.4379  0.6742  0.3918
17126SOL    HW256226   8.385   2.088   1.438  2.5043 -0.3803  1.1353
17127SOL     OW56227   6.968   9.692   8.848 -0.2133 -0.8019  0.1626
17127SOL    HW156228   6.950   9.754   8.919  1.9882  0.4306 -0.2900
17127SOL    HW256229   6.891   9.697   8.792 -0.3448  1.0737  0.4774
17128SOL     OW56230   6.420   1.294   0.912 -0.1648  0.0940 -0.6594
17128SOL    HW156231   6.423   1.380   0.952 -0.9965 -0.6821  1.1220
17128SOL    HW256232   6.351   1.300   0.845 -1.9753  0.1129  1.1768
17129SOL     OW56233   5.795   0.200   1.600  0.1260 -0.5815  0.3759
17129SOL    HW156234   5.729   0.211   1.668  2.3625  0.8324  2.4001
17129SOL    HW256235   5.865   0.150   1.642  0.3377 -2.2133 -1.7774
17130SOL     OW56236   6.459   2.850   0.503  0.5132  0.3585 -0.1109
17130SOL    HW156237   6.386   2.792   0.526  0.2768  0.6439 -0.1492
17130SOL    HW256238   6.480   2.827   0.413  0.0885  0.6824 -0.2946
17131SOL     OW56239   6.000   9.323   1.664 -0.2697  0.1831  0.0728
17131SOL    HW156240   6.016   9.257   1.597  1.3410 -0.8198  1.3835
17131SOL    HW256241   6.075   9.383   1.657  0.8352 -0.8976  2.0453
17132SOL     OW56242   5.174   0.180   3.511  1.0304 -0.7006  0.0420
17132SOL    HW156243   5.099   0.137   3.550 -0.9576  0.9084 -1.8194
17132SOL    HW256244   5.190   0.256   3.567 -1.1955  1.0627 -1.6154
17133SOL     OW56245   4.931   0.356   0.009  0.5855 -0.5515  0.6413
17133SOL    HW156246   4.922   0.261   0.020 -0.7107 -0.4978  0.1443
17133SOL    HW256247   4.908   0.392   0.094  0.3158 -0.6455  0.6097
17134SOL     OW56248   6.264   9.497   1.874  0.3771  0.1844 -0.0765
17134SOL    HW156249   6.173   9.493   1.905  0.2234  0.2490 -0.5134
17134SOL    HW256250   6.277   9.588   1.850  0.0144 -0.1473 -1.6157
17135SOL     OW56251   5.848   2.916   1.935 -0.2488 -0.7211 -0.1077
17135SOL    HW156252   5.870   2.834   1.890  0.3114  1.0635 -3.2723
17135SOL    HW256253   5.912   2.979   1.903 -1.8670  1.4413  0.7333
17136SOL     OW56254   6.283   3.061   0.958 -0.1160  0.0464  0.3353
17136SOL    HW156255   6.279   3.029   0.868 -0.6379 -0.1070  0.4073
17136SOL    HW256256   6.376   3.073   0.976  0.0135 -0.3058 -0.0922
17137SOL     OW56257   5.843   2.386   1.634 -0.0610 -0.2526  0.2008
17137SOL    HW156258   5.856   2.308   1.579 -0.8262  0.0531 -0.4245
17137SOL    HW256259   5.931   2.412   1.660  0.2315 -1.0893  0.0767
17138SOL     OW56260   5.526   1.792   0.494 -0.0170  0.1304 -0.0164
17138SOL    HW156261   5.487   1.724   0.439 -1.1589 -1.0542  2.1737
17138SOL    HW256262   5.584   1.745   0.554 -0.1141  1.1840  0.9273
17139SOL     OW56263   7.052   0.442   8.921 -0.1504 -0.2836  0.2751
17139SOL    HW156264   7.048   0.349   8.942  1.1111 -0.3488  0.2224
17139SOL    HW256265   7.134   0.453   8.873  0.3845  1.0828  1.4572
17140SOL     OW56266   8.023   9.774   2.212 -0.7642 -0.0970  0.4720
17140SOL    HW156267   8.001   9.795   2.122 -0.0390  1.4080  0.6225
17140SOL    HW256268   8.106   9.726   2.206 -0.8454 -0.2127  0.3089
17141SOL     OW56269   6.632   1.840   2.336  0.5076  0.2749 -0.8259
17141SOL    HW156270   6.713   1.885   2.359 -0.2329  1.0837  0.3191
17141SOL    HW256271   6.638   1.754   2.378 -0.0092  1.0318  0.8655
17142SOL     OW56272   6.845   0.504   0.444  0.6664  0.3848  0.2720
17142SOL    HW156273   6.834   0.459   0.528  2.0982  0.6904  0.6351
17142SOL    HW256274   6.877   0.591   0.467 -0.5346  1.0396 -0.5176
17143SOL     OW56275   7.069   0.138   0.917 -0.5259  0.1543  0.3907
17143SOL    HW156276   6.978   0.165   0.928 -1.0367 -1.0124 -0.8907
17143SOL    HW256277   7.065   0.045   0.895  0.8355  0.5558 -1.7416
17144SOL     OW56278   7.230   2.936   0.942 -0.1287 -0.0843  0.0993
17144SOL    HW156279   7.221   2.842   0.960  1.1515 -0.4467 -1.0133
17144SOL    HW256280   7.232   2.942   0.847 -2.0559  1.2869  0.1278
17145SOL     OW56281   7.517   1.711   0.355  0.1548 -0.0657  0.3208
17145SOL    HW156282   7.590   1.650   0.364 -0.0916 -0.5198 -0.7777
17145SOL    HW256283   7.439   1.658   0.368  0.0177  0.4929  1.8899
17146SOL     OW56284   5.113   9.893   9.280 -0.2516 -0.2650 -0.2510
17146SOL    HW156285   5.202   9.901   9.314 -0.7033 -0.3820  0.9587
17146SOL    HW256286   5.087   9.804   9.303 -0.2803 -0.6264 -1.6012
17147SOL     OW56287   5.080   0.854   0.271 -0.1370 -0.1830 -0.8506
17147SOL    HW156288   5.069   0.924   0.207 -0.6652  0.1355 -0.4176
17147SOL    HW256289   5.172   0.860   0.297  0.4218 -1.1447 -2.5180
17148SOL     OW56290   7.202   9.451   0.930  0.2500 -0.5548 -0.3274
17148SOL    HW156291   7.261   9.406   0.870  1.9763  1.3285 -0.0848
17148SOL    HW256292   7.250   9.455   1.013 -0.2029  0.9618 -0.1116
17149SOL     OW56293   6.341   0.506   0.279  0.7341  0.1943  0.0706
17149SOL    HW156294   6.432   0.502   0.308  0.9618  0.2935 -0.6261
17149SOL    HW256295   6.301   0.426   0.315  1.4285 -0.5236 -0.7201
17150SOL     OW56296   6.654   3.069   8.685 -1.3156 -1.0319  0.5976
17150SOL    HW156297   6.727   3.007   8.688 -0.5833 -0.1119  2.2189
17150SOL    HW256298   6.630   3.074   8.593  0.5701 -1.4664  0.0760
17151SOL     OW56299   5.980   0.913   1.571 -0.0479  0.3141  0.5330
17151SOL    HW156300   5.959   0.903   1.478  1.0488  0.6814  0.2473
17151SOL    HW256301   6.000   0.824   1.601 -1.2455  0.0649  0.6370
17152SOL     OW56302   7.811   0.205   1.060 -0.0127  0.0231  0.3118
17152SOL    HW156303   7.805   0.236   0.970 -1.4841 -0.2166  0.3159
17152SOL    HW256304   7.901   0.171   1.068 -0.7613 -2.7139 -1.9544
17153SOL     OW56305   5.933   0.490   0.711  0.3186  0.2393 -0.3109
17153SOL    HW156306   5.875   0.415   0.698 -0.5007  0.7876  0.1460
17153SOL    HW256307   5.983   0.468   0.789 -0.2971  0.4096  0.1283
17154SOL     OW56308   7.248   2.308   0.241  0.0005 -0.4876 -0.3211
17154SOL    HW156309   7.201   2.352   0.312  0.6467 -0.7218  0.2549
17154SOL    HW256310   7.260   2.219   0.272  0.6328 -0.4880 -0.5587
17155SOL     OW56311   6.610   1.682   0.358  0.6253 -0.4362 -0.4097
17155SOL    HW156312   6.521   1.714   0.340 -0.0974 -2.0300  0.2916
17155SOL    HW256313   6.652   1.677   0.272 -0.7175 -1.8877 -0.9949
17156SOL     OW56314   6.182   9.389   2.456  0.3735 -0.1620  0.3158
17156SOL    HW156315   6.261   9.364   2.504  0.6635  0.4471  0.1524
17156SOL    HW256316   6.210   9.397   2.365  0.1543  0.1919  0.2795
17157SOL     OW56317   5.659   9.962   0.903  0.4694 -0.1298  0.6757
17157SOL    HW156318   5.628   9.981   0.991  0.5301 -1.0988  0.9129
17157SOL    HW256319   5.754   9.949   0.913  0.2370 -1.8499  0.7461
17158SOL     OW56320   5.100   1.355   2.070 -0.2539  0.0078 -0.2433
17158SOL    HW156321   5.153   1.427   2.038  2.2548 -1.8622 -0.4843
17158SOL    HW256322   5.102   1.364   2.166 -0.1458  0.4081 -0.2860
17159SOL     OW56323   5.316   9.471   3.114 -0.0140 -0.7028 -0.1504
17159SOL    HW156324   5.334   9.548   3.168  1.4072  0.3942 -2.1126
17159SOL    HW256325   5.383   9.473   3.046 -1.5179 -2.2558 -1.7453
17160SOL     OW56326   7.531   0.117   1.514 -1.0923  0.7470  0.2565
17160SOL    HW156327   7.600   0.135   1.449 -2.8470 -0.7505 -2.0940
17160SOL    HW256328   7.579   0.094   1.593  1.1155  2.5841 -0.4895
17161SOL     OW56329   7.381   0.840   1.428  0.0232  0.4702 -0.8634
17161SOL    HW156330   7.442   0.775   1.393 -3.0233 -3.0323  0.0379
17161SOL    HW256331   7.404   0.848   1.520 -1.6255 -1.8367 -0.2153
17162SOL     OW56332   5.905   1.802   0.352  0.0574  0.2047  0.3185
17162SOL    HW156333   5.858   1.833   0.429  1.0015  0.6755  0.7041
17162SOL    HW256334   5.847   1.735   0.314 -0.8942  0.7328  0.8197
17163SOL     OW56335   7.092   3.267   0.486 -0.0386  0.5462 -0.0440
17163SOL    HW156336   7.023   3.247   0.550  2.3648 -0.5476  2.3070
17163SOL    HW256337   7.145   3.188   0.482  0.3376  0.9141 -2.8295
17164SOL     OW56338   6.659   0.874   4.078 -0.5312 -0.6185  0.6051
17164SOL    HW156339   6.668   0.898   4.170  2.5252  0.9870 -0.0262
17164SOL    HW256340   6.688   0.783   4.074  1.7742  0.0644  0.9030
17165SOL     OW56341   7.257   1.790   2.126  0.2740  0.0017  0.5565
17165SOL    HW156342   7.236   1.878   2.095 -0.4031 -0.5127 -0.4766
17165SOL    HW256343   7.189   1.734   2.089 -0.0108 -0.7830  2.2349
17166SOL     OW56344   5.807   9.974   2.345 -0.8395 -0.1387  0.2736
17166SOL    HW156345   5.889   9.924   2.350 -0.9607 -0.6418 -2.2045
17166SOL    HW256346   5.827  10.057   2.388 -0.0805 -1.5861  2.8339
17167SOL     OW56347   7.032   0.341   0.245  0.9567 -0.2007  0.0809
17167SOL    HW156348   7.079   0.315   0.324  1.6038  1.4617  0.2634
17167SOL    HW256349   6.943   0.360   0.275  0.8089 -0.9905  0.1515
17168SOL     OW56350   5.655   1.359   0.297 -0.0231 -0.1135 -0.6764
17168SOL    HW156351   5.609   1.389   0.376 -0.2276  0.0297 -0.8493
17168SOL    HW256352   5.587   1.318   0.244  0.3154 -1.1719 -0.2981
17169SOL     OW56353   8.307   1.193   2.189 -0.3594 -0.3045 -0.2486
17169SOL    HW156354   8.349   1.216   2.107  1.6019 -2.6888  0.0267
17169SOL    HW256355   8.340   1.258   2.252  1.6905 -1.1958 -0.3835
17170SOL     OW56356   8.850   0.529   0.227  0.4752 -0.5264  0.4264
17170SOL    HW156357   8.874   0.620   0.211 -0.0452 -0.7525 -1.7300
17170SOL    HW256358   8.755   0.532   0.240  0.0117 -1.0861 -2.4848
17171SOL     OW56359   5.128   0.028   1.484  0.0963 -0.3174  0.4377
17171SOL    HW156360   5.177   0.100   1.445 -2.2426  1.3459  0.4930
17171SOL    HW256361   5.145   0.035   1.578  0.9020 -0.6656  0.3291
17172SOL     OW56362   6.534   9.571   1.092  0.4403  0.2496  0.0120
17172SOL    HW156363   6.585   9.572   1.011  1.5343 -0.6422  0.6734
17172SOL    HW256364   6.456   9.520   1.070  0.2362  0.8839 -0.7653
17173SOL     OW56365   6.812   9.867   0.744 -0.1913  0.5452 -0.1080
17173SOL    HW156366   6.816   9.805   0.671 -0.2538 -2.1941  2.1389
17173SOL    HW256367   6.719   9.877   0.762 -0.1637  1.0710 -0.2258
17174SOL     OW56368   7.746   0.426   0.219  0.3964 -0.3091 -0.7149
17174SOL    HW156369   7.774   0.401   0.308  0.4970 -1.6223 -1.0990
17174SOL    HW256370   7.700   0.348   0.187  0.7826 -0.0054 -1.9942
17175SOL     OW56371   5.339   1.396   2.696 -0.4078  0.4313 -0.5376
17175SOL    HW156372   5.248   1.422   2.703 -0.4584 -0.2647  1.9630
17175SOL    HW256373   5.345   1.314   2.746  1.5158  0.3463 -0.8415
17176SOL     OW56374   6.060   0.556   0.364  0.4539  0.4494 -0.4043
17176SOL    HW156375   6.147   0.592   0.383  0.5069  0.6292 -0.9868
17176SOL    HW256376   6.065   0.525   0.274  0.0667 -0.0132 -0.2700
17177SOL     OW56377   7.119   1.209   2.332  0.3510 -0.2694 -0.1926
17177SOL    HW156378   7.133   1.279   2.268  3.8055 -1.3579 -0.7447
17177SOL    HW256379   7.096   1.132   2.279  0.5910 -0.5311  0.0804
17178SOL     OW56380   7.077   1.131   1.104 -0.3853 -0.4293 -0.6217
17178SOL    HW156381   7.125   1.069   1.160 -1.3808 -2.5435 -2.0342
17178SOL    HW256382   7.145   1.184   1.063  0.7148 -2.6219 -1.7193
17179SOL     OW56383   6.109   0.766   0.633  0.2090  0.6882 -0.2922
17179SOL    HW156384   6.194   0.722   0.622  1.4954  2.8297  0.6966
17179SOL    HW256385   6.112   0.840   0.572 -1.1660  0.5042 -0.6017
17180SOL     OW56386   7.995   0.604   1.509  0.1465 -0.0989 -0.0308
17180SOL    HW156387   7.935   0.568   1.444 -0.4018  0.2284  0.2941
17180SOL    HW256388   8.082   0.578   1.478 -0.0789  0.4580 -1.1387
17181SOL     OW56389   6.649   9.500   2.263  0.3370  0.2977 -0.2788
17181SOL    HW156390   6.575   9.440   2.255  1.6842 -1.2168 -1.8509
17181SOL    HW256391   6.611   9.582   2.294 -1.8317 -0.7691 -0.0607
17182SOL     OW56392   5.712   1.982   0.428 -0.4025 -0.1044  0.0146
17182SOL    HW156393   5.633   1.929   0.437 -0.5969 -0.0607 -1.3250
17182SOL    HW256394   5.679   2.072   0.425 -0.2594 -0.0518  0.0598
17183SOL     OW56395   6.776   1.250   1.427 -0.3387 -0.1114 -0.5282
17183SOL    HW156396   6.803   1.214   1.511  0.3181  0.2391 -0.5876
17183SOL    HW256397   6.851   1.302   1.397 -0.0730 -1.2240 -1.8956
17184SOL     OW56398   5.963   0.716   0.875  0.4228 -0.3056  0.1831
17184SOL    HW156399   5.925   0.638   0.834 -0.4030 -0.4847  1.2552
17184SOL    HW256400   6.017   0.755   0.807  0.3362 -1.4691 -0.5691
17185SOL     OW56401   6.634   1.170   0.565 -0.4533  0.7036 -0.5825
17185SOL    HW156402   6.552   1.171   0.516  0.7520 -0.0652 -2.7076
17185SOL    HW256403   6.659   1.077   0.568  1.1133  1.0751 -1.3723
17186SOL     OW56404   5.799   1.412   1.054  0.4968 -0.1555 -0.1635
17186SOL    HW156405   5.860   1.338   1.046  0.2000 -0.0519 -3.9058
17186SOL    HW256406   5.727   1.391   0.995 -0.3980  2.3523 -0.0061
17187SOL     OW56407   5.279   9.327   1.775 -0.4583 -0.8024  0.3515
17187SOL    HW156408   5.327   9.326   1.692 -0.7514 -1.4053  0.1916
17187SOL    HW256409   5.250   9.237   1.788 -0.9634 -0.5815  0.7914
17188SOL     OW56410   7.592   0.031   1.804 -0.1549  0.0930 -0.5611
17188SOL    HW156411   7.564  -0.052   1.843  0.3221  0.8892  1.5189
17188SOL    HW256412   7.512   0.084   1.801 -0.4419 -0.3899 -1.8148
17189SOL     OW56413   6.459   1.491   2.184 -0.3477 -0.3709 -0.1839
17189SOL    HW156414   6.425   1.420   2.239 -2.3305  0.3164 -0.4758
17189SOL    HW256415   6.425   1.471   2.096 -0.0886  0.4051 -0.4609
17190SOL     OW56416   6.207   0.810   9.594  0.3622 -0.0256 -0.4208
17190SOL    HW156417   6.182   0.898   9.622  0.3720  0.0348 -0.6034
17190SOL    HW256418   6.289   0.792   9.641 -0.7266 -0.7595  1.2410
17191SOL     OW56419   6.955   0.574   2.673  0.2407  1.2112 -0.2915
17191SOL    HW156420   6.919   0.582   2.585 -1.3673  0.5937  0.2911
17191SOL    HW256421   7.030   0.515   2.663 -1.5584 -1.0619 -0.8201
17192SOL     OW56422   5.362   0.177   3.791 -0.4547  0.3741 -0.2209
17192SOL    HW156423   5.308   0.255   3.780 -1.5466 -0.2808  0.3443
17192SOL    HW256424   5.412   0.170   3.710 -0.6312  1.4409 -0.4248
17193SOL     OW56425   5.234   8.943   2.691 -0.0966 -0.1075  0.0192
17193SOL    HW156426   5.144   8.920   2.713 -0.0004  0.8861  1.4671
17193SOL    HW256427   5.274   8.859   2.667 -0.0834 -1.3687  4.0799
17194SOL     OW56428   7.407   2.549   2.512  0.0635  0.1817  0.4015
17194SOL    HW156429   7.355   2.511   2.441  0.8518 -0.7953  0.3408
17194SOL    HW256430   7.496   2.551   2.479  0.1909  1.2016  0.7765
17195SOL     OW56431   6.312   0.875   1.815  0.0462  0.0165 -0.1051
17195SOL    HW156432   6.396   0.896   1.775 -0.4826  0.4863 -0.9611
17195SOL    HW256433   6.302   0.781   1.801 -0.9955  0.4905 -2.7245
17196SOL     OW56434   7.928   2.318   2.811 -0.4215 -0.7092 -0.2801
17196SOL    HW156435   8.009   2.268   2.806 -0.0844 -0.2292  0.3075
17196SOL    HW256436   7.919   2.340   2.904 -2.5031 -2.8680  0.0847
17197SOL     OW56437   4.883   1.280   2.393  0.6289  0.4485  0.2655
17197SOL    HW156438   4.809   1.308   2.340  0.0360  1.4747  1.5989
17197SOL    HW256439   4.918   1.203   2.348  0.3510  1.4831 -1.7670
17198SOL     OW56440   4.789   2.542   3.281  0.1935  0.2392 -0.4301
17198SOL    HW156441   4.764   2.478   3.348  0.0363 -0.2047 -0.9101
17198SOL    HW256442   4.767   2.499   3.198 -1.4774  1.5795 -0.7017
17199SOL     OW56443   6.847   9.884   2.151 -0.0072  0.1004 -0.5777
17199SOL    HW156444   6.875   9.964   2.106 -0.3395  0.7494  0.3407
17199SOL    HW256445   6.917   9.866   2.214  0.7380 -1.1341 -1.7392
17200SOL     OW56446   7.905   1.413   3.907  0.0472  0.0539  0.8760
17200SOL    HW156447   7.973   1.476   3.933 -0.3238  0.0600  1.8876
17200SOL    HW256448   7.836   1.467   3.870 -0.1631  0.2316  1.5099
17201SOL     OW56449   6.968   0.450   3.954 -0.1717 -0.6742 -0.1308
17201SOL    HW156450   7.001   0.529   3.998  2.1065 -1.5984 -0.1323
17201SOL    HW256451   6.943   0.480   3.867  0.0439  0.1834  0.0946
17202SOL     OW56452   7.013   2.733   1.480  0.0112 -0.2648  0.4285
17202SOL    HW156453   6.944   2.667   1.489  0.4391 -0.5020  2.1759
17202SOL    HW256454   6.989   2.802   1.542  0.3412  0.5500 -0.3366
17203SOL     OW56455   4.533   9.926   1.994 -0.7090  0.4999  0.2383
17203SOL    HW156456   4.520   9.897   1.904 -2.4742  0.8906  0.3471
17203SOL    HW256457   4.490   9.859   2.047  1.0846 -0.1920  0.8601
17204SOL     OW56458   6.701   0.822   2.122 -0.7880  0.0908  0.2709
17204SOL    HW156459   6.615   0.793   2.092 -0.0772  0.0680 -1.8207
17204SOL    HW256460   6.757   0.745   2.113  0.1204  0.8947 -1.2755
17205SOL     OW56461   6.674   3.171   1.056  0.3796 -0.3467 -0.0649
17205SOL    HW156462   6.600   3.180   0.995 -0.2095 -0.2496  0.6490
17205SOL    HW256463   6.702   3.080   1.047  0.0664 -0.4285 -0.2271
17206SOL     OW56464   8.449   1.182   4.279  0.1974  0.1024  0.4011
17206SOL    HW156465   8.449   1.129   4.359 -0.8932 -0.1488  0.2340
17206SOL    HW256466   8.512   1.139   4.222  0.6491  0.0259  0.9483
17207SOL     OW56467   6.824   1.784   3.085  0.1380  1.1149 -0.1214
17207SOL    HW156468   6.827   1.718   3.155 -2.8521 -0.1031 -1.0818
17207SOL    HW256469   6.911   1.781   3.046  1.2833  0.5325  2.3551
17208SOL     OW56470   4.878   0.548   2.689  0.1270  0.5464  0.3253
17208SOL    HW156471   4.906   0.640   2.693 -0.2126  0.7439 -1.5964
17208SOL    HW256472   4.807   0.547   2.625 -0.6948 -0.8684  1.2207
17209SOL     OW56473   8.233   1.257   3.486 -0.4791  0.0246 -0.5459
17209SOL    HW156474   8.247   1.325   3.551  0.8365 -0.5303 -0.2297
17209SOL    HW256475   8.264   1.177   3.528 -0.7784 -0.5433 -1.3980
17210SOL     OW56476   5.022   1.285   3.195  0.2825 -0.2054  0.3144
17210SOL    HW156477   4.995   1.195   3.214 -2.1039  0.0518 -1.7610
17210SOL    HW256478   4.974   1.338   3.258 -1.8381 -0.0093 -1.4369
17211SOL     OW56479   6.921   9.868   2.944  0.1021 -0.5504  0.1990
17211SOL    HW156480   6.862   9.936   2.974 -0.5387 -1.6815  1.5604
17211SOL    HW256481   6.943   9.818   3.022 -0.6165 -2.7971 -0.9651
17212SOL     OW56482   6.337   3.756   2.923 -0.0149 -0.4597  0.8282
17212SOL    HW156483   6.403   3.693   2.952  1.4478  0.9622  0.5931
17212SOL    HW256484   6.323   3.813   2.999  0.4136  0.3998  0.2699
17213SOL     OW56485   6.004   0.563   2.239 -0.1733  0.0447 -0.4335
17213SOL    HW156486   5.989   0.609   2.321 -1.3571  2.9490 -2.2121
17213SOL    HW256487   6.094   0.585   2.215 -1.2155  2.8326 -2.0448
17214SOL     OW56488   8.483   2.032   3.286  0.0114 -0.2712 -0.3770
17214SOL    HW156489   8.514   2.118   3.259  0.4855 -0.5289 -0.6435
17214SOL    HW256490   8.561   1.978   3.291 -0.3326 -0.7925 -0.5829
17215SOL     OW56491   6.203   0.897   2.985 -0.5277 -0.2091  0.1732
17215SOL    HW156492   6.221   0.805   2.965 -0.4509  0.5036 -3.4292
17215SOL    HW256493   6.277   0.945   2.947 -1.3638  1.4622  0.6045
17216SOL     OW56494   4.343   1.757   3.837 -1.1465  0.1988 -0.0409
17216SOL    HW156495   4.375   1.763   3.748 -1.7371 -1.2099 -0.3579
17216SOL    HW256496   4.248   1.772   3.829 -1.2713 -0.3918  0.2774
17217SOL     OW56497   5.823   1.622   1.670 -0.6588  0.6238  0.0321
17217SOL    HW156498   5.748   1.641   1.614  0.7881 -1.1211 -2.5331
17217SOL    HW256499   5.877   1.701   1.665  0.2662 -0.1224 -2.3875
17218SOL     OW56500   6.978   1.233   3.230 -0.5547 -0.0783 -0.1838
17218SOL    HW156501   6.903   1.219   3.288 -1.1078 -0.3560 -0.9555
17218SOL    HW256502   6.987   1.150   3.183  2.5119 -1.3962  2.4814
17219SOL     OW56503   7.679   9.822   2.236 -0.8969  0.4828  0.4218
17219SOL    HW156504   7.689   9.738   2.281 -2.2697  0.1264  0.0505
17219SOL    HW256505   7.674   9.800   2.144 -2.2201  0.8990  0.3911
17220SOL     OW56506   4.176   8.868   2.227 -0.4283  0.2895 -0.4125
17220SOL    HW156507   4.195   8.859   2.134  1.0990 -1.2671  0.0248
17220SOL    HW256508   4.098   8.815   2.241  2.3532 -3.8547  0.1259
17221SOL     OW56509   7.315   1.636   3.137 -0.3947 -0.2126  0.3574
17221SOL    HW156510   7.373   1.562   3.153 -0.3016 -0.2792 -0.2913
17221SOL    HW256511   7.232   1.611   3.177  0.1277  0.0369  1.6155
17222SOL     OW56512   6.738   2.547   3.659 -0.0438 -0.3632  0.0851
17222SOL    HW156513   6.656   2.509   3.691 -0.2173 -0.5558 -0.5872
17222SOL    HW256514   6.764   2.491   3.586  0.1008  0.3585 -0.4201
17223SOL     OW56515   7.371   9.781   3.068 -0.7441  0.5477 -0.2379
17223SOL    HW156516   7.458   9.767   3.030 -0.4638  2.1864 -0.2711
17223SOL    HW256517   7.330   9.846   3.010 -1.6609  0.4235  0.2571
17224SOL     OW56518   7.271   0.406   2.386  0.2533 -0.0798 -0.0538
17224SOL    HW156519   7.281   0.318   2.350 -0.0865  0.7872 -2.3054
17224SOL    HW256520   7.273   0.464   2.310  2.4859  2.0568  1.5527
17225SOL     OW56521   6.463   1.039   0.114 -0.1982  0.1983  0.6660
17225SOL    HW156522   6.536   1.072   0.167 -0.6215 -1.6243  2.4340
17225SOL    HW256523   6.385   1.079   0.153 -0.3752  0.1110  0.4017
17226SOL     OW56524   6.019   1.526   1.395  0.0496 -0.5879 -0.1504
17226SOL    HW156525   5.934   1.482   1.393 -0.7808  0.8570  1.4739
17226SOL    HW256526   6.081   1.456   1.415 -1.0203 -1.3396  0.6303
17227SOL     OW56527   5.199   0.366   3.726 -0.3546  0.3275 -0.3058
17227SOL    HW156528   5.261   0.431   3.760  0.7304 -0.8296 -0.0290
17227SOL    HW256529   5.126   0.418   3.692 -0.5033  1.6063  1.8545
17228SOL     OW56530   8.605   2.162   2.017  0.2649 -0.0905 -0.4574
17228SOL    HW156531   8.621   2.244   1.971  2.2438  0.2310  0.7392
17228SOL    HW256532   8.651   2.172   2.101 -2.2409 -1.1380  1.0828
17229SOL     OW56533   7.218   9.912   2.878 -0.1306  0.3211 -0.0259
17229SOL    HW156534   7.199   9.992   2.926 -0.0056 -1.4341  3.1003
17229SOL    HW256535   7.136   9.862   2.881 -0.4823  0.6665 -2.7346
17230SOL     OW56536   5.952   8.759   4.662 -0.2101 -0.4549 -0.2428
17230SOL    HW156537   5.960   8.669   4.694 -0.2708 -0.8861 -1.4246
17230SOL    HW256538   5.962   8.813   4.740  0.6338 -1.4641  0.3629
17231SOL     OW56539   5.213   0.625   4.773 -0.4508  0.2295  0.2146
17231SOL    HW156540   5.157   0.549   4.785 -0.6363  0.3270 -0.0196
17231SOL    HW256541   5.298   0.599   4.810  0.4222 -1.2379 -2.6468
17232SOL     OW56542   7.053   2.138   3.897 -0.2004  0.4042 -0.4075
17232SOL    HW156543   7.069   2.134   3.992 -0.8028  1.9258 -0.2117
17232SOL    HW256544   7.031   2.230   3.881  2.1268  0.6601 -2.4181
17233SOL     OW56545   6.973   9.705   3.999  0.4018  0.4110 -1.2169
17233SOL    HW156546   6.911   9.742   4.062  1.3016 -0.0382 -0.0540
17233SOL    HW256547   6.945   9.614   3.988  0.5502  0.3503 -1.0797
17234SOL     OW56548   7.121   3.212   3.129  1.0533 -0.3686  0.4579
17234SOL    HW156549   7.188   3.151   3.099  0.5807 -0.6427 -0.0450
17234SOL    HW256550   7.104   3.269   3.054 -2.0429 -2.7290 -0.7358
17235SOL     OW56551   7.783   1.169   1.263  0.5342  0.1953 -0.2622
17235SOL    HW156552   7.774   1.264   1.270 -0.3716  0.0495  0.7240
17235SOL    HW256553   7.730   1.134   1.335  3.0691 -0.9748  1.1189
17236SOL     OW56554   9.164   0.855   4.145  0.3122  0.1445  0.1344
17236SOL    HW156555   9.249   0.900   4.140 -0.4441  1.4911 -1.3047
17236SOL    HW256556   9.178   0.772   4.098  0.7782  0.4582 -0.2862
17237SOL     OW56557   7.262   3.202   2.486 -0.1579  0.0972 -0.1446
17237SOL    HW156558   7.240   3.219   2.577  0.7501  0.7945 -0.0443
17237SOL    HW256559   7.341   3.148   2.490 -1.8015 -2.4264 -0.4956
17238SOL     OW56560   6.806   1.807   1.873 -0.2036  0.0843 -0.4358
17238SOL    HW156561   6.867   1.733   1.867 -0.7210 -0.3838 -0.0597
17238SOL    HW256562   6.827   1.849   1.956 -1.4162 -1.0200  0.4601
17239SOL     OW56563   7.590   0.344   2.311 -0.1753  0.3812  0.1583
17239SOL    HW156564   7.639   0.263   2.299 -0.3098  0.2672  0.3716
17239SOL    HW256565   7.523   0.342   2.243 -1.5958 -0.7573  1.5459
17240SOL     OW56566   8.028   1.159   1.532 -0.2241  0.6716 -0.5950
17240SOL    HW156567   8.065   1.247   1.520  3.9849 -0.8196  0.5176
17240SOL    HW256568   8.000   1.158   1.623  1.2901  0.3628 -0.1168
17241SOL     OW56569   7.103   1.819   2.975  0.4470  0.2782  0.5253
17241SOL    HW156570   7.190   1.780   2.973  0.5648  0.5307  0.6107
17241SOL    HW256571   7.104   1.884   2.905 -0.1827 -0.7701 -0.4623
17242SOL     OW56572   5.969   1.044   3.400  0.4475  0.1117  0.8114
17242SOL    HW156573   6.035   1.000   3.454  1.5024  0.5027 -0.1485
17242SOL    HW256574   6.001   1.134   3.392  1.4458 -0.4535 -2.2645
17243SOL     OW56575   5.371   9.451   0.986  0.6447 -0.5279  0.3227
17243SOL    HW156576   5.296   9.409   1.029 -0.3243  1.5966  0.7514
17243SOL    HW256577   5.427   9.481   1.058  2.3776 -2.8537  0.0009
17244SOL     OW56578   7.867   2.303   1.240  0.2997  0.2398 -0.0068
17244SOL    HW156579   7.947   2.255   1.219  0.7928  1.4341 -0.9299
17244SOL    HW256580   7.889   2.353   1.318  0.2547  0.1062  0.0922
17245SOL     OW56581   5.782   1.259   4.476 -0.2926  0.0276  0.1498
17245SOL    HW156582   5.795   1.301   4.391 -0.4256 -0.7111 -0.2319
17245SOL    HW256583   5.851   1.193   4.482  0.6175  1.0445  1.2373
17246SOL     OW56584   6.091   0.589   1.235  0.3228  0.1853  0.1492
17246SOL    HW156585   6.015   0.537   1.209 -0.7296  0.8372  1.8774
17246SOL    HW256586   6.064   0.680   1.221  1.0171  0.4054  0.1920
17247SOL     OW56587   4.437   9.383   3.357  0.1976  0.0317  0.0623
17247SOL    HW156588   4.408   9.374   3.266  0.2347 -0.7605  0.1275
17247SOL    HW256589   4.458   9.294   3.385  0.6173  0.3268  0.7066
17248SOL     OW56590   5.264   1.577   1.504 -0.4702  0.1573  0.0173
17248SOL    HW156591   5.316   1.584   1.585  1.0151  0.6650 -0.9502
17248SOL    HW256592   5.288   1.492   1.467  1.6522  1.4665 -1.7291
17249SOL     OW56593   7.364   9.667   2.690  0.2554 -0.4063  0.2261
17249SOL    HW156594   7.383   9.660   2.783 -0.2664 -2.2753  0.2098
17249SOL    HW256595   7.433   9.616   2.647  1.6185  1.9912 -0.5737
17250SOL     OW56596   6.533   1.391   2.817 -0.5888 -0.3646 -0.5902
17250SOL    HW156597   6.618   1.420   2.850 -0.8706 -0.8122  0.5105
17250SOL    HW256598   6.547   1.384   2.722 -0.1415  2.1308 -0.7685
17251SOL     OW56599   6.699   1.516   3.581 -0.4437  0.2752  0.3549
17251SOL    HW156600   6.792   1.512   3.557 -0.7264  2.8243 -1.2424
17251SOL    HW256601   6.668   1.426   3.570  1.5626 -0.3889 -0.1591
17252SOL     OW56602   7.890   9.388   3.531 -0.1608  0.5334 -0.0574
17252SOL    HW156603   7.903   9.374   3.624  1.5443 -1.3276 -0.5352
17252SOL    HW256604   7.948   9.462   3.510  0.4722  0.0927  0.1169
17253SOL     OW56605   5.559   0.384   2.659 -0.7185 -0.0508 -0.4668
17253SOL    HW156606   5.486   0.325   2.677 -0.9111  0.5738  0.8390
17253SOL    HW256607   5.522   0.472   2.672  0.0873  0.2931 -0.4731
17254SOL     OW56608   7.971   9.870   3.243  0.0082  0.0908  0.5946
17254SOL    HW156609   8.035   9.938   3.220 -1.1305  1.2696  0.8355
17254SOL    HW256610   7.903   9.878   3.176 -0.9423  0.2837  1.5766
17255SOL     OW56611   5.063   2.304   2.854  0.0607 -0.2160 -0.1332
17255SOL    HW156612   5.139   2.324   2.910 -0.3030 -0.0152  0.2879
17255SOL    HW256613   4.989   2.344   2.899 -0.1455  0.4880 -1.0886
17256SOL     OW56614   8.195   1.284   2.784 -0.1564 -0.2644 -0.1079
17256SOL    HW156615   8.229   1.356   2.730 -1.1730  1.6923  1.7653
17256SOL    HW256616   8.195   1.208   2.725  0.2264  1.4244 -2.3877
17257SOL     OW56617   5.800   1.718   2.859 -0.2949 -0.0770 -0.3632
17257SOL    HW156618   5.886   1.687   2.829  0.2620  0.5498  0.5956
17257SOL    HW256619   5.742   1.643   2.843  0.2874 -0.2945 -1.5918
17258SOL     OW56620   6.448   0.561   3.073 -0.2973 -0.5950  0.5074
17258SOL    HW156621   6.363   0.582   3.033  0.9536 -0.5276 -2.2028
17258SOL    HW256622   6.507   0.630   3.042  0.5992 -0.1756  3.0207
17259SOL     OW56623   6.498   0.678   1.983 -0.5627  0.3145 -0.2875
17259SOL    HW156624   6.415   0.662   2.028 -0.3668 -0.5774 -0.2518
17259SOL    HW256625   6.479   0.665   1.891 -0.5484  0.4598 -0.3110
17260SOL     OW56626   8.359   1.018   2.403 -0.1708  0.5238  0.2714
17260SOL    HW156627   8.314   1.047   2.323 -1.5260  0.3908  0.9675
17260SOL    HW256628   8.367   1.098   2.456  4.0975  1.4226 -1.5107
17261SOL     OW56629   4.607   0.185   3.300 -0.1950 -0.0134  0.8787
17261SOL    HW156630   4.519   0.185   3.336 -0.2071  0.3873  0.8482
17261SOL    HW256631   4.647   0.265   3.334 -0.7646  1.2649 -1.3714
17262SOL     OW56632   6.221   9.958   2.081  0.2170 -0.2212  0.1449
17262SOL    HW156633   6.308   9.984   2.111  0.3730  0.0747 -0.5558
17262SOL    HW256634   6.237   9.909   2.000 -0.2250 -0.7359  0.3603
17263SOL     OW56635   5.389   0.498   4.097 -0.0914  0.5388 -0.1929
17263SOL    HW156636   5.409   0.405   4.095 -1.2263  0.3103 -1.3811
17263SOL    HW256637   5.466   0.539   4.137  0.3651 -0.9078  0.4268
17264SOL     OW56638   6.832   2.342   3.170 -0.2644 -0.1081  0.0665
17264SOL    HW156639   6.815   2.249   3.158 -1.5299  0.3233 -1.5419
17264SOL    HW256640   6.901   2.362   3.107 -0.8405  0.3068 -0.4319
17265SOL     OW56641   7.392   2.179   1.962 -0.4182 -0.4278  0.5496
17265SOL    HW156642   7.322   2.115   1.949 -1.1467  0.7448 -1.5357
17265SOL    HW256643   7.444   2.173   1.883  1.7043 -1.0607  1.9554
17266SOL     OW56644   7.277   3.048   3.319  0.2521  0.3259  0.5937
17266SOL    HW156645   7.218   3.113   3.281  1.1700  1.7940  1.6263
17266SOL    HW256646   7.364   3.075   3.290  0.6891 -0.1962  1.3917
17267SOL     OW56647   7.319   2.198   2.375  0.2864  0.2010  0.5191
17267SOL    HW156648   7.389   2.231   2.431  0.0332 -0.2771  1.1230
17267SOL    HW256649   7.296   2.113   2.413 -0.1746  0.0618 -0.0631
17268SOL     OW56650   4.070   1.050   3.137  0.4246 -0.6804  0.0149
17268SOL    HW156651   4.099   0.983   3.199  0.5000  0.1386  0.8898
17268SOL    HW256652   4.063   1.005   3.053  1.9797 -1.4209  0.2715
17269SOL     OW56653   6.104   0.234   2.509 -0.7170  0.0711 -0.1766
17269SOL    HW156654   6.114   0.240   2.414  0.5921 -0.9751 -0.1157
17269SOL    HW256655   6.185   0.271   2.545 -1.6214  1.3841  0.5675
17270SOL     OW56656   5.781   1.021   2.622  0.0889  0.3423 -0.0010
17270SOL    HW156657   5.755   0.958   2.689 -4.5369  0.9961 -0.9677
17270SOL    HW256658   5.808   0.967   2.547  1.2103 -0.4123  0.9428
17271SOL     OW56659   6.822   1.403   2.998 -0.3532  0.0874  0.3318
17271SOL    HW156660   6.912   1.381   3.021  0.1463 -1.1795 -2.5468
17271SOL    HW256661   6.768   1.357   3.062  0.9856 -1.1712  0.5765
17272SOL     OW56662   8.752   1.822   4.103 -0.1780 -0.3853  0.0197
17272SOL    HW156663   8.700   1.744   4.086 -0.5115  0.2795 -2.2358
17272SOL    HW256664   8.691   1.895   4.087  0.1605  0.3553  1.9413
17273SOL     OW56665   6.960   1.388   1.996 -0.1799 -0.3494 -0.0569
17273SOL    HW156666   7.027   1.340   1.949  1.1189  0.0253  1.3557
17273SOL    HW256667   6.915   1.322   2.049  3.2548  0.1923  3.8366
17274SOL     OW56668   6.033   1.305   1.693  0.3453 -0.2099 -0.0118
17274SOL    HW156669   6.019   1.323   1.786  2.4792 -0.3332  0.3799
17274SOL    HW256670   6.070   1.217   1.691 -0.3163 -0.4732 -1.0472
17275SOL     OW56671   7.734   0.916   2.270  0.0540  0.0683  0.4033
17275SOL    HW156672   7.768   0.831   2.241 -1.3777  0.1218 -1.6064
17275SOL    HW256673   7.750   0.918   2.364  2.1139 -1.4766  0.1286
17276SOL     OW56674   8.188   2.532   3.778 -0.2216  0.2871 -0.3029
17276SOL    HW156675   8.142   2.451   3.800  0.5479  0.2847  1.4215
17276SOL    HW256676   8.280   2.513   3.797 -0.1488  1.8439  0.9757
17277SOL     OW56677   5.594   0.333   2.177  0.5691  0.0520 -0.6905
17277SOL    HW156678   5.628   0.393   2.112  1.6706  0.2340  0.0494
17277SOL    HW256679   5.499   0.349   2.177  0.9442  2.4507  0.1687
17278SOL     OW56680   8.475   0.674   3.829  0.4843 -0.5837 -0.3701
17278SOL    HW156681   8.418   0.640   3.759  2.2863 -1.0098 -1.6866
17278SOL    HW256682   8.564   0.653   3.799  1.2913 -0.7153  2.0526
17279SOL     OW56683   5.804   0.635   3.881 -0.1090 -0.1214 -0.0539
17279SOL    HW156684   5.866   0.570   3.850 -0.6889  0.1891 -1.9223
17279SOL    HW256685   5.731   0.584   3.916 -1.6962 -0.5226 -3.8115
17280SOL     OW56686   6.849   1.804   3.752 -0.0642 -0.0531  0.2170
17280SOL    HW156687   6.804   1.878   3.711 -0.1655 -1.1408 -1.7255
17280SOL    HW256688   6.942   1.824   3.744 -0.0703 -0.4442 -0.9527
17281SOL     OW56689   6.441   3.142   4.090  0.1637  0.2464 -0.5004
17281SOL    HW156690   6.354   3.119   4.057  0.6222  0.2598 -1.7174
17281SOL    HW256691   6.501   3.081   4.047  0.9532  1.3239 -0.9569
17282SOL     OW56692   6.826   0.650   3.263  0.2108 -0.0704  0.4576
17282SOL    HW156693   6.897   0.704   3.227  0.3339  0.9871  2.1957
17282SOL    HW256694   6.869   0.568   3.286  0.6781  0.1928  0.5503
17283SOL     OW56695   5.287   0.288   3.270 -0.1148 -0.3358  0.2283
17283SOL    HW156696   5.232   0.237   3.330  0.0980  0.1108  0.8086
17283SOL    HW256697   5.340   0.222   3.225 -0.5996 -0.7098  0.1983
17284SOL     OW56698   5.696   0.894   2.276 -0.1323 -0.4333  0.1774
17284SOL    HW156699   5.606   0.869   2.295  0.0858 -0.9204  0.5944
17284SOL    HW256700   5.747   0.859   2.350  0.0848  1.9082  1.1763
17285SOL     OW56701   6.933   1.971   2.508  0.2458  0.3828 -0.1327
17285SOL    HW156702   6.905   1.879   2.510 -1.0676  0.7246 -1.5855
17285SOL    HW256703   6.985   1.982   2.587 -0.6602 -1.2878  0.7306
17286SOL     OW56704   5.622   1.142   2.856 -0.5274 -0.8942 -0.8264
17286SOL    HW156705   5.664   1.134   2.770 -0.5721  3.4580 -1.3617
17286SOL    HW256706   5.694   1.139   2.918 -0.0073  0.4396 -1.3429
17287SOL     OW56707   5.766   0.800   2.809 -0.3462 -0.5044 -0.0733
17287SOL    HW156708   5.848   0.752   2.814 -0.0571 -0.1313 -1.0280
17287SOL    HW256709   5.734   0.804   2.899  1.9901  1.6214  0.7105
17288SOL     OW56710   6.857   9.333   3.287  0.0015  0.1874  0.5658
17288SOL    HW156711   6.803   9.272   3.338  1.3170 -2.2219 -0.8261
17288SOL    HW256712   6.855   9.298   3.198  0.9911  2.0454 -0.2020
17289SOL     OW56713   6.731   1.470   2.220 -0.5375 -0.1166  0.0281
17289SOL    HW156714   6.742   1.507   2.307 -2.1821  0.1968  0.1227
17289SOL    HW256715   6.638   1.484   2.200 -0.7772 -2.5257 -0.6783
17290SOL     OW56716   7.030   1.170   2.771 -0.0779 -0.0283  0.0012
17290SOL    HW156717   6.961   1.129   2.718 -1.0258 -0.0548  1.2408
17290SOL    HW256718   7.111   1.145   2.727 -0.7852 -1.0006 -0.7912
17291SOL     OW56719   6.454   2.077   2.221 -0.3947 -0.1287  0.3294
17291SOL    HW156720   6.392   2.121   2.162 -1.9843 -0.2951  1.8495
17291SOL    HW256721   6.487   2.003   2.170 -1.7871 -0.3059 -0.3381
17292SOL     OW56722   6.599   2.275   2.676 -0.3545 -0.2390 -0.1871
17292SOL    HW156723   6.579   2.181   2.668  0.1770 -0.4523  0.9075
17292SOL    HW256724   6.570   2.312   2.593 -0.7994 -1.3361 -0.5402
17293SOL     OW56725   8.406   9.454   3.609 -0.7515 -0.1562 -0.1672
17293SOL    HW156726   8.479   9.412   3.563  0.5963  1.1775  0.6992
17293SOL    HW256727   8.442   9.478   3.694 -0.9748  4.0326 -1.1451
17294SOL     OW56728   7.856   0.624   5.218  0.1847 -0.6012  0.3743
17294SOL    HW156729   7.907   0.552   5.182 -0.7904 -1.0079 -0.2239
17294SOL    HW256730   7.826   0.592   5.303 -0.1996 -0.8855  0.1346
17295SOL     OW56731   4.918   0.799   2.727  0.3403 -0.0112 -0.5697
17295SOL    HW156732   4.953   0.869   2.673  0.5886  0.4614  0.2047
17295SOL    HW256733   4.837   0.834   2.763  1.4741  0.6106  1.4117
17296SOL     OW56734   5.527   9.151   2.974 -1.0975  0.3716 -0.0880
17296SOL    HW156735   5.453   9.121   3.027 -0.6644  2.6421  1.9220
17296SOL    HW256736   5.488   9.174   2.890 -2.3229 -0.4532  0.2327
17297SOL     OW56737   5.636   0.457   3.038  0.5228  0.2118  0.7002
17297SOL    HW156738   5.594   0.381   2.996 -0.6622  1.9814 -1.4020
17297SOL    HW256739   5.704   0.484   2.976 -0.4450  2.1308  0.4580
17298SOL     OW56740   6.347   1.288   2.316 -0.0743  0.0565 -0.3955
17298SOL    HW156741   6.337   1.321   2.405 -0.9771 -0.1756 -0.4044
17298SOL    HW256742   6.258   1.263   2.290  0.2475 -0.2358 -1.2164
17299SOL     OW56743   7.151   0.246   2.827  0.2280  0.3078  0.2428
17299SOL    HW156744   7.155   0.308   2.754  0.2761 -0.2899 -0.2729
17299SOL    HW256745   7.186   0.164   2.790  0.2360 -0.0006  0.9317
17300SOL     OW56746   4.722   9.297   2.213 -0.3909 -0.3943  0.1734
17300SOL    HW156747   4.775   9.309   2.292 -0.9597  0.9784  0.3576
17300SOL    HW256748   4.753   9.214   2.176  0.7020 -0.4579  1.1935
17301SOL     OW56749   5.235   0.363   2.954  0.7126  0.1884 -0.3899
17301SOL    HW156750   5.286   0.440   2.980  1.7282  0.2142 -2.3393
17301SOL    HW256751   5.146   0.395   2.942  1.3540  1.3453 -2.3022
17302SOL     OW56752   6.805   8.735   3.795 -0.4697 -0.1825  0.3444
17302SOL    HW156753   6.710   8.740   3.798 -0.5636 -1.3184 -0.5559
17302SOL    HW256754   6.833   8.822   3.766 -1.3041 -0.3112 -0.8553
17303SOL     OW56755   7.141   0.262   3.766 -0.5413 -0.7581 -0.8405
17303SOL    HW156756   7.108   0.230   3.682 -2.4381  0.7483 -0.6873
17303SOL    HW256757   7.150   0.357   3.755  1.7871 -0.8685 -0.1972
17304SOL     OW56758   8.664   1.396   1.701 -0.2622  0.0476  0.4857
17304SOL    HW156759   8.701   1.321   1.748 -1.5464 -0.1992  1.1431
17304SOL    HW256760   8.636   1.361   1.617 -0.0376 -0.0192  0.4401
17305SOL     OW56761   7.410   2.155   1.318  0.0885  0.3434 -0.6787
17305SOL    HW156762   7.438   2.228   1.374  0.2269 -0.8575  0.8418
17305SOL    HW256763   7.492   2.116   1.287  0.0192  1.5055 -2.4449
17306SOL     OW56764   7.257   1.135   3.458 -0.1684 -0.4564 -0.3131
17306SOL    HW156765   7.236   1.043   3.441  1.4734 -0.8693 -0.1319
17306SOL    HW256766   7.351   1.142   3.445 -0.1046  0.9720  0.7336
17307SOL     OW56767   7.063   2.791   2.824 -0.0493 -0.1892  0.9628
17307SOL    HW156768   7.027   2.828   2.904 -0.4386 -0.7451  1.0470
17307SOL    HW256769   7.147   2.753   2.850 -0.7021 -1.3801  1.3426
17308SOL     OW56770   7.483   0.411   3.659 -0.4287 -0.4432 -0.5541
17308SOL    HW156771   7.517   0.405   3.570  0.0294 -0.4287 -0.3799
17308SOL    HW256772   7.509   0.329   3.701 -0.7075 -0.4829 -0.4551
17309SOL     OW56773   8.255   9.948   2.849  0.0147  0.0424 -0.4941
17309SOL    HW156774   8.179   9.890   2.855 -1.0521  1.4719  0.0182
17309SOL    HW256775   8.221  10.028   2.809  1.6610  0.0082 -2.0221
17310SOL     OW56776   5.922   0.527   3.410 -0.4416  0.2017 -0.1117
17310SOL    HW156777   5.932   0.589   3.337 -0.0684 -1.8515 -1.8343
17310SOL    HW256778   6.007   0.528   3.454 -0.5261  1.1110  0.0503
17311SOL     OW56779   8.861   0.772   0.829  0.1514 -0.1627  0.0550
17311SOL    HW156780   8.947   0.766   0.869  0.6637 -1.0705 -1.1566
17311SOL    HW256781   8.878   0.779   0.735 -1.0251  1.7920 -0.0631
17312SOL     OW56782   6.304   0.317   3.331  0.5340 -0.3797  0.4168
17312SOL    HW156783   6.220   0.271   3.331 -0.4371  1.3290 -0.8176
17312SOL    HW256784   6.369   0.247   3.324 -0.6343 -1.8976  3.5349
17313SOL     OW56785   6.948   0.191   4.032  0.0838  0.1011  0.2703
17313SOL    HW156786   6.966   0.241   3.952  3.0633  0.2788  1.0143
17313SOL    HW256787   6.982   0.245   4.103 -1.3505 -0.6630  1.5807
17314SOL     OW56788   5.964   0.900   3.157  0.1397  0.2638 -0.4786
17314SOL    HW156789   5.970   0.957   3.234  0.6399 -0.6195  0.1407
17314SOL    HW256790   6.046   0.914   3.110 -0.0579  0.6109 -0.7275
17315SOL     OW56791   6.516   1.740   3.027 -0.0439  0.1742  0.0454
17315SOL    HW156792   6.442   1.713   3.081  0.9026  0.2095  1.3869
17315SOL    HW256793   6.582   1.770   3.089  1.7870 -1.5018 -0.9982
17316SOL     OW56794   7.617   1.578   1.833 -0.1920 -0.4210 -0.0014
17316SOL    HW156795   7.537   1.537   1.799  0.3242 -1.2097 -0.3000
17316SOL    HW256796   7.681   1.506   1.836  0.6602  0.3110 -0.2808
17317SOL     OW56797   4.895   9.771   3.461 -0.5606  0.0216  0.3679
17317SOL    HW156798   4.972   9.787   3.408 -1.1000  0.4879 -0.2845
17317SOL    HW256799   4.827   9.825   3.421 -1.6127 -1.5363  0.0160
17318SOL     OW56800   5.845   1.392   4.251  0.1287  0.1372  0.2081
17318SOL    HW156801   5.854   1.466   4.191  0.3237  0.6296  0.8451
17318SOL    HW256802   5.853   1.315   4.194 -0.5321  0.5959 -0.5242
17319SOL     OW56803   6.223   0.751   3.849 -0.1438  0.1237  0.4142
17319SOL    HW156804   6.288   0.813   3.885 -0.3721 -0.2796  1.5437
17319SOL    HW256805   6.197   0.698   3.924 -0.0533 -1.2689 -0.5249
17320SOL     OW56806   7.621   2.004   2.772 -0.0717 -0.6885 -0.1044
17320SOL    HW156807   7.633   1.923   2.821  1.3240 -0.9438 -0.8638
17320SOL    HW256808   7.647   1.982   2.683 -0.5215  0.3668 -0.4994
17321SOL     OW56809   6.321   0.352   2.637  0.0972 -0.0765 -0.1513
17321SOL    HW156810   6.316   0.426   2.577 -0.8464 -0.7125 -0.8619
17321SOL    HW256811   6.293   0.387   2.721  2.9754  1.2147  0.3048
17322SOL     OW56812   6.912   0.566   4.693  0.3907  0.6285 -0.1838
17322SOL    HW156813   6.925   0.485   4.643  1.2788  0.8880 -0.3767
17322SOL    HW256814   6.841   0.611   4.647 -0.4007 -0.2349  0.1707
17323SOL     OW56815   6.524   1.731   3.592 -0.0174 -0.1101  0.2095
17323SOL    HW156816   6.562   1.643   3.595  0.3676 -0.0667 -2.7101
17323SOL    HW256817   6.433   1.717   3.566 -0.1244  0.3160  0.3476
17324SOL     OW56818   6.201   9.683   4.801  0.3026 -0.1350 -0.1243
17324SOL    HW156819   6.238   9.771   4.791  0.5834 -0.2836 -0.3959
17324SOL    HW256820   6.141   9.690   4.875 -0.6073  0.6009 -0.9113
17325SOL     OW56821   6.401   9.337   5.372 -0.1883 -0.6515 -0.9789
17325SOL    HW156822   6.357   9.280   5.308 -2.2560 -0.0985 -0.1032
17325SOL    HW256823   6.375   9.301   5.457 -0.9477  1.1714 -0.4199
17326SOL     OW56824   6.236   0.098   2.835  0.5259  0.0076  0.6591
17326SOL    HW156825   6.327   0.080   2.859  0.4951 -0.8886  0.0942
17326SOL    HW256826   6.233   0.193   2.824  1.6206 -0.0521 -0.2538
17327SOL     OW56827   9.314   2.136   3.320 -0.6148  0.0909 -0.0977
17327SOL    HW156828   9.367   2.149   3.241 -1.3017 -1.1071 -0.7792
17327SOL    HW256829   9.328   2.044   3.344  0.1280  0.6272  1.5994
17328SOL     OW56830   5.914   3.924   2.266 -0.8394 -0.3528 -0.3200
17328SOL    HW156831   5.917   3.988   2.195 -0.8813 -0.4307 -0.3935
17328SOL    HW256832   6.000   3.880   2.262  0.8257  2.4656  2.3544
17329SOL     OW56833   6.507   9.814   4.879  0.0959  0.3506  0.2786
17329SOL    HW156834   6.510   9.724   4.847  1.0834  0.7778 -0.8840
17329SOL    HW256835   6.439   9.814   4.946 -2.1506 -0.5374 -1.9662
17330SOL     OW56836   6.463   1.103   2.575 -0.6855  0.2350 -0.4040
17330SOL    HW156837   6.433   1.126   2.487  3.2024  0.7904 -1.6608
17330SOL    HW256838   6.503   1.017   2.565  2.2485  1.4854  0.1905
17331SOL     OW56839   6.526   8.862   3.400 -0.0153 -0.6379  0.0620
17331SOL    HW156840   6.466   8.855   3.326  0.4758  0.5179 -0.4587
17331SOL    HW256841   6.479   8.912   3.466  0.8911  1.5998 -0.9312
17332SOL     OW56842   6.168   0.456   3.521  0.3390 -0.2575  0.0528
17332SOL    HW156843   6.230   0.413   3.462  0.2840  0.6959 -0.7058
17332SOL    HW256844   6.186   0.416   3.606  1.1410 -0.8899 -0.3954
17333SOL     OW56845   5.509   1.907   4.096  0.3110 -0.9490  0.2187
17333SOL    HW156846   5.551   1.839   4.149  0.3603 -0.3785  0.9352
17333SOL    HW256847   5.500   1.869   4.009  0.8253 -1.6719  0.4785
17334SOL     OW56848   7.867   9.477   2.484  0.4617 -0.0265  0.2801
17334SOL    HW156849   7.937   9.486   2.419  1.2065  1.4470  1.2641
17334SOL    HW256850   7.801   9.540   2.456 -0.2713 -1.0437 -0.3459
17335SOL     OW56851   9.136   1.284   3.792 -0.9297 -0.4820  0.3930
17335SOL    HW156852   9.095   1.210   3.838 -0.3393 -0.4926  0.9077
17335SOL    HW256853   9.219   1.249   3.760 -0.5019  0.0524  0.9214
17336SOL     OW56854   5.727   1.424   2.662 -0.2125 -0.0656 -0.6584
17336SOL    HW156855   5.692   1.454   2.746  1.0809  0.5538 -0.3302
17336SOL    HW256856   5.795   1.360   2.685  0.8509  0.8549 -1.1870
17337SOL     OW56857   7.897   1.889   2.970  0.3095 -0.1702 -0.3033
17337SOL    HW156858   7.864   1.910   2.882 -0.5131  0.1859  0.0894
17337SOL    HW256859   7.990   1.869   2.956  1.1682  3.7904 -0.7153
17338SOL     OW56860   4.181   2.001   3.725 -0.5729  0.4416 -0.2736
17338SOL    HW156861   4.169   1.995   3.820  0.9820  0.6864 -0.0605
17338SOL    HW256862   4.101   1.961   3.689 -0.4370 -1.1772  1.1374
17339SOL     OW56863   6.053   1.033   1.326  0.9724 -0.1112  0.2324
17339SOL    HW156864   6.007   1.028   1.242  1.4030 -1.7410  0.0785
17339SOL    HW256865   5.992   1.080   1.384 -0.3646 -1.0979 -0.3340
17340SOL     OW56866   9.501   2.541   2.895 -0.1422  0.4824  0.3397
17340SOL    HW156867   9.562   2.507   2.961 -1.7361  0.1511  1.6852
17340SOL    HW256868   9.466   2.621   2.934  0.6686  1.5669 -1.1415
17341SOL     OW56869   7.037   0.845   2.852  0.0197 -0.7550 -0.0129
17341SOL    HW156870   7.090   0.773   2.817 -0.5104 -2.6389  2.9588
17341SOL    HW256871   7.091   0.923   2.835 -0.3402 -1.4238 -5.2308
17342SOL     OW56872   7.737   1.708   1.401 -0.7863 -0.3006  0.1175
17342SOL    HW156873   7.771   1.659   1.476 -1.7016 -0.1257  0.6645
17342SOL    HW256874   7.646   1.728   1.425 -0.2237  2.3239  0.2616
17343SOL     OW56875   7.871   1.142   2.729 -0.6268  0.2717  0.0240
17343SOL    HW156876   7.947   1.086   2.747  0.3986  1.5203 -0.3241
17343SOL    HW256877   7.831   1.158   2.815  0.7236  1.2850  0.4890
17344SOL     OW56878   7.621   0.377   1.150 -0.1193  0.1057 -0.0644
17344SOL    HW156879   7.673   0.298   1.159  0.1119  0.3656  0.9497
17344SOL    HW256880   7.612   0.390   1.055  0.2237 -0.8704 -0.2316
17345SOL     OW56881   6.620   0.385   2.229 -0.3582 -0.5857 -0.7205
17345SOL    HW156882   6.713   0.401   2.247 -0.7177  0.2845  0.3541
17345SOL    HW256883   6.579   0.377   2.315 -1.2619 -1.1462 -1.1907
17346SOL     OW56884   6.440   0.971   2.838 -0.1638  0.5448  0.4003
17346SOL    HW156885   6.429   0.928   2.753  0.5987  0.5845  0.2790
17346SOL    HW256886   6.409   1.060   2.824 -0.1653  0.5128  0.2009
17347SOL     OW56887   6.787   0.798   2.663 -0.6176 -0.8441  0.0608
17347SOL    HW156888   6.831   0.722   2.701  0.2043  0.4839  1.8536
17347SOL    HW256889   6.701   0.765   2.638 -0.6335 -2.1558  1.7261
17348SOL     OW56890   7.359   1.533   3.414  0.4502 -0.6758  0.0239
17348SOL    HW156891   7.420   1.483   3.359  0.6422 -0.2167 -0.1833
17348SOL    HW256892   7.278   1.482   3.413  0.2483 -0.3439 -1.2166
17349SOL     OW56893   6.917   1.882   2.142 -0.3945 -0.6332  0.2054
17349SOL    HW156894   6.869   1.961   2.165  0.9635  0.1732  0.3417
17349SOL    HW256895   7.009   1.905   2.154  0.0438 -2.1067 -0.1497
17350SOL     OW56896   6.686   0.954   4.354  0.1350 -0.1409  0.1176
17350SOL    HW156897   6.647   1.025   4.303 -0.5375 -1.1853 -0.8606
17350SOL    HW256898   6.630   0.946   4.431  0.1625  0.3347  0.1872
17351SOL     OW56899   6.052   2.014   1.388 -0.4553  0.1339 -0.6935
17351SOL    HW156900   6.108   2.072   1.439 -1.9014  0.3040  0.7417
17351SOL    HW256901   6.040   1.937   1.444  0.5909 -1.1275 -2.1481
17352SOL     OW56902   3.988   1.407   4.899 -0.4496 -0.0984 -0.3550
17352SOL    HW156903   4.016   1.498   4.898  0.1499 -0.2707  0.5128
17352SOL    HW256904   3.926   1.401   4.972  0.7756 -0.7388  0.6720
17353SOL     OW56905   6.021   0.052   4.082 -0.3820  0.4562 -0.3760
17353SOL    HW156906   6.060  -0.030   4.112 -1.2206  0.5427  0.9914
17353SOL    HW256907   6.069   0.120   4.129 -0.5514  0.6849 -0.5298
17354SOL     OW56908   6.200   9.052   1.236 -0.4979 -0.0958 -0.7831
17354SOL    HW156909   6.274   9.003   1.271  0.2836  0.0624 -2.1915
17354SOL    HW256910   6.215   9.054   1.141 -1.7070  0.9186 -0.9623
17355SOL     OW56911   5.590   1.141   2.493 -0.1271 -0.3917  0.1770
17355SOL    HW156912   5.533   1.105   2.426 -0.6645 -0.7601  0.8214
17355SOL    HW256913   5.660   1.077   2.502  0.3847  0.0578 -0.6117
17356SOL     OW56914   6.832   8.732   0.820  0.7122 -0.1383  0.1086
17356SOL    HW156915   6.888   8.805   0.845 -1.0359  1.4518 -0.5436
17356SOL    HW256916   6.815   8.746   0.727 -0.6928 -0.6539  0.2827
17357SOL     OW56917   6.365   1.070   0.466  0.1898 -0.2738 -0.0307
17357SOL    HW156918   6.357   1.079   0.561  1.1079  0.8363 -0.0482
17357SOL    HW256919   6.278   1.043   0.438 -0.3974  0.4701  1.0100
17358SOL     OW56920   6.891   0.505   2.924 -0.1149  0.2166  0.7381
17358SOL    HW156921   6.929   0.580   2.968  3.2066 -1.1414  0.2866
17358SOL    HW256922   6.901   0.524   2.830  0.6951 -0.7462  0.6219
17359SOL     OW56923   6.322   2.028   1.888  0.0124  0.0267  0.2650
17359SOL    HW156924   6.261   1.955   1.899  0.3862 -0.2896  0.2330
17359SOL    HW256925   6.396   1.991   1.839 -0.2970  0.6894 -0.7333
17360SOL     OW56926   4.698   0.334   3.828  0.2188  0.8270  0.8057
17360SOL    HW156927   4.708   0.258   3.885  1.6548  0.3428 -0.0691
17360SOL    HW256928   4.679   0.298   3.742  2.2977  1.3677  0.0794
17361SOL     OW56929   8.714   1.862   3.299 -0.0054  0.2328 -0.2933
17361SOL    HW156930   8.685   1.834   3.212  0.6830 -0.0521 -0.4357
17361SOL    HW256931   8.746   1.782   3.340  3.0954  0.9581 -1.1342
17362SOL     OW56932   7.095   0.668   3.110 -0.1716  0.3392  0.1370
17362SOL    HW156933   7.129   0.689   3.023 -1.3860 -0.1633 -0.4805
17362SOL    HW256934   7.171   0.638   3.159  0.0797 -2.0821 -1.6211
17363SOL     OW56935   7.305   9.893   5.174  0.4405 -0.0472  0.9807
17363SOL    HW156936   7.265   9.945   5.104  1.0993  0.3642  0.9068
17363SOL    HW256937   7.246   9.818   5.184 -1.5733  1.6815  2.4214
17364SOL     OW56938   5.015   0.160   2.297 -0.2309 -0.3332  0.4178
17364SOL    HW156939   5.095   0.166   2.349  0.1826  0.9406 -0.3500
17364SOL    HW256940   5.012   0.242   2.248 -0.8922 -1.2786 -1.1662
17365SOL     OW56941   7.120   1.070   3.772  0.1714 -0.4839  0.3835
17365SOL    HW156942   7.094   1.114   3.691 -0.4535 -0.5345  0.5500
17365SOL    HW256943   7.187   1.007   3.745 -0.0643 -0.5298 -0.1056
17366SOL     OW56944   7.942   1.133   3.098  0.0288  0.3640 -0.0286
17366SOL    HW156945   7.975   1.194   3.164 -0.6499  0.0116  0.6547
17366SOL    HW256946   7.872   1.180   3.054  0.2716  0.4899 -0.2738
17367SOL     OW56947   5.506   1.528   0.840 -0.7766  0.2333  0.1506
17367SOL    HW156948   5.455   1.578   0.776 -0.4103  0.1938 -0.1798
17367SOL    HW256949   5.540   1.453   0.791  0.0489  0.5528  0.2202
17368SOL     OW56950   6.689   3.080   1.489  0.6172  0.4777  0.6047
17368SOL    HW156951   6.615   3.028   1.459  0.8625 -0.1929  1.1448
17368SOL    HW256952   6.731   3.026   1.556  1.1531  1.1703  0.8385
17369SOL     OW56953   7.253   9.877   4.245 -0.0210 -0.4462 -0.0702
17369SOL    HW156954   7.214   9.929   4.174 -0.1214  0.9954  1.0029
17369SOL    HW256955   7.250   9.787   4.214  0.6776  0.2496 -2.2298
17370SOL     OW56956   6.654   1.117   0.980  0.4875  0.3537  0.1421
17370SOL    HW156957   6.640   1.032   1.022  1.4906  0.6269  1.0573
17370SOL    HW256958   6.577   1.168   1.003 -0.1919 -0.3430 -0.5298
17371SOL     OW56959   9.137   1.423   4.051  0.2940 -0.1080 -0.4758
17371SOL    HW156960   9.106   1.513   4.058 -0.2711 -0.3468  0.1754
17371SOL    HW256961   9.145   1.407   3.957  0.5785  0.6769 -0.5899
17372SOL     OW56962   6.071   1.684   4.897 -0.2178  0.3329 -0.0242
17372SOL    HW156963   5.996   1.682   4.956 -0.5258 -0.5001 -0.4352
17372SOL    HW256964   6.073   1.597   4.857  0.4889  0.6095 -0.6112
17373SOL     OW56965   5.314   2.219   2.150  0.2867  0.3174  0.5456
17373SOL    HW156966   5.389   2.189   2.201  0.3346  0.9219  0.8415
17373SOL    HW256967   5.302   2.310   2.178 -0.4006  0.2952  0.3156
17374SOL     OW56968   5.121   0.442   3.998  0.2672 -0.0595  0.0149
17374SOL    HW156969   5.133   0.432   3.904  1.0836 -1.1461  0.2266
17374SOL    HW256970   5.199   0.487   4.028 -0.2348  0.7556  0.0962
17375SOL     OW56971   7.599   0.128   2.568  0.6855  0.0867 -0.4655
17375SOL    HW156972   7.524   0.154   2.622 -0.9833 -2.6751 -1.3587
17375SOL    HW256973   7.592   0.033   2.561  2.8370  0.0351 -2.6896
17376SOL     OW56974   8.150   8.741   2.978  0.0229 -0.0139  0.0407
17376SOL    HW156975   8.170   8.828   2.941 -2.1372 -0.0720 -1.3467
17376SOL    HW256976   8.154   8.754   3.073  0.4856  1.4127 -0.1584
17377SOL     OW56977   6.601   9.663   3.191 -0.7618 -0.0086  0.1343
17377SOL    HW156978   6.514   9.624   3.192 -0.7986  0.0807  0.6044
17377SOL    HW256979   6.599   9.724   3.118 -1.0926 -0.0141  0.1386
17378SOL     OW56980   6.781   2.388   2.453  0.2871  0.0667  0.2149
17378SOL    HW156981   6.704   2.335   2.432  0.2471  0.2655 -0.1441
17378SOL    HW256982   6.810   2.421   2.368  0.4221  0.4662  0.4195
17379SOL     OW56983   6.511   1.823   2.088 -0.3905 -0.0249 -0.1407
17379SOL    HW156984   6.570   1.796   2.017 -2.0359  1.5387 -2.1644
17379SOL    HW256985   6.560   1.805   2.168  2.1916 -0.2879 -1.7215
17380SOL     OW56986   6.675   0.646   2.441  0.3486 -0.8799  0.7562
17380SOL    HW156987   6.749   0.641   2.381 -0.8779 -0.4585 -0.8146
17380SOL    HW256988   6.614   0.579   2.411 -1.0280  0.4741  0.4432
17381SOL     OW56989   5.050   2.378   3.246 -0.5184 -0.1995 -0.1795
17381SOL    HW156990   5.021   2.307   3.303 -2.5865 -0.1738 -1.1783
17381SOL    HW256991   5.000   2.455   3.275 -0.1648  0.2572 -0.7656
17382SOL     OW56992   7.834   9.891   2.748  0.2926  0.3120  0.4512
17382SOL    HW156993   7.855   9.984   2.753 -0.0528  0.4352 -0.2924
17382SOL    HW256994   7.762   9.887   2.686  1.3995 -0.6252 -0.8018
17383SOL     OW56995   7.702   9.682   3.266  0.3311  0.4175  0.5602
17383SOL    HW156996   7.679   9.771   3.293 -0.9467  0.1770  0.2944
17383SOL    HW256997   7.674   9.626   3.339  2.3873  0.3457  1.3314
17384SOL     OW56998   7.284   3.044   2.987  0.1974 -0.0742  1.1262
17384SOL    HW156999   7.253   3.018   2.901 -0.6807  1.0358  1.0963
17384SOL    HW257000   7.317   2.963   3.026  2.7450 -0.1982 -1.1241
17385SOL     OW57001   6.916   3.010   1.692  0.7367  0.4453 -0.6389
17385SOL    HW157002   6.971   2.942   1.731 -0.6336 -0.3528 -0.0499
17385SOL    HW257003   6.951   3.092   1.726 -1.1468 -0.2808  3.3173
17386SOL     OW57004   6.277   0.575   2.469 -0.9012 -0.1534 -0.1290
17386SOL    HW157005   6.316   0.560   2.383 -2.6874 -0.1635 -0.9419
17386SOL    HW257006   6.203   0.634   2.452 -0.8264  0.4347  1.4994
17387SOL     OW57007   4.756   0.171   3.560  0.1700  0.2270  0.2728
17387SOL    HW157008   4.669   0.209   3.575 -0.5597 -0.6104 -1.6362
17387SOL    HW257009   4.792   0.222   3.487  0.1720 -1.1647 -0.7083
17388SOL     OW57010   4.406   1.070   4.007 -0.6233  0.2443 -0.2911
17388SOL    HW157011   4.326   1.024   3.985 -0.4216 -0.5786  0.6713
17388SOL    HW257012   4.454   1.010   4.063 -0.0626  1.3673  0.4516
17389SOL     OW57013   4.755   0.159   4.424  0.1098 -0.3013  0.2553
17389SOL    HW157014   4.753   0.071   4.460 -0.5542  0.1311  1.2807
17389SOL    HW257015   4.665   0.190   4.428  0.8089  1.5713  2.7737
17390SOL     OW57016   6.651   1.018   5.036  0.7665  0.2009 -0.1877
17390SOL    HW157017   6.659   1.107   5.002  2.5133  0.3849  0.6189
17390SOL    HW257018   6.557   1.005   5.049  0.6596  3.1861  2.8820
17391SOL     OW57019   5.866   9.731   3.658 -0.3374 -0.2011  0.1302
17391SOL    HW157020   5.946   9.782   3.672 -0.2312 -0.5319  0.7902
17391SOL    HW257021   5.892   9.664   3.595  0.5378 -1.6743  1.9932
17392SOL     OW57022   6.525   0.948   4.563  0.3958  0.0329 -0.0237
17392SOL    HW157023   6.434   0.918   4.566  0.5195 -0.3746 -0.2793
17392SOL    HW257024   6.559   0.932   4.651 -0.1281  1.2902  0.4058
17393SOL     OW57025   7.635   0.628   4.360  0.1159  0.3154  0.2237
17393SOL    HW157026   7.647   0.704   4.416 -0.2004  0.9451 -0.5551
17393SOL    HW257027   7.627   0.664   4.272 -4.9693 -0.1910  0.3271
17394SOL     OW57028   5.375   0.994   4.767 -0.1541  0.7267 -0.3320
17394SOL    HW157029   5.289   0.977   4.804  0.9247 -1.3373  1.3245
17394SOL    HW257030   5.377   0.943   4.686  0.8825 -2.5283  1.6274
17395SOL     OW57031   6.046   1.152   5.627  0.0878 -0.3811 -0.6113
17395SOL    HW157032   6.075   1.224   5.683 -0.6231 -0.9167  0.4769
17395SOL    HW257033   5.951   1.150   5.638 -0.3129  0.8681 -3.5272
17396SOL     OW57034   6.061   0.032   4.613 -0.1063 -0.6366  0.3231
17396SOL    HW157035   6.109  -0.025   4.553  0.2667 -1.0096  0.9736
17396SOL    HW257036   5.971  -0.002   4.613  0.0265 -0.9850  0.4170
17397SOL     OW57037   7.594   1.326   4.642 -0.2101 -0.6729  0.7549
17397SOL    HW157038   7.510   1.318   4.597 -0.3071 -0.3728  0.8868
17397SOL    HW257039   7.658   1.298   4.576 -0.4660 -1.5499  0.8706
17398SOL     OW57040   7.398   1.082   4.790 -0.4078  0.5467 -0.1294
17398SOL    HW157041   7.416   0.988   4.792 -1.5191  0.3328  2.1537
17398SOL    HW257042   7.413   1.108   4.699  1.1559 -1.5782 -0.5157
17399SOL     OW57043   8.248   1.207   5.206 -0.0134 -0.2459 -0.1705
17399SOL    HW157044   8.260   1.299   5.184  2.0799 -0.4590 -0.0499
17399SOL    HW257045   8.224   1.208   5.299 -0.8670  0.2130 -0.3901
17400SOL     OW57046   7.755   0.281   3.441 -0.0655 -0.0694 -0.4805
17400SOL    HW157047   7.778   0.255   3.530  0.1588  0.5317 -0.3657
17400SOL    HW257048   7.838   0.305   3.401 -0.3509  1.1388 -0.3741
17401SOL     OW57049   6.781   1.218   5.990 -0.5264 -0.7042  0.2947
17401SOL    HW157050   6.732   1.205   6.071 -0.6093 -1.0243  0.1946
17401SOL    HW257051   6.832   1.298   6.005 -1.5945  0.0205  0.1498
17402SOL     OW57052   6.454   9.774   4.595 -0.4279 -0.4135 -0.0958
17402SOL    HW157053   6.359   9.773   4.589 -0.4903  0.5913  0.6774
17402SOL    HW257054   6.473   9.743   4.683 -0.0768  0.3070  0.0850
17403SOL     OW57055   5.377   1.368   5.147  0.3385 -0.1206  0.2322
17403SOL    HW157056   5.339   1.380   5.234 -0.8466  0.2513 -0.3280
17403SOL    HW257057   5.335   1.435   5.093  1.9946  0.4761 -0.3531
17404SOL     OW57058   5.096   2.788   6.087  0.0282  0.0911  0.2037
17404SOL    HW157059   5.067   2.750   6.004  1.1600 -1.1791  0.3634
17404SOL    HW257060   5.015   2.805   6.135 -0.5608 -1.1543 -0.3119
17405SOL     OW57061   5.618   0.760   3.059  0.5279  0.3502  0.2106
17405SOL    HW157062   5.647   0.669   3.063  0.0717  0.1676 -0.5088
17405SOL    HW257063   5.523   0.755   3.052  0.5089  0.8757  0.0621
17406SOL     OW57064   6.650   1.343   2.576  0.4430  0.3910  0.3687
17406SOL    HW157065   6.745   1.342   2.585  0.3410  0.4296  1.5242
17406SOL    HW257066   6.625   1.251   2.567  0.7799  0.5132 -2.2891
17407SOL     OW57067   4.691   1.180   6.174 -0.2107 -0.0509 -0.2265
17407SOL    HW157068   4.730   1.254   6.220 -0.6464  0.7599 -1.1636
17407SOL    HW257069   4.609   1.213   6.139  0.1837 -0.6132 -1.7310
17408SOL     OW57070   8.483   0.417   5.117  0.0223 -0.1130 -0.2322
17408SOL    HW157071   8.521   0.487   5.171  0.1653  0.1041 -0.6168
17408SOL    HW257072   8.458   0.460   5.036 -1.5465 -0.1335  0.2238
17409SOL     OW57073   6.116   2.496   2.226  0.8645 -0.0331  0.2739
17409SOL    HW157074   6.176   2.542   2.169  1.4548 -1.1053  0.0099
17409SOL    HW257075   6.171   2.464   2.298  0.6209 -0.9952  0.0412
17410SOL     OW57076   7.290   9.702   4.728 -0.7283  0.1191 -0.0935
17410SOL    HW157077   7.300   9.609   4.750 -1.9431  0.3263  1.4262
17410SOL    HW257078   7.372   9.725   4.685 -0.0385 -1.4226  0.3489
17411SOL     OW57079   7.255   0.670   4.459 -0.3646 -0.0411  0.1007
17411SOL    HW157080   7.181   0.727   4.438 -0.1430  0.6488  1.1926
17411SOL    HW257081   7.323   0.695   4.396 -1.4440 -1.5111 -1.7098
17412SOL     OW57082   4.825   2.158   6.919 -0.5307  0.2497 -0.6770
17412SOL    HW157083   4.784   2.072   6.912  0.3981 -0.2125 -0.4097
17412SOL    HW257084   4.751   2.219   6.925 -1.1872 -0.5340 -0.7180
17413SOL     OW57085   5.535   0.900   5.219  0.1463 -0.8803 -0.3717
17413SOL    HW157086   5.483   0.831   5.262 -0.0073  0.4364  1.6548
17413SOL    HW257087   5.475   0.974   5.212  1.8803  0.9781  2.8140
17414SOL     OW57088   7.122   2.906   6.118 -0.4121 -0.1227  0.3180
17414SOL    HW157089   7.057   2.885   6.051  0.6432 -1.0933 -0.3892
17414SOL    HW257090   7.171   2.980   6.082  0.2432 -0.7314 -0.0251
17415SOL     OW57091   7.320   1.854   2.808  0.2240 -0.1267  0.0350
17415SOL    HW157092   7.400   1.813   2.840  0.2959 -0.0382 -0.0302
17415SOL    HW257093   7.326   1.846   2.713 -0.5545 -1.4548  0.0871
17416SOL     OW57094   7.525   2.418   6.068  0.2175  0.2230  0.3875
17416SOL    HW157095   7.545   2.326   6.053 -1.5637 -0.2589  0.8675
17416SOL    HW257096   7.610   2.460   6.079  1.0805 -1.2228 -0.6213
17417SOL     OW57097   5.761   0.553   5.250  0.2186  0.2757  0.3092
17417SOL    HW157098   5.683   0.589   5.292  0.4888  1.4309 -0.1573
17417SOL    HW257099   5.735   0.541   5.158  0.5990  0.7088  0.1422
17418SOL     OW57100   6.858   0.729   5.319 -0.7251  0.1054  0.1444
17418SOL    HW157101   6.827   0.639   5.317  0.1387 -0.2116  0.7677
17418SOL    HW257102   6.822   0.765   5.400 -0.6882  0.1853  0.1253
17419SOL     OW57103   6.664   0.535   5.898  0.4831 -0.6381 -0.9268
17419SOL    HW157104   6.610   0.566   5.971  0.5313 -0.4018 -0.9922
17419SOL    HW257105   6.650   0.599   5.829  1.2427 -0.3033 -0.7744
17420SOL     OW57106   7.239   9.431   3.951  0.3861  0.0912  0.0189
17420SOL    HW157107   7.239   9.525   3.969  1.7311  0.4406 -1.7300
17420SOL    HW257108   7.226   9.391   4.037  1.6614  1.8227  1.0518
17421SOL     OW57109   5.271   0.024   4.691 -0.1369 -0.1867  0.1391
17421SOL    HW157110   5.261  -0.015   4.778  2.3331 -2.1567 -0.3898
17421SOL    HW257111   5.329   0.099   4.705  1.7922 -1.5974 -0.0224
17422SOL     OW57112   5.293   0.021   2.822 -0.1529 -0.0547  0.4513
17422SOL    HW157113   5.331  -0.065   2.842 -0.9636 -0.3693  0.6312
17422SOL    HW257114   5.200   0.012   2.841 -0.4565  0.4991 -0.7091
17423SOL     OW57115   6.898   2.006   2.860 -0.7568  0.1789  0.1904
17423SOL    HW157116   6.841   2.052   2.921 -0.2072 -1.0863  1.6993
17423SOL    HW257117   6.873   1.914   2.869  0.1310 -0.1529 -0.6409
17424SOL     OW57118   6.292   9.181   5.156 -0.0206  0.3211  0.7683
17424SOL    HW157119   6.212   9.197   5.208  1.0978  0.8969  2.3619
17424SOL    HW257120   6.267   9.112   5.095 -1.4229 -0.3434  2.0400
17425SOL     OW57121   5.902   0.703   4.782 -0.5283  0.0075  0.3976
17425SOL    HW157122   5.952   0.670   4.707  0.6679  1.2559  0.6292
17425SOL    HW257123   5.815   0.719   4.747  0.3127  1.6702 -1.0593
17426SOL     OW57124   5.869   1.401   4.720 -0.0326 -0.2358  0.4334
17426SOL    HW157125   5.830   1.381   4.634  0.0159  1.6901 -0.0521
17426SOL    HW257126   5.850   1.323   4.773  0.9419 -1.9389 -1.6476
17427SOL     OW57127   6.611   1.207   4.264 -0.2907 -0.4022 -0.1688
17427SOL    HW157128   6.653   1.287   4.296  0.0634 -0.7671  0.2938
17427SOL    HW257129   6.648   1.194   4.177  1.0682 -1.0704  0.4795
17428SOL     OW57130   6.093   0.712   4.448 -0.4852  0.4290 -0.3285
17428SOL    HW157131   6.113   0.653   4.376 -1.2027  1.4346 -1.3662
17428SOL    HW257132   6.018   0.672   4.492 -0.1716 -0.0785 -0.2426
17429SOL     OW57133   6.649   2.756   6.104  0.2674 -0.4030  0.1586
17429SOL    HW157134   6.562   2.744   6.067  1.0221  2.5877 -2.7448
17429SOL    HW257135   6.634   2.805   6.185 -0.6276  1.5801 -1.1873
17430SOL     OW57136   5.897   9.727   4.447  0.2495 -0.0001 -0.3051
17430SOL    HW157137   5.821   9.680   4.481  2.8325 -2.6058  2.2653
17430SOL    HW257138   5.865   9.815   4.430 -3.1643 -0.7995  1.4413
17431SOL     OW57139   8.102   9.379   5.684 -0.2375  0.4706 -0.7400
17431SOL    HW157140   8.172   9.395   5.620  2.7659 -0.9427  2.0682
17431SOL    HW257141   8.053   9.305   5.648  2.9255 -1.9140 -0.2624
17432SOL     OW57142   6.433   1.207   3.843 -0.0499 -0.8046  0.0117
17432SOL    HW157143   6.380   1.253   3.909 -0.2755  0.4069 -1.0061
17432SOL    HW257144   6.522   1.235   3.860 -0.1498 -0.2155 -0.4074
17433SOL     OW57145   5.225   2.060   3.635 -0.1938 -0.3562  0.2897
17433SOL    HW157146   5.311   2.021   3.654 -0.4611 -0.8018  0.5922
17433SOL    HW257147   5.242   2.120   3.563  0.7911  1.1649  1.7494
17434SOL     OW57148   6.422   1.771   3.850  0.3189 -0.4214 -0.0716
17434SOL    HW157149   6.372   1.736   3.777  0.3338 -1.6506  0.5044
17434SOL    HW257150   6.423   1.866   3.835  1.7854 -0.7988 -2.5748
17435SOL     OW57151   7.908   2.006   4.517 -0.3556  0.1443  0.1946
17435SOL    HW157152   7.896   1.942   4.588 -2.0961  0.0915 -0.1187
17435SOL    HW257153   7.970   1.964   4.457 -1.0961 -1.0470  0.2460
17436SOL     OW57154   7.082   1.184   5.023  0.4854 -0.0440  0.0895
17436SOL    HW157155   7.050   1.138   5.101 -1.0889 -1.0770 -1.1283
17436SOL    HW257156   7.041   1.138   4.950 -0.9909  3.1999 -1.1987
17437SOL     OW57157   3.981   8.873   4.371  0.2149  0.0161  0.3160
17437SOL    HW157158   4.000   8.950   4.425 -0.2610  0.2115  0.2052
17437SOL    HW257159   4.064   8.827   4.366  0.4468  0.3950  0.5852
17438SOL     OW57160   6.773   9.572   5.210  0.1429  0.0527  0.1944
17438SOL    HW157161   6.786   9.627   5.133 -1.8956  2.5965  1.5923
17438SOL    HW257162   6.681   9.544   5.204  0.0624  0.0062  1.5102
17439SOL     OW57163   6.270   1.990   5.080 -0.2835 -0.0799 -0.4917
17439SOL    HW157164   6.237   1.901   5.089 -0.6702  0.0620 -0.4929
17439SOL    HW257165   6.195   2.041   5.049 -0.0617  0.2439 -0.5047
17440SOL     OW57166   6.174   0.297   5.883 -0.3946  0.4819  0.6601
17440SOL    HW157167   6.269   0.309   5.894 -0.1700 -1.5853  1.2339
17440SOL    HW257168   6.166   0.247   5.801 -0.8405 -1.1110  1.6580
17441SOL     OW57169   7.842   0.615   3.472 -0.1879  0.0876  0.0483
17441SOL    HW157170   7.753   0.647   3.480 -0.1133 -0.4686  4.0865
17441SOL    HW257171   7.865   0.629   3.380 -3.4313  2.7794 -0.4219
17442SOL     OW57172   8.276   2.127   3.068  0.1540 -0.4531 -0.1352
17442SOL    HW157173   8.288   2.108   3.161  2.7909  0.9420 -0.1416
17442SOL    HW257174   8.332   2.065   3.022  1.7072  1.2091 -0.5723
17443SOL     OW57175   6.162   9.343   4.079  0.0535 -0.2834  0.3987
17443SOL    HW157176   6.130   9.426   4.115 -0.7250 -0.3556 -0.1221
17443SOL    HW257177   6.239   9.323   4.131 -0.6553 -0.0229  1.5617
17444SOL     OW57178   6.933   2.579   4.769  0.5601 -0.1457  0.4958
17444SOL    HW157179   6.963   2.550   4.683 -0.1811  0.3484  0.0657
17444SOL    HW257180   6.857   2.524   4.788 -0.4618  1.0492 -0.0403
17445SOL     OW57181   6.112   0.896   6.065 -0.2700 -0.1857  0.1675
17445SOL    HW157182   6.077   0.958   6.128 -0.5122  1.6912 -1.7521
17445SOL    HW257183   6.046   0.892   5.995  0.5117 -1.3238 -0.5266
17446SOL     OW57184   6.084   9.740   4.004  0.3043  0.3119  0.6449
17446SOL    HW157185   6.052   9.752   3.915  0.1339 -0.3570  0.6093
17446SOL    HW257186   6.166   9.692   3.993 -1.4204 -2.8753  1.0005
17447SOL     OW57187   8.735   0.038   3.719  0.4334  0.0771 -0.6604
17447SOL    HW157188   8.672   0.078   3.660  1.3241  0.9217 -1.0461
17447SOL    HW257189   8.779   0.111   3.762  1.6892 -0.4773 -0.9697
17448SOL     OW57190   4.549   7.341   3.816  0.7654 -0.3944  0.1985
17448SOL    HW157191   4.642   7.362   3.830  0.7336  0.4670 -0.8802
17448SOL    HW257192   4.543   7.248   3.837  1.8403 -0.4141  0.4646
17449SOL     OW57193   6.199   0.506   5.553 -0.1531  0.1994  0.2781
17449SOL    HW157194   6.156   0.480   5.635 -1.0072 -0.9353 -0.5097
17449SOL    HW257195   6.133   0.556   5.506  0.8086  2.0703  0.8821
17450SOL     OW57196   6.653   1.869   6.775 -0.7952 -0.2437  0.2297
17450SOL    HW157197   6.627   1.902   6.861 -2.1622 -0.6280 -0.0220
17450SOL    HW257198   6.613   1.929   6.713 -0.3955 -0.3784 -0.1649
17451SOL     OW57199   6.348   9.810   5.130  0.7126 -0.1731 -0.5032
17451SOL    HW157200   6.336   9.878   5.196  0.3248 -2.3434  1.7300
17451SOL    HW257201   6.259   9.782   5.109  0.9581 -1.7268  0.4749
17452SOL     OW57202   5.679   2.684   6.457 -0.4394  0.3811 -0.0306
17452SOL    HW157203   5.610   2.721   6.402 -0.5017  0.0357 -0.1847
17452SOL    HW257204   5.659   2.590   6.461  0.1521  0.2457 -0.2607
17453SOL     OW57205   6.836   1.533   5.921 -0.0949  0.0544 -0.0045
17453SOL    HW157206   6.804   1.528   6.010 -2.7477  0.1858 -0.9187
17453SOL    HW257207   6.821   1.624   5.894 -0.8285 -0.3795 -1.1151
17454SOL     OW57208   7.284   0.103   5.344  0.3550  0.1743 -0.4221
17454SOL    HW157209   7.279   0.039   5.273 -1.1774  0.6473 -0.7678
17454SOL    HW257210   7.256   0.186   5.303 -0.3305  0.4871  0.6693
17455SOL     OW57211   6.561   0.269   3.861  1.0155 -0.4899 -0.1749
17455SOL    HW157212   6.624   0.228   3.802  0.7625 -2.0960  0.6399
17455SOL    HW257213   6.611   0.286   3.941  0.4170 -1.8491  0.5067
17456SOL     OW57214   6.377   9.543   2.732 -0.5235 -0.1491  0.4758
17456SOL    HW157215   6.304   9.530   2.793 -0.3064 -1.7089  0.4386
17456SOL    HW257216   6.396   9.455   2.700 -0.4804  0.6314 -1.6769
17457SOL     OW57217   6.629   0.742   2.952 -0.1558 -0.1048  0.1707
17457SOL    HW157218   6.584   0.824   2.933 -1.4876 -0.6062  1.1426
17457SOL    HW257219   6.722   0.763   2.941 -0.4463  1.6944  1.0695
17458SOL     OW57220   6.407   9.964   4.197  0.1886 -0.2519  0.1416
17458SOL    HW157221   6.475  10.019   4.234 -1.0584  2.1846 -1.0980
17458SOL    HW257222   6.401   9.991   4.106 -1.0357 -1.8774 -0.2882
17459SOL     OW57223   6.294   1.838   4.773  0.2002  0.0845  0.4967
17459SOL    HW157224   6.229   1.789   4.823  0.0571 -0.6395 -0.3998
17459SOL    HW257225   6.297   1.924   4.816 -0.9224 -0.0651  0.8929
17460SOL     OW57226   7.113   3.029   5.247 -0.2258  0.0664 -0.8783
17460SOL    HW157227   7.161   2.949   5.268 -0.0529 -0.3922 -2.9245
17460SOL    HW257228   7.056   3.005   5.174 -1.5848  1.3195 -0.2479
17461SOL     OW57229   5.447   0.795   4.320  0.5819 -0.6440  0.3063
17461SOL    HW157230   5.438   0.813   4.413 -0.4344 -0.7531  0.2263
17461SOL    HW257231   5.380   0.849   4.278  0.4457 -1.2786 -0.2954
17462SOL     OW57232   5.610   0.608   4.191 -0.2545 -0.1633 -0.5041
17462SOL    HW157233   5.668   0.554   4.243  1.6560 -0.2132 -2.6198
17462SOL    HW257234   5.566   0.665   4.255  1.8103 -0.3940  1.1774
17463SOL     OW57235   4.765   1.164   4.418  0.1954  0.2374  0.2094
17463SOL    HW157236   4.798   1.170   4.508  0.3789  1.5386  0.0718
17463SOL    HW257237   4.670   1.153   4.428  0.3411 -0.7058  0.5714
17464SOL     OW57238   7.528   1.071   2.372 -0.1436  0.0816 -0.2052
17464SOL    HW157239   7.508   1.135   2.305  0.6059  0.6793  0.1329
17464SOL    HW257240   7.582   1.005   2.327 -1.0890 -0.4230 -0.6000
17465SOL     OW57241   7.576   0.864   5.137  0.0932 -0.0810  0.0060
17465SOL    HW157242   7.588   0.957   5.120  1.2481  0.5840  3.8855
17465SOL    HW257243   7.485   0.856   5.165  1.1170  0.7117  3.8745
17466SOL     OW57244   8.164   2.235   5.827 -0.2202  0.1848  0.2128
17466SOL    HW157245   8.168   2.298   5.755 -0.7084 -1.1277 -0.9868
17466SOL    HW257246   8.255   2.209   5.841 -0.0297  1.0783  0.6405
17467SOL     OW57247   6.063   0.260   5.051 -0.3553 -0.0179 -0.2826
17467SOL    HW157248   6.103   0.284   4.968  0.0210  0.2540 -0.0272
17467SOL    HW257249   6.116   0.304   5.117 -0.0100 -1.0746  0.1641
17468SOL     OW57250   7.654   0.822   4.533  0.4943  0.5599  0.1548
17468SOL    HW157251   7.608   0.895   4.491 -0.2816 -0.4484 -0.7895
17468SOL    HW257252   7.597   0.797   4.606  0.2772  0.2730 -0.1117
17469SOL     OW57253   5.997   1.567   3.744 -0.5009 -0.1358  0.6482
17469SOL    HW157254   6.020   1.485   3.789  1.0705 -0.5318 -0.8408
17469SOL    HW257255   5.916   1.546   3.697 -0.3668 -0.6958  0.6551
17470SOL     OW57256   5.800   1.206   4.885  0.6176 -0.3199 -0.5554
17470SOL    HW157257   5.807   1.148   4.960 -1.1547  0.8826  0.5636
17470SOL    HW257258   5.709   1.198   4.856  0.5121  1.4408 -0.7515
17471SOL     OW57259   8.261   1.736   3.393 -0.0547  0.0292  0.0154
17471SOL    HW157260   8.347   1.741   3.351 -1.2912  3.7764 -2.3132
17471SOL    HW257261   8.275   1.770   3.481  1.2061 -1.3364  0.3624
17472SOL     OW57262   7.175   2.495   4.190 -0.2174 -0.2381  0.6228
17472SOL    HW157263   7.237   2.422   4.190  1.8049  1.4338  0.1217
17472SOL    HW257264   7.127   2.485   4.272  0.8767 -1.4279  1.1400
17473SOL     OW57265   7.092   0.812   4.994  0.0901 -0.2270  0.2496
17473SOL    HW157266   7.083   0.829   4.901  0.4061 -0.2058  0.2234
17473SOL    HW257267   7.038   0.878   5.037 -0.6821 -0.7160  0.0533
17474SOL     OW57268   8.101   0.409   4.774 -0.0321  0.4838  0.1138
17474SOL    HW157269   8.028   0.347   4.766 -2.3441  3.2461 -1.4118
17474SOL    HW257270   8.164   0.381   4.708 -0.6358 -0.7968  0.0764
17475SOL     OW57271   6.882   2.263   2.725  0.3511  0.1024  0.0184
17475SOL    HW157272   6.873   2.171   2.750  1.0172  0.0817  0.1752
17475SOL    HW257273   6.812   2.277   2.661  1.4800 -1.0601 -1.5240
17476SOL     OW57274   4.755   0.737   3.880 -0.3473 -0.2040  0.1437
17476SOL    HW157275   4.793   0.804   3.938 -0.2610 -0.2425  0.1315
17476SOL    HW257276   4.791   0.757   3.794 -1.5303  0.6837 -0.1644
17477SOL     OW57277   5.874   9.770   5.675 -0.2139  0.2262 -0.3947
17477SOL    HW157278   5.963   9.754   5.645 -0.4290  0.5781 -1.2240
17477SOL    HW257279   5.885   9.813   5.760  0.3888 -0.7506  0.0314
17478SOL     OW57280   7.361   8.680   3.715 -0.0909 -0.2084 -0.0862
17478SOL    HW157281   7.321   8.628   3.646 -1.9097  0.5184  0.4017
17478SOL    HW257282   7.292   8.738   3.746  0.4495 -0.9946  2.8189
17479SOL     OW57283   4.643   0.581   4.350 -0.2776 -0.2377  0.3507
17479SOL    HW157284   4.560   0.532   4.355 -0.7352  0.5420  0.5171
17479SOL    HW257285   4.621   0.660   4.299  0.5485 -0.3975 -0.2669
17480SOL     OW57286   7.089   8.950   2.551 -0.6251 -0.1004 -0.2391
17480SOL    HW157287   7.183   8.938   2.545 -0.5546  0.4299 -0.2391
17480SOL    HW257288   7.073   9.035   2.510 -1.2323 -0.6864 -1.2385
17481SOL     OW57289   6.339   3.089   4.571  0.1397  0.3559 -0.3512
17481SOL    HW157290   6.270   3.094   4.504 -0.7728 -1.9318  0.3680
17481SOL    HW257291   6.396   3.018   4.541 -0.3065 -0.7132  1.2894
17482SOL     OW57292   5.630   9.977   3.081  0.2886  0.4907 -0.1556
17482SOL    HW157293   5.578  10.056   3.067  1.2023  0.9066 -1.2754
17482SOL    HW257294   5.662   9.953   2.994  1.6887  0.0577  0.4525
17483SOL     OW57295   5.863   0.822   5.011  0.1894  0.1038 -0.2944
17483SOL    HW157296   5.879   0.787   4.924 -1.3762 -3.2555  0.7066
17483SOL    HW257297   5.770   0.845   5.012  0.0472 -0.4672  0.6817
17484SOL     OW57298   7.168   1.866   5.782  0.3739  0.3360  0.0237
17484SOL    HW157299   7.125   1.884   5.866 -1.2976  2.3042 -1.2194
17484SOL    HW257300   7.261   1.862   5.804 -0.2500 -2.6437  2.5393
17485SOL     OW57301   6.807   1.658   4.385  0.1151  0.2622  0.1922
17485SOL    HW157302   6.827   1.744   4.349 -0.1494 -0.0162 -0.6304
17485SOL    HW257303   6.890   1.611   4.383 -0.0514 -0.0054 -0.7713
17486SOL     OW57304   6.008   1.376   5.786  0.3746  0.2812 -0.1705
17486SOL    HW157305   5.915   1.371   5.763 -0.5046  3.2375  2.3305
17486SOL    HW257306   6.015   1.331   5.871  0.9534  1.1756  0.2720
17487SOL     OW57307   6.219   0.954   3.560  0.1020 -0.1255  0.1621
17487SOL    HW157308   6.306   0.960   3.599  0.3639 -0.6357 -0.3262
17487SOL    HW257309   6.210   0.861   3.536 -0.3619  0.0254 -0.2608
17488SOL     OW57310   6.966   0.200   5.587  0.4534 -0.1838  0.0643
17488SOL    HW157311   6.986   0.278   5.639 -0.0013 -1.1266  1.6585
17488SOL    HW257312   6.871   0.202   5.576  0.1379 -1.8278  2.2393
17489SOL     OW57313   5.467   1.900   5.904  0.1569  0.0101 -0.2080
17489SOL    HW157314   5.387   1.873   5.950  0.2417 -1.5552 -0.9538
17489SOL    HW257315   5.537   1.855   5.952  0.5939  1.2775  0.3629
17490SOL     OW57316   6.632   0.861   4.788  0.3420 -0.0054 -0.1774
17490SOL    HW157317   6.619   0.938   4.843  0.6366 -0.1670  0.1184
17490SOL    HW257318   6.609   0.787   4.844 -0.2453 -0.1193 -0.5606
17491SOL     OW57319   5.683   3.331   1.946 -0.0925 -0.0276  0.1308
17491SOL    HW157320   5.609   3.393   1.944 -0.4968 -0.5294 -0.8619
17491SOL    HW257321   5.713   3.332   2.037 -0.2473  1.4518  0.1818
17492SOL     OW57322   6.193   0.616   2.979 -0.4073 -0.4366 -1.0532
17492SOL    HW157323   6.136   0.618   2.903  0.1175 -0.7854 -1.4665
17492SOL    HW257324   6.134   0.610   3.054 -0.8970 -1.4037 -1.5054
17493SOL     OW57325   5.774   0.186   5.023 -0.2744  0.1119 -0.3749
17493SOL    HW157326   5.702   0.204   4.963 -2.8892  2.6183  3.2733
17493SOL    HW257327   5.818   0.270   5.033  1.2431 -0.6931 -0.1437
17494SOL     OW57328   5.117   0.975   3.905 -0.0206  0.5617  0.0811
17494SOL    HW157329   5.073   0.930   3.976  1.8260  0.3152  1.1105
17494SOL    HW257330   5.056   1.044   3.878 -1.8975 -1.1048  0.0155
17495SOL     OW57331   5.022   0.168   3.945  0.3392  0.3251  0.2064
17495SOL    HW157332   4.947   0.136   3.996  1.2204 -1.0376  0.6767
17495SOL    HW257333   5.026   0.262   3.966 -1.3391  0.4678  0.0167
17496SOL     OW57334   6.968   1.492   4.979 -0.8269 -0.3542  0.3500
17496SOL    HW157335   6.921   1.439   5.043 -1.6126 -0.5245 -0.3646
17496SOL    HW257336   6.907   1.502   4.906 -0.0540  0.1079 -0.2423
17497SOL     OW57337   7.767   9.831   4.621  0.2926 -0.2422  0.1038
17497SOL    HW157338   7.818   9.910   4.602 -0.5966  0.4929  0.7177
17497SOL    HW257339   7.777   9.777   4.543  1.9168 -0.0668  0.1658
17498SOL     OW57340   5.224   1.044   5.747  0.0808  0.6915 -0.2133
17498SOL    HW157341   5.149   1.014   5.697  0.1556  1.5239 -0.8356
17498SOL    HW257342   5.291   1.063   5.681  0.4292  1.0977  0.2500
17499SOL     OW57343   6.519   9.752   4.315  0.2299  0.0873 -0.2156
17499SOL    HW157344   6.464   9.813   4.266 -0.7107 -0.7281 -0.1925
17499SOL    HW257345   6.501   9.772   4.407  0.9196  0.6556 -0.1979
17500SOL     OW57346   6.800   0.757   6.127 -0.0717  0.1134  0.6932
17500SOL    HW157347   6.719   0.784   6.083 -0.8673 -0.6265  1.6746
17500SOL    HW257348   6.857   0.728   6.056 -0.4461  1.1818 -0.0651
17501SOL     OW57349   6.089   1.395   3.975 -0.1816 -0.1427  0.3409
17501SOL    HW157350   6.161   1.377   4.035  0.1301  1.8607  0.5919
17501SOL    HW257351   6.116   1.355   3.892  0.3998 -0.9567  0.9127
17502SOL     OW57352   5.539   1.267   5.589 -0.8465 -0.7416 -0.5113
17502SOL    HW157353   5.520   1.215   5.667 -0.8080  0.6838  0.4784
17502SOL    HW257354   5.453   1.299   5.561 -0.5486  1.2387  0.7558
17503SOL     OW57355   6.875   8.979   3.678 -0.2724 -0.0675 -0.1104
17503SOL    HW157356   6.801   9.038   3.664  0.1008 -0.0067 -2.0093
17503SOL    HW257357   6.948   9.021   3.633  0.9306 -0.1195  1.7579
17504SOL     OW57358   6.731   2.502   3.355  0.1832  0.3599  0.6879
17504SOL    HW157359   6.753   2.446   3.280 -0.6058  0.5494  0.3027
17504SOL    HW257360   6.815   2.528   3.392  0.6163  0.9862 -0.6853
17505SOL     OW57361   6.611   0.014   4.468 -0.2136 -0.1511 -0.7315
17505SOL    HW157362   6.696   0.058   4.470 -0.3986  0.1678  0.2294
17505SOL    HW257363   6.629  -0.074   4.501 -0.2393 -0.1209 -0.6394
17506SOL     OW57364   5.470   1.096   3.888  0.4897  0.2036  0.2102
17506SOL    HW157365   5.499   1.008   3.862  0.1731 -0.2645  1.3910
17506SOL    HW257366   5.390   1.081   3.938  0.1585  1.2072 -0.0076
17507SOL     OW57367   7.158   0.637   4.075 -0.2686  0.5461  0.2592
17507SOL    HW157368   7.175   0.556   4.123  1.0708  0.9480  0.4754
17507SOL    HW257369   7.244   0.668   4.049 -0.7300  2.2255  0.6716
17508SOL     OW57370   5.576   0.150   4.810  0.5285  0.1627 -0.4263
17508SOL    HW157371   5.592   0.107   4.726 -0.9143  0.8489 -1.0710
17508SOL    HW257372   5.516   0.091   4.857 -0.4132  0.8284 -0.7803
17509SOL     OW57373   5.464   1.293   6.227  0.1028  0.0401 -0.2437
17509SOL    HW157374   5.451   1.201   6.248 -0.5956  0.1827 -0.0371
17509SOL    HW257375   5.547   1.315   6.269  0.0234 -0.3646  0.1350
17510SOL     OW57376   4.979   1.541   4.317 -0.1590  0.3679  0.0058
17510SOL    HW157377   4.886   1.545   4.341 -0.2430  1.0988 -0.4419
17510SOL    HW257378   4.980   1.490   4.236 -0.1186 -0.0057  0.2365
17511SOL     OW57379   6.016   1.602   3.382 -0.2483 -0.1259  0.5378
17511SOL    HW157380   6.078   1.674   3.393  1.7462 -1.4090 -1.5109
17511SOL    HW257381   5.987   1.609   3.291 -1.1830 -1.0002  0.7563
17512SOL     OW57382   4.905   0.542   4.852 -0.0352 -0.7920 -0.0858
17512SOL    HW157383   4.851   0.504   4.922 -0.7164  0.5153  0.1179
17512SOL    HW257384   4.975   0.588   4.898 -0.7953  0.5351 -0.2272
17513SOL     OW57385   5.441   0.333   6.129  0.2170 -0.7812 -0.5204
17513SOL    HW157386   5.379   0.333   6.056 -0.3371 -1.6042 -0.0705
17513SOL    HW257387   5.386   0.345   6.207  0.9600  1.5506 -0.3447
17514SOL     OW57388   3.867   1.076   5.307 -0.4990  0.2344  0.1490
17514SOL    HW157389   3.873   1.053   5.215 -2.6579  0.3487 -0.0432
17514SOL    HW257390   3.958   1.086   5.335  0.1562  1.1438 -2.1918
17515SOL     OW57391   7.127   0.721   5.258  0.1724  0.5998 -0.3985
17515SOL    HW157392   7.138   0.769   5.175  1.1913 -0.6718 -1.0171
17515SOL    HW257393   7.032   0.711   5.267  0.0876 -0.4473 -2.1331
17516SOL     OW57394   7.770   0.814   4.865 -0.2031 -0.0960 -0.1095
17516SOL    HW157395   7.784   0.901   4.827 -0.2818 -0.0504 -0.0316
17516SOL    HW257396   7.800   0.754   4.797  4.1599  0.0470  1.5092
17517SOL     OW57397   7.735   0.644   3.213  0.2169 -0.9048 -0.7207
17517SOL    HW157398   7.804   0.698   3.176 -0.8589  0.4354 -0.8233
17517SOL    HW257399   7.699   0.596   3.138  0.6906 -1.2061 -0.7519
17518SOL     OW57400   5.639   1.715   5.598 -0.1274  0.5211  0.9512
17518SOL    HW157401   5.673   1.659   5.528  0.8173  2.6917 -0.3815
17518SOL    HW257402   5.717   1.757   5.635 -0.9974  2.6006  0.4814
17519SOL     OW57403   5.889   2.896   3.785 -0.5735  0.2368  0.0438
17519SOL    HW157404   5.871   2.813   3.829 -3.7093  0.3680 -0.9133
17519SOL    HW257405   5.963   2.877   3.727  0.4491 -1.1777  1.7633
17520SOL     OW57406   5.613   0.521   3.734  0.2887 -0.7348 -0.6937
17520SOL    HW157407   5.600   0.597   3.676  2.6589 -0.8070 -1.3751
17520SOL    HW257408   5.530   0.512   3.781 -1.1056  0.3406 -2.8922
17521SOL     OW57409   5.617   9.882   3.961  0.0981 -0.3464  0.1902
17521SOL    HW157410   5.540   9.899   4.015 -0.2908 -2.3095  0.3070
17521SOL    HW257411   5.602   9.932   3.881 -1.3704 -0.7930  0.1652
17522SOL     OW57412   3.803   0.015   6.444 -0.1946  0.1428  0.1395
17522SOL    HW157413   3.832   0.062   6.523  0.8197  1.6138 -1.0934
17522SOL    HW257414   3.836   0.067   6.371  0.0428 -1.9448 -1.2792
17523SOL     OW57415   5.221   0.838   4.485  0.4950  0.5163 -0.3160
17523SOL    HW157416   5.196   0.756   4.528  2.2127 -0.4383 -1.0702
17523SOL    HW257417   5.138   0.876   4.456 -0.6259  0.8059  3.0909
17524SOL     OW57418   8.202   0.421   5.383 -0.4545 -0.3545  0.9374
17524SOL    HW157419   8.240   0.436   5.470 -1.0140  0.9105  0.9721
17524SOL    HW257420   8.220   0.502   5.335 -1.9823 -0.2388  0.5454
17525SOL     OW57421   8.158   1.768   3.666 -0.0041  0.2666  0.1757
17525SOL    HW157422   8.130   1.719   3.589 -1.7147 -0.1246  1.0289
17525SOL    HW257423   8.225   1.712   3.706  0.2183  0.0387 -0.5106
17526SOL     OW57424   6.917   1.888   4.223 -0.8452  0.2405  0.2097
17526SOL    HW157425   6.994   1.862   4.173 -0.6902  0.9782  0.0566
17526SOL    HW257426   6.952   1.933   4.299 -1.1284  0.9101 -0.0514
17527SOL     OW57427   6.079   0.935   4.053 -0.1486  0.2514  0.3548
17527SOL    HW157428   6.065   0.845   4.080 -0.7395 -0.0060 -0.7722
17527SOL    HW257429   6.063   0.935   3.958 -0.5763  1.6114  0.4087
17528SOL     OW57430   7.639   2.219   5.874  0.2390  0.1421  0.1346
17528SOL    HW157431   7.727   2.257   5.874 -0.0406  0.8522 -1.4201
17528SOL    HW257432   7.653   2.125   5.867  0.8977  0.4058 -3.2558
17529SOL     OW57433   5.960   0.869   3.837  0.6167  0.4701  0.2230
17529SOL    HW157434   6.040   0.821   3.817  0.3043  0.1176 -0.1729
17529SOL    HW257435   5.892   0.802   3.840  0.1685  0.8925 -0.4145
17530SOL     OW57436   6.028   1.237   5.164 -0.3935 -0.0739 -0.1951
17530SOL    HW157437   5.954   1.264   5.218 -2.1049 -0.4802 -2.2823
17530SOL    HW257438   6.011   1.144   5.144  0.9326 -0.3106 -0.2696
17531SOL     OW57439   6.011   2.031   2.107  0.6505 -0.6554  0.0068
17531SOL    HW157440   6.005   2.060   2.198 -1.9940  0.8002 -0.5657
17531SOL    HW257441   5.923   1.998   2.087  0.3661  1.5502 -2.7748
17532SOL     OW57442   7.241   1.891   5.170  0.4359 -0.7404 -0.3472
17532SOL    HW157443   7.172   1.906   5.235  0.4300  0.6439 -0.6701
17532SOL    HW257444   7.322   1.895   5.221  0.3098 -2.4801  0.0527
17533SOL     OW57445   6.851   1.606   3.281  0.2693  0.1888  0.3212
17533SOL    HW157446   6.787   1.536   3.267  1.4907 -0.8769 -0.0598
17533SOL    HW257447   6.857   1.614   3.376 -0.6217  0.4855  0.3610
17534SOL     OW57448   7.671   3.261   4.286  0.3270 -0.3284  0.7485
17534SOL    HW157449   7.671   3.336   4.228  1.8139 -0.5946  0.3818
17534SOL    HW257450   7.626   3.291   4.365 -1.0643  0.2485 -0.2410
17535SOL     OW57451   6.980   0.009   6.269 -0.8117 -0.5521  0.1521
17535SOL    HW157452   7.011  -0.001   6.359  3.0053 -0.1267 -1.0573
17535SOL    HW257453   6.982   0.103   6.253  4.2182 -0.8980 -2.1753
17536SOL     OW57454   6.325   9.706   3.744  0.1065 -0.3533 -0.1440
17536SOL    HW157455   6.392   9.678   3.682  1.6748  2.5117  0.1913
17536SOL    HW257456   6.352   9.665   3.827  0.4574 -0.6599 -0.4059
17537SOL     OW57457   5.094   0.871   4.844 -0.2477 -0.1468 -0.4583
17537SOL    HW157458   5.131   0.786   4.820  0.0844 -0.2313  0.3236
17537SOL    HW257459   5.026   0.850   4.907  0.2556  0.2035  0.2135
17538SOL     OW57460   7.259   0.999   2.823  0.2750 -0.2397  0.2462
17538SOL    HW157461   7.330   0.936   2.828  0.2709 -0.4505 -1.8225
17538SOL    HW257462   7.297   1.075   2.778 -0.5523 -0.0127 -0.0905
17539SOL     OW57463   5.932   0.625   6.002  0.7292 -0.6132  0.1408
17539SOL    HW157464   5.976   0.601   5.920 -1.9832 -1.7172 -1.0615
17539SOL    HW257465   5.897   0.713   5.985 -1.4435 -1.5688 -0.6663
17540SOL     OW57466   7.419   1.236   5.042  0.6521 -0.5814 -0.3608
17540SOL    HW157467   7.410   1.180   4.965 -0.8243 -1.5926  0.5337
17540SOL    HW257468   7.489   1.195   5.093 -0.6075 -1.7914  0.4254
17541SOL     OW57469   6.028   1.338   3.391  0.0836 -0.3618  0.4216
17541SOL    HW157470   6.119   1.314   3.373 -0.1222 -0.5753 -0.3362
17541SOL    HW257471   6.032   1.432   3.408  0.2752 -0.1388 -0.8090
17542SOL     OW57472   8.368   2.163   4.111  0.7877 -0.2997  0.3272
17542SOL    HW157473   8.311   2.240   4.116 -0.4320 -1.1848  0.1858
17542SOL    HW257474   8.391   2.156   4.018 -1.6086 -1.9050 -0.1580
17543SOL     OW57475   6.296   0.803   6.498 -0.0569 -0.1232 -0.4872
17543SOL    HW157476   6.253   0.872   6.548  2.2482 -0.7633  2.5547
17543SOL    HW257477   6.292   0.726   6.555 -0.3844 -1.8530 -2.7766
17544SOL     OW57478   7.561   1.726   2.880  0.0760  0.0543 -0.1762
17544SOL    HW157479   7.640   1.672   2.889 -0.1085 -0.2697 -0.4795
17544SOL    HW257480   7.535   1.745   2.970 -0.5796 -1.4385 -0.0291
17545SOL     OW57481   6.581   2.204   6.292  0.1530  0.0001 -0.5064
17545SOL    HW157482   6.657   2.260   6.310 -1.3113  2.2122 -1.0657
17545SOL    HW257483   6.529   2.254   6.229 -1.6936 -1.5597 -0.2489
17546SOL     OW57484   5.919   1.599   4.093  1.3843 -0.9164 -0.1960
17546SOL    HW157485   5.928   1.692   4.074  0.7601 -0.5056  1.4936
17546SOL    HW257486   5.981   1.557   4.033  2.3128  0.6403 -0.3511
17547SOL     OW57487   4.326   9.923   3.969 -0.0947 -0.0062 -0.2244
17547SOL    HW157488   4.249   9.965   4.007  1.1274  2.3750 -0.2391
17547SOL    HW257489   4.381   9.903   4.045  0.3008  0.4667 -0.3850
17548SOL     OW57490   6.543   1.954   5.724  0.0376 -0.5319 -0.1223
17548SOL    HW157491   6.585   1.902   5.657  0.4476 -0.1064 -0.2022
17548SOL    HW257492   6.456   1.916   5.734  0.2084 -0.9992 -0.4300
17549SOL     OW57493   6.520   9.946   3.109  0.0386  0.3749 -0.4857
17549SOL    HW157494   6.489   9.980   3.026  0.8384  2.6631  0.1344
17549SOL    HW257495   6.615   9.962   3.109  0.3230 -1.1262  0.1735
17550SOL     OW57496   7.000   1.496   5.573 -0.1416  0.1772  0.0442
17550SOL    HW157497   7.035   1.442   5.644 -0.9127  0.0119  0.3001
17550SOL    HW257498   7.026   1.449   5.493 -1.2321 -0.8405  0.2817
17551SOL     OW57499   6.465   1.672   6.167  0.0095 -0.6137 -0.1350
17551SOL    HW157500   6.401   1.674   6.096  1.3306 -0.2427 -1.3585
17551SOL    HW257501   6.420   1.629   6.239 -2.1813  1.1864 -0.3722
17552SOL     OW57502   5.576   1.542   3.625  0.0252 -0.4389  0.3994
17552SOL    HW157503   5.651   1.591   3.592 -1.2775  1.0228 -0.5095
17552SOL    HW257504   5.605   1.451   3.628  1.1446 -0.2089 -2.0473
17553SOL     OW57505   6.873   0.670   4.298  0.4717  0.6569  0.0828
17553SOL    HW157506   6.956   0.709   4.324 -0.5100  1.8237  1.5967
17553SOL    HW257507   6.809   0.707   4.359 -1.2470  0.2246 -1.3946
17554SOL     OW57508   7.872   9.368   4.975 -0.3853 -0.6375  0.6245
17554SOL    HW157509   7.792   9.315   4.975  0.6762 -2.2978  0.2423
17554SOL    HW257510   7.912   9.349   4.891  0.7177 -0.3123  1.0727
17555SOL     OW57511   6.328   1.678   4.118  0.6409  0.2068  0.7695
17555SOL    HW157512   6.394   1.612   4.096 -1.0677 -1.4235  0.3884
17555SOL    HW257513   6.327   1.738   4.043  2.1382  0.6358  1.0784
17556SOL     OW57514   6.622   1.213   3.558 -0.1337 -0.2701 -0.2544
17556SOL    HW157515   6.621   1.160   3.479 -0.3889 -0.4234 -0.1508
17556SOL    HW257516   6.633   1.150   3.629  0.3910 -0.1054 -0.1905
17557SOL     OW57517   7.841   1.442   4.230 -0.3465 -0.0205 -0.3847
17557SOL    HW157518   7.935   1.444   4.244 -0.3568  2.4056 -0.4508
17557SOL    HW257519   7.827   1.371   4.167  1.6941  1.0813 -2.1449
17558SOL     OW57520   6.591   0.808   3.261  0.3497 -0.4573  0.0434
17558SOL    HW157521   6.512   0.755   3.275  0.8928 -1.1376  0.5589
17558SOL    HW257522   6.663   0.745   3.264  0.9019  0.1301 -0.6268
17559SOL     OW57523   6.507   0.207   4.304  0.0934  0.1363  0.2014
17559SOL    HW157524   6.468   0.137   4.357 -0.3680  0.5391  0.3961
17559SOL    HW257525   6.543   0.268   4.368 -0.2473  0.5000  0.0471
17560SOL     OW57526   7.353   9.344   5.145 -0.2693  0.0407 -0.6428
17560SOL    HW157527   7.358   9.403   5.070  1.0671  1.2839  0.3687
17560SOL    HW257528   7.262   9.317   5.150 -0.7743  1.5599 -1.5073
17561SOL     OW57529   6.413   0.515   4.084 -0.3243 -0.3350  0.5185
17561SOL    HW157530   6.501   0.532   4.117  1.1538  0.1045 -3.3601
17561SOL    HW257531   6.411   0.420   4.069  0.6400  0.0264 -2.2313
17562SOL     OW57532   6.295   1.339   4.130  0.3421  0.1720  0.4142
17562SOL    HW157533   6.380   1.377   4.110  0.3937 -0.1034  0.1033
17562SOL    HW257534   6.308   1.291   4.212 -0.0114  1.7826  1.4415
17563SOL     OW57535   5.230   1.287   4.118  0.1423  0.0551  0.2633
17563SOL    HW157536   5.216   1.225   4.189 -0.2361 -1.1507 -0.8597
17563SOL    HW257537   5.142   1.312   4.089  0.2792  1.4376  0.9688
17564SOL     OW57538   5.197   1.700   5.782  0.4509  0.1900  0.3543
17564SOL    HW157539   5.111   1.701   5.740  1.3549 -0.2627 -1.5543
17564SOL    HW257540   5.178   1.703   5.876 -1.6343  0.3646 -0.0555
17565SOL     OW57541   7.478   1.203   5.429 -0.5723 -0.8231 -0.5426
17565SOL    HW157542   7.492   1.112   5.455 -2.6147 -0.8704  0.4190
17565SOL    HW257543   7.567   1.238   5.417  0.3014 -2.1020  1.9650
17566SOL     OW57544   5.801   0.805   3.530  0.2617 -0.3245 -0.7747
17566SOL    HW157545   5.727   0.745   3.531  0.5295 -0.6615  0.9359
17566SOL    HW257546   5.875   0.751   3.501  1.0770 -1.6200  3.3196
17567SOL     OW57547   5.298   0.083   5.422  0.8168  0.1303 -0.4296
17567SOL    HW157548   5.288  -0.012   5.422 -0.7742  0.2706 -1.3615
17567SOL    HW257549   5.265   0.111   5.507 -2.4193  0.1353 -1.5812
17568SOL     OW57550   4.803   1.436   4.933  0.3262 -0.1423  0.3379
17568SOL    HW157551   4.838   1.485   5.008  1.1612  0.6652 -0.5680
17568SOL    HW257552   4.852   1.469   4.858 -0.6646 -0.7880 -0.6022
17569SOL     OW57553   5.750   0.337   4.661  0.1624 -0.1991  0.8315
17569SOL    HW157554   5.696   0.301   4.731  2.8581 -3.5371  1.2957
17569SOL    HW257555   5.711   0.304   4.581  0.8088 -1.6994  1.1153
17570SOL     OW57556   5.135   1.714   3.916  0.0900  0.8304 -0.4814
17570SOL    HW157557   5.224   1.689   3.942 -0.3604  0.9526  1.2812
17570SOL    HW257558   5.097   1.634   3.882  0.3728  0.3835  0.2315
17571SOL     OW57559   5.311   1.262   3.454  0.0057  0.4305 -0.1262
17571SOL    HW157560   5.329   1.336   3.396 -0.3508 -0.5270 -1.4933
17571SOL    HW257561   5.275   1.194   3.396 -2.7359  0.3242  1.5811
17572SOL     OW57562   7.014   2.647   5.494 -0.6559 -0.4507  0.6696
17572SOL    HW157563   6.977   2.691   5.418 -0.8333  0.6948  1.3961
17572SOL    HW257564   7.091   2.601   5.460 -0.4344  0.4729 -0.1058
17573SOL     OW57565   7.426   9.831   3.632  0.4860  0.0553  0.0504
17573SOL    HW157566   7.444   9.853   3.723 -0.4571 -2.1646  0.7940
17573SOL    HW257567   7.506   9.789   3.601  0.5988  0.2864  0.0303
17574SOL     OW57568   7.227   0.092   5.009 -0.2995 -0.0564  0.1340
17574SOL    HW157569   7.320   0.108   4.991 -0.5300  0.7076 -0.4082
17574SOL    HW257570   7.194   0.176   5.039 -0.9574 -0.1683 -0.2738
17575SOL     OW57571   6.908   0.970   5.551  0.9443  0.2676 -0.1250
17575SOL    HW157572   6.838   0.911   5.523  0.5717  1.3045 -1.4320
17575SOL    HW257573   6.868   1.024   5.619  0.1458  1.5315 -1.5633
17576SOL     OW57574   7.326   0.576   3.203 -0.1869 -0.4123 -0.1979
17576SOL    HW157575   7.352   0.535   3.120 -2.3201 -2.4703  0.1095
17576SOL    HW257576   7.390   0.545   3.266 -0.4752 -1.4841 -0.4258
17577SOL     OW57577   4.984   0.943   5.655  0.4296 -0.3936 -0.2165
17577SOL    HW157578   4.957   0.968   5.743 -3.0979  3.1873 -2.1369
17577SOL    HW257579   4.951   0.854   5.643 -1.4912  0.1190  1.1646
17578SOL     OW57580   5.720   9.293   6.781  0.5973 -0.4821  0.5297
17578SOL    HW157581   5.653   9.311   6.716  1.1332 -1.2761 -0.2545
17578SOL    HW257582   5.753   9.379   6.806 -0.3717 -0.1174  0.5657
17579SOL     OW57583   5.399   1.042   6.340 -0.2855 -0.0470 -0.7570
17579SOL    HW157584   5.335   1.057   6.410 -0.0182 -1.4821 -0.1943
17579SOL    HW257585   5.437   0.956   6.359  1.8085  0.7618 -1.0967
17580SOL     OW57586   5.565   0.961   7.298 -0.4691 -0.2261 -0.3899
17580SOL    HW157587   5.559   0.879   7.248 -1.3836  0.6033 -1.6800
17580SOL    HW257588   5.489   1.012   7.271 -0.2823  0.7890  0.9043
17581SOL     OW57589   6.278   0.601   6.979 -0.7771 -0.5076  0.0702
17581SOL    HW157590   6.236   0.686   6.992 -1.0822 -0.0879 -3.4029
17581SOL    HW257591   6.235   0.564   6.902 -0.4377 -3.7042  1.3468
17582SOL     OW57592   7.869   1.452   6.150 -0.3218  0.3646 -0.0541
17582SOL    HW157593   7.860   1.358   6.165  0.0673  0.3114 -0.1640
17582SOL    HW257594   7.954   1.462   6.108  1.0190  1.0606  2.6918
17583SOL     OW57595   5.997   9.944   7.621 -0.4285 -0.1687 -0.1747
17583SOL    HW157596   6.065   9.890   7.661 -0.6502 -0.9551 -0.8431
17583SOL    HW257597   6.038  10.031   7.612 -0.5760  0.1735  2.2263
17584SOL     OW57598   7.941   2.396   6.945  0.1332  0.1381  0.3205
17584SOL    HW157599   8.013   2.340   6.916  0.3267  1.0604 -1.0636
17584SOL    HW257600   7.984   2.472   6.985 -0.0598  0.6317 -0.3986
17585SOL     OW57601   6.653   2.094   7.880 -0.4888  0.1217 -0.1893
17585SOL    HW157602   6.614   2.099   7.967  1.5011 -0.6321  0.7880
17585SOL    HW257603   6.663   2.000   7.863  0.9771  0.2960 -0.3632
17586SOL     OW57604   6.833   1.388   6.368  0.7909 -0.0928  0.1921
17586SOL    HW157605   6.853   1.431   6.450  1.3360 -0.7604  0.4117
17586SOL    HW257606   6.797   1.457   6.312  1.3276  0.5574  0.6557
17587SOL     OW57607   6.446   0.799   8.241 -0.3181 -0.8066  0.1841
17587SOL    HW157608   6.457   0.891   8.218  0.0938 -0.2753  2.4282
17587SOL    HW257609   6.505   0.752   8.182 -1.1411  0.2623 -1.5256
17588SOL     OW57610   7.490   0.871   5.747  0.2844  0.0229  0.3081
17588SOL    HW157611   7.400   0.905   5.744  0.8438  1.3731 -1.8130
17588SOL    HW257612   7.530   0.902   5.667  2.9761  0.2463  1.7027
17589SOL     OW57613   6.591   2.656   6.469  0.0224  0.7760  0.2474
17589SOL    HW157614   6.685   2.672   6.482  0.0325  2.0675 -1.3499
17589SOL    HW257615   6.571   2.694   6.384 -1.3322 -2.1537 -0.8258
17590SOL     OW57616   5.909   1.647   7.891 -0.1244 -0.0936  0.3630
17590SOL    HW157617   5.994   1.621   7.927 -0.3789  0.0189  1.0426
17590SOL    HW257618   5.845   1.610   7.952 -0.5245  0.9849  0.6048
17591SOL     OW57619   5.765   1.084   5.690 -0.0245 -0.2243  0.5063
17591SOL    HW157620   5.693   1.059   5.748  0.2736 -0.1728  0.8970
17591SOL    HW257621   5.757   1.025   5.615 -2.8970  2.3348 -1.3269
17592SOL     OW57622   6.633   1.726   7.171 -0.1325 -0.2109  0.3937
17592SOL    HW157623   6.617   1.654   7.232  2.4803  0.0154  1.3976
17592SOL    HW257624   6.727   1.740   7.175 -0.2011  1.2480 -2.1067
17593SOL     OW57625   7.055   0.409   5.778 -0.3022 -0.7685 -0.1735
17593SOL    HW157626   7.017   0.405   5.866 -0.0787  1.5867  0.0534
17593SOL    HW257627   6.991   0.457   5.726  0.7825  0.2160 -0.6176
17594SOL     OW57628   6.563   0.274   7.003  0.2878 -0.0354  0.5145
17594SOL    HW157629   6.513   0.293   6.924 -0.2197  0.2331  0.9032
17594SOL    HW257630   6.507   0.215   7.053  0.5962 -0.1760  0.6919
17595SOL     OW57631   6.207   0.200   5.404 -0.1803  0.0331  0.3153
17595SOL    HW157632   6.246   0.196   5.491 -2.5806 -0.5480  1.4144
17595SOL    HW257633   6.132   0.259   5.415 -0.8627 -0.5406 -1.2064
17596SOL     OW57634   7.984   1.946   5.483  0.4643  0.6153  0.4576
17596SOL    HW157635   8.016   1.919   5.397  1.4359 -2.6675  1.7800
17596SOL    HW257636   8.063   1.974   5.530  0.9083 -3.5062  2.3147
17597SOL     OW57637   5.213   1.132   5.333  0.4420  0.2172  0.0934
17597SOL    HW157638   5.171   1.200   5.386 -0.6415 -0.2310 -0.1617
17597SOL    HW257639   5.284   1.099   5.387  0.1195  0.6133  0.7655
17598SOL     OW57640   6.453   2.174   4.453  0.2598 -0.3329  0.2723
17598SOL    HW157641   6.484   2.089   4.424 -2.1974 -1.5529  1.1554
17598SOL    HW257642   6.441   2.165   4.547  0.6676  1.2119  0.4932
17599SOL     OW57643   7.200   0.413   7.126  0.6703 -0.6260 -0.1553
17599SOL    HW157644   7.253   0.333   7.117 -0.6195 -1.5462  0.3195
17599SOL    HW257645   7.122   0.396   7.073  0.9912  0.8648 -1.1411
17600SOL     OW57646   6.554   0.636   7.963  0.6583 -0.0213  0.2748
17600SOL    HW157647   6.646   0.613   7.971  0.4740 -0.5591  0.8324
17600SOL    HW257648   6.554   0.713   7.906  1.3631 -0.6564 -0.5916
17601SOL     OW57649   6.195   1.069   7.245 -0.5896  0.2253 -0.6464
17601SOL    HW157650   6.126   1.093   7.307 -0.8540  0.5323 -1.0596
17601SOL    HW257651   6.254   1.144   7.244 -0.5967  0.2299 -0.7816
17602SOL     OW57652   7.179   1.235   9.138 -0.4058  0.6234  0.2071
17602SOL    HW157653   7.211   1.145   9.145 -3.3547 -0.4723  0.0939
17602SOL    HW257654   7.155   1.259   9.227 -1.1072  0.7227 -0.0058
17603SOL     OW57655   6.072   0.530   6.786  0.1788  0.1020 -0.1243
17603SOL    HW157656   6.060   0.540   6.691  0.7568 -1.8835 -0.4251
17603SOL    HW257657   6.044   0.441   6.804 -1.4755  0.9884  1.8709
17604SOL     OW57658   6.532   0.201   6.611 -0.3070  0.0261  0.0021
17604SOL    HW157659   6.517   0.221   6.519 -1.8452  0.9306  0.4327
17604SOL    HW257660   6.453   0.153   6.638  0.5067 -0.9708  0.6293
17605SOL     OW57661   7.539   1.248   5.855  0.2996 -0.3063  0.5687
17605SOL    HW157662   7.590   1.329   5.846 -0.7194  0.2836  0.0663
17605SOL    HW257663   7.456   1.267   5.812  0.6060 -2.1231 -0.8899
17606SOL     OW57664   8.221   1.128   8.491  0.3117 -0.1486  0.4532
17606SOL    HW157665   8.133   1.164   8.487  0.9562  1.3769 -0.9114
17606SOL    HW257666   8.210   1.039   8.524 -1.6122  0.3925  1.3286
17607SOL     OW57667   5.322   1.774   6.756 -0.2148 -0.0670 -0.2200
17607SOL    HW157668   5.281   1.692   6.731 -0.5017 -0.0837  0.2849
17607SOL    HW257669   5.267   1.842   6.717  0.6537 -0.1226 -1.5819
17608SOL     OW57670   7.248   1.871   4.352 -0.1003  0.6410  0.4719
17608SOL    HW157671   7.300   1.833   4.281 -0.5422  0.0208  0.4751
17608SOL    HW257672   7.284   1.832   4.432 -2.5481 -2.2556  0.2937
17609SOL     OW57673   6.537   1.714   5.332 -0.4260  0.3908  0.1844
17609SOL    HW157674   6.548   1.676   5.244 -1.1169  1.2427 -0.2721
17609SOL    HW257675   6.532   1.638   5.390  2.0158 -0.1556 -0.2675
17610SOL     OW57676   6.528   1.013   5.410  0.3241 -0.6597 -0.1600
17610SOL    HW157677   6.597   0.958   5.447 -1.6412 -3.8292 -1.0966
17610SOL    HW257678   6.468   1.028   5.483  0.6186 -0.0858 -0.0284
17611SOL     OW57679   5.594   9.624   7.581  0.3796 -0.7096 -0.2972
17611SOL    HW157680   5.665   9.655   7.638 -1.3622 -0.3561  1.7366
17611SOL    HW257681   5.632   9.550   7.533  1.7334 -1.3132  1.6723
17612SOL     OW57682   4.496   1.496   5.274 -0.5892  0.7404  0.2030
17612SOL    HW157683   4.528   1.552   5.345 -3.4261  1.2597  1.1212
17612SOL    HW257684   4.451   1.425   5.318 -0.8824  0.1203 -1.0728
17613SOL     OW57685   6.423   0.765   6.281  0.4378 -0.4050  0.5420
17613SOL    HW157686   6.393   0.834   6.222 -0.7440 -1.3446  0.0168
17613SOL    HW257687   6.367   0.774   6.358  0.3879 -0.6694  0.5370
17614SOL     OW57688   6.467   1.076   6.989 -0.2278 -0.1765  0.4341
17614SOL    HW157689   6.450   0.986   7.018  0.0657  0.1321  1.5941
17614SOL    HW257690   6.410   1.130   7.045 -1.3767  0.2718 -1.1450
17615SOL     OW57691   6.695   0.739   7.626  0.2545  0.3281  0.3808
17615SOL    HW157692   6.725   0.813   7.679  0.9691  1.2759 -1.3479
17615SOL    HW257693   6.757   0.733   7.554 -0.4572 -1.2401 -0.1296
17616SOL     OW57694   6.175   0.117   7.297 -1.3206 -0.0106  0.0991
17616SOL    HW157695   6.240   0.047   7.296 -1.2515  0.0567 -1.9822
17616SOL    HW257696   6.158   0.132   7.390 -1.3828 -2.8083  0.5766
17617SOL     OW57697   9.370   0.884   6.919 -0.1093  0.5840  0.4034
17617SOL    HW157698   9.333   0.825   6.985 -0.0986 -0.1624 -0.2409
17617SOL    HW257699   9.433   0.829   6.872 -1.4267  0.5833 -1.4158
17618SOL     OW57700   6.461   0.320   5.894  0.4831  0.1090 -0.4903
17618SOL    HW157701   6.518   0.258   5.940  0.2455  1.5072  1.7312
17618SOL    HW257702   6.499   0.406   5.911 -0.8452  0.8420 -1.1203
17619SOL     OW57703   5.462   0.408   7.497 -0.4190  0.1300 -0.2399
17619SOL    HW157704   5.475   0.314   7.506  1.2222  0.5633  2.3545
17619SOL    HW257705   5.517   0.433   7.423 -0.2226 -0.8250 -0.4230
17620SOL     OW57706   6.289   0.437   5.126 -0.2805  0.1419  0.1566
17620SOL    HW157707   6.273   0.438   5.032 -1.2473 -1.2792  0.2841
17620SOL    HW257708   6.368   0.383   5.136 -0.0625  0.4580  0.1455
17621SOL     OW57709   7.085   0.456   7.436 -0.0395 -0.4629 -0.2441
17621SOL    HW157710   7.142   0.464   7.513  0.6557  0.3769 -0.8321
17621SOL    HW257711   7.145   0.460   7.361 -0.9425  1.7417 -0.9088
17622SOL     OW57712   6.541   0.668   4.976  0.2660  0.2202 -0.2010
17622SOL    HW157713   6.623   0.635   5.013 -0.6514 -0.0778  1.6177
17622SOL    HW257714   6.523   0.748   5.026 -0.8485 -0.0318 -0.1936
17623SOL     OW57715   6.855   9.279   6.891  0.0273  0.0863  0.4540
17623SOL    HW157716   6.877   9.187   6.880  1.2138  0.4611 -0.4039
17623SOL    HW257717   6.938   9.321   6.915 -0.5166  0.9258  0.9207
17624SOL     OW57718   5.691   2.172   6.058  0.2384 -0.3067  0.7069
17624SOL    HW157719   5.697   2.090   6.107  1.4513 -0.2767  0.6035
17624SOL    HW257720   5.615   2.216   6.096 -0.1068 -1.2370  1.1235
17625SOL     OW57721   7.952   0.821   6.464  0.3112  0.2043  0.0272
17625SOL    HW157722   7.945   0.805   6.558 -1.1359  1.7656  0.2142
17625SOL    HW257723   7.919   0.910   6.453  2.4354  0.8105 -1.6958
17626SOL     OW57724   6.180   1.774   7.160 -0.3056  0.5270 -0.1684
17626SOL    HW157725   6.176   1.712   7.087 -0.0566  1.4312 -0.9539
17626SOL    HW257726   6.273   1.780   7.180 -0.3938  0.1136  0.3697
17627SOL     OW57727   5.517   1.058   5.784 -0.0894  0.1867 -0.2943
17627SOL    HW157728   5.483   1.088   5.868 -0.1185  1.0726 -0.6176
17627SOL    HW257729   5.475   0.973   5.770 -0.9428  0.5399  0.0685
17628SOL     OW57730   6.140   0.888   5.008 -0.4415 -0.0055 -0.1411
17628SOL    HW157731   6.087   0.942   4.950 -1.8819 -0.3852  0.7910
17628SOL    HW257732   6.082   0.817   5.035  0.2050  0.1144  1.6972
17629SOL     OW57733   5.802   9.639   7.032 -0.1671 -0.0203 -0.6478
17629SOL    HW157734   5.741   9.643   7.105 -2.6136  0.1405 -2.6330
17629SOL    HW257735   5.855   9.718   7.041 -0.7682  0.2449  0.6775
17630SOL     OW57736   7.614   1.116   7.098 -0.4137 -0.1426 -0.1847
17630SOL    HW157737   7.545   1.162   7.146 -0.1426 -0.2623  0.3259
17630SOL    HW257738   7.608   1.149   7.008 -2.7888 -1.9749 -0.7550
17631SOL     OW57739   6.048   9.198   6.191  0.6353 -0.4263 -0.2902
17631SOL    HW157740   6.038   9.103   6.185  0.1124 -0.2338 -3.3671
17631SOL    HW257741   5.962   9.233   6.168  1.0728  0.8030 -0.1008
17632SOL     OW57742   7.497   1.053   4.453 -0.9113  0.2724 -0.0841
17632SOL    HW157743   7.535   1.079   4.369 -3.6874 -0.5614 -1.6728
17632SOL    HW257744   7.456   1.132   4.487  0.6141  0.7243  0.7374
17633SOL     OW57745   5.601   2.063   5.728 -0.4636 -0.1759  0.0993
17633SOL    HW157746   5.680   2.049   5.781  0.1765  1.3627 -0.3901
17633SOL    HW257747   5.539   1.997   5.757 -0.5611  1.3694  3.6273
17634SOL     OW57748   7.168   9.642   6.219  0.7897  0.4342  0.3531
17634SOL    HW157749   7.246   9.595   6.248  0.6859 -0.6142 -1.0502
17634SOL    HW257750   7.184   9.733   6.244  2.2038  0.1223  0.5906
17635SOL     OW57751   7.858   2.211   6.557  0.2135  0.8374  0.0261
17635SOL    HW157752   7.844   2.117   6.571 -0.1123  0.8020 -0.5051
17635SOL    HW257753   7.953   2.221   6.561  0.3399  0.2748 -1.1221
17636SOL     OW57754   5.867   0.170   5.866 -0.4968 -0.4799 -0.0846
17636SOL    HW157755   5.784   0.207   5.897 -0.6294 -2.0764  1.5575
17636SOL    HW257756   5.912   0.142   5.946  1.5224  0.1367 -0.9820
17637SOL     OW57757   5.791   1.503   6.971 -0.6911 -0.6097  0.4344
17637SOL    HW157758   5.812   1.543   6.886 -1.4823  0.4208  0.7166
17637SOL    HW257759   5.780   1.410   6.952  0.3002 -0.5672 -0.3902
17638SOL     OW57760   7.427   1.267   6.573 -0.7555  0.0937  0.1053
17638SOL    HW157761   7.338   1.239   6.597 -1.1753  0.5916 -0.8178
17638SOL    HW257762   7.448   1.215   6.496 -0.1566 -0.1694  0.4452
17639SOL     OW57763   6.048   0.876   8.415 -0.2131  0.8309 -0.3920
17639SOL    HW157764   6.068   0.807   8.352 -1.8502  0.6314 -0.7016
17639SOL    HW257765   6.076   0.956   8.372  1.1650  0.4308 -0.2657
17640SOL     OW57766   5.797   1.198   6.915  0.2347  0.1367 -0.1881
17640SOL    HW157767   5.722   1.150   6.950  0.2834  1.1672  1.3973
17640SOL    HW257768   5.873   1.144   6.937  0.5596  2.0979  3.9598
17641SOL     OW57769   6.600   0.364   7.424 -0.8395  0.2079  0.0215
17641SOL    HW157770   6.578   0.274   7.447 -1.2784  0.1879 -0.4783
17641SOL    HW257771   6.629   0.403   7.507  1.7032 -1.0564 -0.2415
17642SOL     OW57772   7.657   9.326   5.945  0.0816 -0.3389  0.1726
17642SOL    HW157773   7.697   9.412   5.964 -1.2067  0.0673  1.1399
17642SOL    HW257774   7.567   9.347   5.923  0.3243 -1.2774 -1.7803
17643SOL     OW57775   6.728   0.023   5.335 -0.3320 -0.2951  0.4439
17643SOL    HW157776   6.740  -0.022   5.252 -3.7673 -1.9434  0.7417
17643SOL    HW257777   6.749  -0.043   5.401 -0.0869  0.2301  0.8934
17644SOL     OW57778   6.652   1.452   6.140 -0.2214 -0.6386  0.4446
17644SOL    HW157779   6.572   1.502   6.125 -0.1159 -0.5950  0.0397
17644SOL    HW257780   6.622   1.363   6.159 -0.3079 -0.9326 -1.0212
17645SOL     OW57781   6.235   1.239   6.716 -0.1792  0.0769  0.2005
17645SOL    HW157782   6.152   1.286   6.717 -2.2423 -3.3435 -0.5876
17645SOL    HW257783   6.276   1.264   6.633 -1.6846 -0.2166 -0.6510
17646SOL     OW57784   6.578   9.406   7.527  0.3820 -0.0225 -0.2967
17646SOL    HW157785   6.546   9.460   7.455  1.0096 -0.3172 -0.7996
17646SOL    HW257786   6.646   9.459   7.568 -0.5787  0.5152  0.6430
17647SOL     OW57787   7.596   3.123   5.530  0.1608 -0.0511 -0.4153
17647SOL    HW157788   7.663   3.112   5.597 -0.0327 -3.0564 -0.6366
17647SOL    HW257789   7.627   3.069   5.457 -1.2615  0.5425 -1.4791
17648SOL     OW57790   4.872   1.656   5.321 -0.5510 -0.7579 -0.3937
17648SOL    HW157791   4.816   1.727   5.351  0.5215 -0.5916  1.3214
17648SOL    HW257792   4.901   1.613   5.402  2.7625 -0.0855 -1.1577
17649SOL     OW57793   6.235   2.036   4.162  0.2257 -0.1562 -0.8119
17649SOL    HW157794   6.321   2.045   4.203 -0.6878 -0.0557  1.1239
17649SOL    HW257795   6.174   2.023   4.235 -1.5883  1.0849 -2.0562
17650SOL     OW57796   5.326   0.204   7.220 -0.2433  0.3479  0.5154
17650SOL    HW157797   5.409   0.161   7.198  1.1538  2.5642  1.3847
17650SOL    HW257798   5.337   0.233   7.310 -0.1119  4.8777 -0.8576
17651SOL     OW57799   4.822   9.517   8.609  0.0211  0.3984 -0.5566
17651SOL    HW157800   4.918   9.507   8.609  0.0771  0.5695 -2.6338
17651SOL    HW257801   4.806   9.591   8.551 -1.3280  1.2166  0.8358
17652SOL     OW57802   4.370   8.527   7.700 -0.4144 -0.1696  0.8310
17652SOL    HW157803   4.460   8.550   7.724 -0.4777  0.5188  0.4273
17652SOL    HW257804   4.379   8.469   7.624 -0.2511 -1.5421  1.8793
17653SOL     OW57805   5.469   9.424   5.078  0.5620  0.2393  0.1788
17653SOL    HW157806   5.553   9.469   5.087 -0.0808  1.6587 -0.6717
17653SOL    HW257807   5.406   9.494   5.060 -0.6268 -0.9189 -0.2804
17654SOL     OW57808   7.963   1.755   6.276  0.0619  0.2813  0.2427
17654SOL    HW157809   7.954   1.842   6.237 -0.4203 -0.1528 -0.6492
17654SOL    HW257810   8.032   1.713   6.225  0.1103  0.0522  0.4991
17655SOL     OW57811   6.711   0.218   5.507  0.0071  0.1583 -0.1758
17655SOL    HW157812   6.707   0.148   5.442  1.4040 -0.0736 -0.0253
17655SOL    HW257813   6.645   0.281   5.478 -1.0187 -1.0587 -0.4956
17656SOL     OW57814   7.817   9.718   3.865  0.3515  0.1679 -0.8088
17656SOL    HW157815   7.819   9.624   3.884  0.7894 -0.0608 -1.9208
17656SOL    HW257816   7.759   9.726   3.789 -1.1682  1.0247  0.4313
17657SOL     OW57817   5.076   2.001   5.224 -0.0245 -0.3267  0.2300
17657SOL    HW157818   5.012   2.053   5.272 -0.0415  0.5068 -0.6624
17657SOL    HW257819   5.107   1.936   5.286 -0.2689  0.5351  1.2588
17658SOL     OW57820   6.212   1.148   4.608  0.3736 -0.3877  0.3682
17658SOL    HW157821   6.263   1.176   4.532 -0.3883 -1.0641 -0.3963
17658SOL    HW257822   6.249   1.062   4.631  0.0269 -0.5723  0.2323
17659SOL     OW57823   4.561   0.385   5.974 -0.0336  0.4114 -0.2651
17659SOL    HW157824   4.560   0.368   5.880 -1.2285  0.8203 -0.3476
17659SOL    HW257825   4.510   0.466   5.983 -0.3098  0.1200  0.7740
17660SOL     OW57826   5.523   0.394   6.512  0.4586 -0.3595 -0.0957
17660SOL    HW157827   5.607   0.351   6.528  1.4262  0.9029 -1.6738
17660SOL    HW257828   5.541   0.459   6.444 -1.5233  0.8036  0.4398
17661SOL     OW57829   8.475   2.738   7.119  0.4357 -0.2915 -0.5067
17661SOL    HW157830   8.536   2.791   7.171 -0.0838 -0.3689  0.2005
17661SOL    HW257831   8.428   2.802   7.065 -1.4091  0.2081  1.6023
17662SOL     OW57832   5.934   0.403   7.024  0.4411  0.2394 -0.5093
17662SOL    HW157833   5.992   0.386   7.098  2.3303  0.7507 -1.8294
17662SOL    HW257834   5.859   0.345   7.038  0.8433  0.2183  1.7016
17663SOL     OW57835   7.935   2.810   8.283  0.1218  0.1533  0.2445
17663SOL    HW157836   7.945   2.806   8.187 -1.7460  1.1900 -0.0280
17663SOL    HW257837   7.904   2.723   8.307  2.6995 -0.8332  0.2293
17664SOL     OW57838   7.617   1.486   5.233  0.4585 -0.0101  0.2294
17664SOL    HW157839   7.660   1.415   5.282 -1.5542 -0.4331  1.4442
17664SOL    HW257840   7.571   1.442   5.162  2.3608  0.4898 -1.3570
17665SOL     OW57841   5.598   9.003   6.683  0.2583 -0.2180 -0.0055
17665SOL    HW157842   5.603   9.094   6.653 -0.0396 -0.2406 -0.1264
17665SOL    HW257843   5.520   8.968   6.640 -0.5819 -0.0473  1.3380
17666SOL     OW57844   7.216   1.012   7.792  0.3721 -0.4369  0.2538
17666SOL    HW157845   7.191   0.939   7.735  1.8015 -0.1051 -0.8416
17666SOL    HW257846   7.218   0.974   7.880  2.0208 -2.0053 -0.4044
17667SOL     OW57847   6.330   1.268   5.486 -0.4421 -0.2507 -0.3274
17667SOL    HW157848   6.309   1.274   5.579  0.1698 -0.8000 -0.1500
17667SOL    HW257849   6.295   1.183   5.459 -0.3222 -0.2381 -0.5216
17668SOL     OW57850   5.737   0.033   5.379  0.2925  0.1854 -0.1980
17668SOL    HW157851   5.692   0.047   5.463  0.1255  1.3746 -0.4814
17668SOL    HW257852   5.830   0.034   5.401  0.2291 -3.0443  0.5161
17669SOL     OW57853   8.365   1.587   6.517 -0.8504 -0.2716  0.0664
17669SOL    HW157854   8.400   1.501   6.493 -0.8172  0.0803 -1.2223
17669SOL    HW257855   8.304   1.608   6.446 -1.0698  0.6420  0.5150
17670SOL     OW57856   5.384   1.017   5.487  0.3415 -0.2758  0.4319
17670SOL    HW157857   5.391   0.944   5.548  0.8235 -0.8588 -0.3112
17670SOL    HW257858   5.471   1.026   5.449  0.1987  0.4608  0.2602
17671SOL     OW57859   5.565   0.818   5.986 -0.6430  0.1635 -0.5500
17671SOL    HW157860   5.587   0.910   5.999 -1.3969  0.2421  0.1783
17671SOL    HW257861   5.480   0.807   6.028 -0.2147 -1.0453  0.0244
17672SOL     OW57862   6.053   9.835   7.056  0.2895  0.0919  0.3762
17672SOL    HW157863   6.086   9.778   7.126  1.0767 -1.1423 -0.9818
17672SOL    HW257864   6.026   9.915   7.101  1.2594 -0.4916  2.0259
17673SOL     OW57865   8.015   1.182   5.842  0.2790  0.8732 -0.6066
17673SOL    HW157866   7.992   1.153   5.930  1.3122  1.2742 -0.1979
17673SOL    HW257867   7.964   1.126   5.784 -0.7421  0.8941  0.2524
17674SOL     OW57868   8.168   1.860   7.531  0.3108 -0.3970  0.1903
17674SOL    HW157869   8.172   1.792   7.465  0.7805 -0.1309 -0.0601
17674SOL    HW257870   8.112   1.824   7.600 -0.2906 -0.6197 -0.4114
17675SOL     OW57871   6.828   0.594   6.340  0.3661  0.3167  0.1879
17675SOL    HW157872   6.812   0.671   6.285  0.0828  1.6013  2.0078
17675SOL    HW257873   6.913   0.562   6.312 -0.1990  0.3638 -1.6524
17676SOL     OW57874   5.273   0.532   6.888  0.5072 -0.2635 -0.2101
17676SOL    HW157875   5.226   0.611   6.915 -1.4884 -0.6447 -2.3443
17676SOL    HW257876   5.215   0.460   6.912  0.3338 -0.7924 -2.1013
17677SOL     OW57877   6.341   0.192   8.588  0.2639  0.1546 -0.2040
17677SOL    HW157878   6.311   0.237   8.509  0.3868 -0.0835 -0.3860
17677SOL    HW257879   6.378   0.110   8.556  0.1128 -0.0379  0.1200
17678SOL     OW57880   6.208   0.131   7.613  0.2501 -0.7073  0.2992
17678SOL    HW157881   6.283   0.078   7.638 -0.1078 -0.6919  1.4590
17678SOL    HW257882   6.216   0.210   7.666  0.1685 -0.0936 -0.5926
17679SOL     OW57883   6.178   1.448   6.241 -0.0896 -0.6318  0.2620
17679SOL    HW157884   6.208   1.536   6.220  0.8167 -1.0130 -0.0696
17679SOL    HW257885   6.239   1.416   6.308 -1.1757 -0.5383  1.3010
17680SOL     OW57886   6.008   0.037   6.804  0.1794 -0.0596 -0.2534
17680SOL    HW157887   5.979   0.122   6.771 -1.3277 -1.1676 -1.8888
17680SOL    HW257888   5.969   0.030   6.891 -2.3610 -0.4043 -1.3804
17681SOL     OW57889   6.200   0.791   5.352 -0.2274 -0.2822 -0.3645
17681SOL    HW157890   6.203   0.829   5.440  0.3247 -0.9433 -0.0884
17681SOL    HW257891   6.108   0.793   5.328 -0.6482 -1.8411  1.0173
17682SOL     OW57892   7.632   0.523   4.684  0.3739  0.5030  0.4032
17682SOL    HW157893   7.632   0.453   4.620  0.8786  1.7428 -0.9930
17682SOL    HW257894   7.622   0.479   4.768  2.6302 -1.3981 -0.2722
17683SOL     OW57895   6.720   9.861   5.085  0.1383  0.3166  0.5303
17683SOL    HW157896   6.626   9.880   5.087  0.8700  4.3161  0.5174
17683SOL    HW257897   6.746   9.873   4.994  0.6993 -0.7075  0.5461
17684SOL     OW57898   5.685   9.489   5.822 -0.6416 -0.0621  0.0270
17684SOL    HW157899   5.677   9.558   5.756 -0.7119  0.1063  0.2094
17684SOL    HW257900   5.648   9.411   5.780  0.2516 -0.2096 -0.4981
17685SOL     OW57901   7.464   0.791   7.283  0.2559  0.1822 -0.1410
17685SOL    HW157902   7.370   0.807   7.292 -0.1818 -1.4823 -1.6245
17685SOL    HW257903   7.486   0.735   7.357 -0.4815 -1.6948 -1.3269
17686SOL     OW57904   7.267   1.083   6.332  0.0385  0.4429 -0.2071
17686SOL    HW157905   7.190   1.037   6.365  0.5135  0.3027  0.6951
17686SOL    HW257906   7.244   1.103   6.241 -0.8218 -0.1328 -0.1295
17687SOL     OW57907   5.592   2.412   6.525  0.2375  0.5689 -0.1108
17687SOL    HW157908   5.605   2.459   6.607  0.3495  2.8393 -1.3970
17687SOL    HW257909   5.644   2.332   6.534  0.1790  0.7570  2.0380
17688SOL     OW57910   6.148   0.002   6.333  0.8148 -0.0902  0.2138
17688SOL    HW157911   6.120   0.057   6.406  0.1659  0.2654 -0.2994
17688SOL    HW257912   6.244   0.009   6.333  0.6826  2.2587 -0.7800
17689SOL     OW57913   6.372   0.447   6.755 -0.0938  0.7193  0.0187
17689SOL    HW157914   6.328   0.404   6.828 -0.4873  1.7885  0.4328
17689SOL    HW257915   6.417   0.377   6.709 -0.9979 -0.1808  0.4752
17690SOL     OW57916   5.938   0.709   6.997 -0.2281 -0.0323  0.3988
17690SOL    HW157917   5.925   0.640   7.063 -2.4603  0.5760  0.6280
17690SOL    HW257918   5.981   0.664   6.924  1.0360 -1.0164  1.7056
17691SOL     OW57919   5.933   2.506   0.007 -0.1179  0.1260 -0.0656
17691SOL    HW157920   6.015   2.478  -0.033 -0.3939 -0.8868  0.0567
17691SOL    HW257921   5.957   2.582   0.061  0.4569  0.7718 -1.2084
17692SOL     OW57922   6.439   4.509   8.079  0.1531  0.3662  0.4215
17692SOL    HW157923   6.513   4.478   8.130 -0.6608 -0.3860  1.1424
17692SOL    HW257924   6.364   4.459   8.111 -0.5000  0.4256 -0.9754
17693SOL     OW57925   5.801   0.934   8.177  0.4509  0.5276  0.4193
17693SOL    HW157926   5.848   0.982   8.245 -1.3399  1.6936  0.8822
17693SOL    HW257927   5.766   1.002   8.120  2.0252 -0.4509 -1.7704
17694SOL     OW57928   7.061   7.497   6.112 -0.3351  0.0621 -0.2727
17694SOL    HW157929   7.012   7.578   6.098  1.4999  0.9353 -1.8780
17694SOL    HW257930   6.998   7.437   6.153 -1.7398  2.2549  0.8195
17695SOL     OW57931   6.146   9.819   5.555 -0.0740 -0.3848  0.3894
17695SOL    HW157932   6.189   9.741   5.520  0.7166  0.5574 -0.7928
17695SOL    HW257933   6.218   9.878   5.579 -0.6621  0.1508  0.8776
17696SOL     OW57934   7.702   0.190   5.613 -0.2680  0.1455  0.3132
17696SOL    HW157935   7.687   0.280   5.586 -0.6866  1.4201  4.4620
17696SOL    HW257936   7.624   0.143   5.584 -1.4711  1.7869  0.7815
17697SOL     OW57937   5.933   0.789   5.280  0.4449  0.4564  0.0312
17697SOL    HW157938   5.889   0.708   5.305 -1.3132  1.7378  1.1313
17697SOL    HW257939   5.914   0.799   5.187  1.6034 -0.9427 -0.3842
17698SOL     OW57940   6.768   9.805   7.994  0.3088  1.1279  0.2457
17698SOL    HW157941   6.678   9.824   8.021  0.0720 -1.9696  1.7975
17698SOL    HW257942   6.760   9.773   7.905 -0.4875 -1.8477  1.3443
17699SOL     OW57943   7.517   0.076   5.925  0.2185 -0.8355 -0.2211
17699SOL    HW157944   7.450   0.008   5.930 -1.1068  0.5175  0.9973
17699SOL    HW257945   7.486   0.136   5.857 -0.1993  0.1876  0.8547
17700SOL     OW57946   5.474   1.987   6.365 -0.5625  0.6390 -0.0264
17700SOL    HW157947   5.565   1.988   6.335 -0.6939 -2.1128 -0.6492
17700SOL    HW257948   5.468   1.909   6.421 -3.1385 -0.7446 -2.1121
17701SOL     OW57949   7.435   3.508   9.364 -0.1865 -0.8057  0.2947
17701SOL    HW157950   7.486   3.448   9.418 -0.6796 -0.9268  0.6307
17701SOL    HW257951   7.359   3.457   9.336 -0.0633 -0.6632 -0.3023
17702SOL     OW57952   7.293   0.437   6.613 -0.2748 -0.2087  0.1305
17702SOL    HW157953   7.315   0.460   6.704  0.0375 -1.2648  0.3360
17702SOL    HW257954   7.205   0.471   6.600  0.0353  0.7688  0.5297
17703SOL     OW57955   5.378   0.745   7.379  0.4807 -0.6289 -0.2941
17703SOL    HW157956   5.338   0.818   7.427  0.2556 -0.6045 -0.5168
17703SOL    HW257957   5.381   0.674   7.443 -0.8241 -0.9394 -0.5496
17704SOL     OW57958   6.143   1.057   6.306  0.0536 -0.5747 -0.2600
17704SOL    HW157959   6.218   1.117   6.303  0.0555 -0.6105 -0.9667
17704SOL    HW257960   6.126   1.045   6.399  0.2649  0.2679 -0.1098
17705SOL     OW57961   5.979   8.780   5.558 -0.0287  0.5838  0.1544
17705SOL    HW157962   6.040   8.793   5.631 -0.5852  0.5539  0.6303
17705SOL    HW257963   6.011   8.838   5.489  1.7606 -0.9558 -0.3669
17706SOL     OW57964   7.187   1.899   7.791 -0.1247 -0.0622 -0.3296
17706SOL    HW157965   7.145   1.814   7.777  1.4233 -0.6691 -1.4872
17706SOL    HW257966   7.209   1.900   7.885  0.2820 -1.1586 -0.4063
17707SOL     OW57967   4.551   1.832   7.319 -0.0570  0.0049 -0.0172
17707SOL    HW157968   4.475   1.775   7.329 -1.1836  1.3773 -0.5743
17707SOL    HW257969   4.515   1.921   7.317  1.6901  0.7922  1.2418
17708SOL     OW57970   6.353   9.663   5.764  0.6308 -0.1917  0.1477
17708SOL    HW157971   6.293   9.620   5.703 -0.7695  0.2486  1.1681
17708SOL    HW257972   6.316   9.751   5.775  1.5198  0.1184  0.7154
17709SOL     OW57973   7.964   0.826   7.599 -0.3361  0.4577 -1.0181
17709SOL    HW157974   8.005   0.740   7.595 -1.7649 -0.2409 -1.1133
17709SOL    HW257975   8.008   0.871   7.670  0.1641 -0.4946 -0.7256
17710SOL     OW57976   5.723   1.514   5.377  0.4884  0.1404  0.6529
17710SOL    HW157977   5.658   1.457   5.335  0.8063  0.2808 -0.0370
17710SOL    HW257978   5.807   1.483   5.345  0.8206 -0.5364  2.1541
17711SOL     OW57979   5.610   1.640   6.116 -0.1404 -0.2054 -0.1012
17711SOL    HW157980   5.616   1.638   6.020  1.2483 -0.2850 -0.0210
17711SOL    HW257981   5.686   1.590   6.146 -0.3696  0.1261  1.0466
17712SOL     OW57982   7.565   2.157   6.738  0.5937 -0.1390 -0.3470
17712SOL    HW157983   7.629   2.228   6.735 -0.1730  0.5641 -0.1547
17712SOL    HW257984   7.542   2.142   6.646  0.1005  0.4550 -0.3189
17713SOL     OW57985   6.824   1.149   5.355 -0.0007  0.3909  0.6042
17713SOL    HW157986   6.885   1.083   5.389 -1.0853 -1.2555 -0.5198
17713SOL    HW257987   6.748   1.098   5.325 -1.7709  2.3538  1.6217
17714SOL     OW57988   8.176   1.745   6.951  0.2545  0.5233  0.1253
17714SOL    HW157989   8.232   1.760   6.874 -3.3337  2.5097 -2.2597
17714SOL    HW257990   8.137   1.659   6.935 -1.3223  1.3979 -0.9151
17715SOL     OW57991   4.438   1.639   6.470  0.2894  0.1261 -0.3278
17715SOL    HW157992   4.458   1.645   6.563 -0.2166  0.2917 -0.2296
17715SOL    HW257993   4.403   1.725   6.446 -1.8176 -0.6531 -0.1336
17716SOL     OW57994   6.584   1.986   9.073  0.2722 -0.5254  0.3826
17716SOL    HW157995   6.640   1.917   9.109 -0.3239 -0.2940  1.8007
17716SOL    HW257996   6.645   2.046   9.030  1.0554 -0.6050  1.3597
17717SOL     OW57997   6.661   0.159   6.322 -0.6079  0.0979  0.5313
17717SOL    HW157998   6.658   0.237   6.266  0.3319  0.0466  0.4038
17717SOL    HW257999   6.736   0.108   6.289  0.4460  0.4373  2.3170
17718SOL     OW58000   7.501   2.086   6.468  0.3522  0.1181 -0.0836
17718SOL    HW158001   7.594   2.074   6.445  0.2900 -2.2059  0.7577
17718SOL    HW258002   7.456   2.091   6.383  0.7359 -3.3098 -0.5637
17719SOL     OW58003   5.676   1.759   8.801  0.1872 -0.2671 -0.3552
17719SOL    HW158004   5.762   1.801   8.809  0.7688 -0.9882 -2.4237
17719SOL    HW258005   5.695   1.670   8.770 -1.3054 -0.3355 -1.1628
17720SOL     OW58006   7.085   3.596   7.110 -0.0272  0.0960  0.1606
17720SOL    HW158007   7.052   3.509   7.134 -1.4046  0.1545 -1.4088
17720SOL    HW258008   7.140   3.580   7.033 -1.3845  0.7717 -0.9651
17721SOL     OW58009   5.495   1.623   7.019  0.4403  0.2329  0.1378
17721SOL    HW158010   5.590   1.610   7.018  0.4129 -0.0095  0.6024
17721SOL    HW258011   5.461   1.558   6.956  0.7227  1.5008 -1.3468
17722SOL     OW58012   6.595   3.625   6.214 -0.5675 -0.2894 -0.5671
17722SOL    HW158013   6.523   3.622   6.276  0.1988  0.5241  0.3840
17722SOL    HW258014   6.591   3.712   6.175  1.0024  0.4800  0.8803
17723SOL     OW58015   7.312   0.781   6.582 -0.5620 -0.3661  0.2635
17723SOL    HW158016   7.398   0.787   6.624  0.0082 -1.0888 -0.7786
17723SOL    HW258017   7.331   0.785   6.489 -1.8450  1.4220  0.0637
17724SOL     OW58018   6.573   0.609   6.645 -0.2968  0.7755 -0.0095
17724SOL    HW158019   6.499   0.562   6.683 -1.2281  1.6659 -0.6837
17724SOL    HW258020   6.609   0.550   6.580  0.4333 -0.2043  1.2785
17725SOL     OW58021   6.026   1.046   4.825  0.0452 -0.4514 -0.1818
17725SOL    HW158022   6.062   1.078   4.742 -0.2237  1.1206  0.2808
17725SOL    HW258023   5.940   1.088   4.831  0.6976  0.6871  1.6038
17726SOL     OW58024   7.555   0.051   5.248  0.4869 -0.5798 -0.1357
17726SOL    HW158025   7.549   0.146   5.259  1.2437 -0.4227 -0.9986
17726SOL    HW258026   7.464   0.022   5.240  0.3108  0.3090 -1.6269
17727SOL     OW58027   6.709   1.802   5.566 -0.1206  0.0168 -0.0131
17727SOL    HW158028   6.796   1.791   5.603 -0.0514  0.4528 -0.0447
17727SOL    HW258029   6.720   1.791   5.472 -0.5857 -2.8285  0.2337
17728SOL     OW58030   7.877   0.442   6.350  0.4525 -0.3782  0.1958
17728SOL    HW158031   7.809   0.435   6.418  1.1561  0.2879  0.9944
17728SOL    HW258032   7.912   0.354   6.342  0.2390 -0.5006  0.5674
17729SOL     OW58033   5.777   9.735   6.675  0.0944  0.4678  0.1552
17729SOL    HW158034   5.823   9.810   6.638 -0.2937  1.1120  0.9549
17729SOL    HW258035   5.750   9.683   6.599 -0.2015  1.4724 -0.4367
17730SOL     OW58036   6.917   1.701   6.846 -0.0877 -0.7386 -0.4398
17730SOL    HW158037   6.957   1.652   6.918  1.6771  1.5599  0.1989
17730SOL    HW258038   6.988   1.713   6.783 -1.1685 -1.1706 -1.7811
17731SOL     OW58039   6.891   2.010   6.025 -0.4573 -0.4515  0.0029
17731SOL    HW158040   6.960   2.055   6.074 -1.5096  0.7821  0.4163
17731SOL    HW258041   6.849   1.954   6.090 -0.9125  0.0824  0.1824
17732SOL     OW58042   5.266   1.949   6.229 -0.3162 -0.0890  0.5254
17732SOL    HW158043   5.285   1.877   6.169 -0.2037  0.2201  0.1848
17732SOL    HW258044   5.347   1.959   6.279 -0.5883 -0.6854  1.0858
17733SOL     OW58045   5.736   1.946   6.296  0.5074  0.6045  0.2172
17733SOL    HW158046   5.728   1.859   6.334 -0.5323  0.3711 -0.5055
17733SOL    HW258047   5.820   1.979   6.327  0.9570 -0.7027  0.3933
17734SOL     OW58048   6.319   2.971   5.432  0.5412  0.4621 -0.1508
17734SOL    HW158049   6.390   2.965   5.497  0.0529  1.0025  0.4333
17734SOL    HW258050   6.322   3.062   5.402  0.4454  0.3410 -0.5266
17735SOL     OW58051   5.396   2.237   7.861  0.4998 -0.0412 -0.2662
17735SOL    HW158052   5.449   2.250   7.782 -1.5988  0.5798 -1.6314
17735SOL    HW258053   5.345   2.318   7.869  0.1561 -0.3976  1.3037
17736SOL     OW58054   6.364   0.505   7.506 -0.4285  0.5662  0.1888
17736SOL    HW158055   6.440   0.487   7.562 -1.5625 -0.9223  1.2772
17736SOL    HW258056   6.396   0.488   7.417  0.4704 -0.2344  0.6500
17737SOL     OW58057   5.541   8.486   4.985 -0.2114  0.8588  0.5302
17737SOL    HW158058   5.515   8.515   5.073  1.2669  0.8612  0.9951
17737SOL    HW258059   5.625   8.440   5.000 -1.0943 -1.1684 -0.5661
17738SOL     OW58060   8.270   2.241   6.123 -0.2943 -0.2921 -0.6024
17738SOL    HW158061   8.290   2.281   6.038 -0.3822 -0.8869 -0.9063
17738SOL    HW258062   8.322   2.160   6.123 -1.3724 -0.9814 -0.6646
17739SOL     OW58063   7.099   0.534   6.304 -0.2646 -0.0002 -0.5397
17739SOL    HW158064   7.180   0.493   6.275  0.3161  0.9183 -0.2059
17739SOL    HW258065   7.102   0.622   6.268 -1.2084 -0.0158 -0.6889
17740SOL     OW58066   7.650   1.858   5.489 -0.1652  0.2193 -0.1271
17740SOL    HW158067   7.595   1.932   5.513 -1.6753 -0.7300 -0.6317
17740SOL    HW258068   7.607   1.819   5.413 -0.3598 -2.2227  1.1809
17741SOL     OW58069   6.007   1.402   6.763  0.6199  0.1676 -0.5792
17741SOL    HW158070   5.949   1.350   6.819  0.7637  0.3944 -0.2218
17741SOL    HW258071   6.067   1.446   6.824  0.2268  1.0850 -0.8405
17742SOL     OW58072   5.813   0.867   7.590 -0.1150  0.0605 -0.0290
17742SOL    HW158073   5.721   0.881   7.609  0.3079 -0.5938  2.5951
17742SOL    HW258074   5.814   0.837   7.499 -2.3535  1.3729 -0.5143
17743SOL     OW58075   7.081   1.257   7.014  0.4441  0.3163 -0.5923
17743SOL    HW158076   7.152   1.194   7.000  0.2965  0.1810 -0.7317
17743SOL    HW258077   7.111   1.336   6.970  1.6284  1.0479  1.4822
17744SOL     OW58078   5.501   1.564   7.716  0.1151 -0.0702  0.2997
17744SOL    HW158079   5.488   1.546   7.623  1.5580  0.4524 -0.0107
17744SOL    HW258080   5.519   1.478   7.754  1.1282 -0.0799 -0.1847
17745SOL     OW58081   5.553   0.902   7.623  0.6946  0.4066 -0.1800
17745SOL    HW158082   5.468   0.928   7.660  0.5957 -0.4759  0.2281
17745SOL    HW258083   5.540   0.906   7.529  0.1159  0.0603 -0.1233
17746SOL     OW58084   7.286   0.659   5.644 -0.0056  0.7283  1.0285
17746SOL    HW158085   7.247   0.746   5.639  0.3252  0.8022 -0.5114
17746SOL    HW258086   7.341   0.653   5.566 -1.3979 -1.5343  0.1742
17747SOL     OW58087   8.062   0.647   5.534  0.1957  0.3678 -1.0063
17747SOL    HW158088   8.044   0.564   5.579  0.3551  1.1361  0.4880
17747SOL    HW258089   8.125   0.623   5.465  0.8252 -0.6296 -0.1079
17748SOL     OW58090   6.898   1.496   7.909 -0.3396  0.0168 -0.4326
17748SOL    HW158091   6.949   1.467   7.984  0.5846 -0.5456 -1.2571
17748SOL    HW258092   6.816   1.447   7.914  0.5072 -1.4906 -0.8534
17749SOL     OW58093   5.730   0.533   6.787 -0.0228 -0.2023 -0.1934
17749SOL    HW158094   5.820   0.516   6.816 -0.2100  0.2715  0.6541
17749SOL    HW258095   5.683   0.452   6.806 -0.0367 -0.0566  0.3934
17750SOL     OW58096   7.750   0.581   5.823  0.0046 -0.5139  0.3996
17750SOL    HW158097   7.705   0.659   5.854  0.9865  0.3829 -0.3734
17750SOL    HW258098   7.820   0.567   5.886  0.3184 -0.2929  0.1057
17751SOL     OW58099   6.179   3.183   6.869  1.0506 -0.2653  0.5664
17751SOL    HW158100   6.268   3.201   6.901  0.4230 -0.4297  2.4517
17751SOL    HW258101   6.128   3.258   6.898  1.0601  1.1734 -2.8321
17752SOL     OW58102   5.721   0.907   6.951 -0.1260 -0.1057  0.3760
17752SOL    HW158103   5.637   0.884   6.991 -0.6320 -0.5056 -0.8722
17752SOL    HW258104   5.774   0.828   6.961  0.7822  0.8063  2.8926
17753SOL     OW58105   7.634   3.039   5.971  0.3662 -0.6584  0.7846
17753SOL    HW158106   7.672   3.031   5.883  0.3666  1.2167  0.5863
17753SOL    HW258107   7.683   3.111   6.011 -0.8420 -0.3087  1.6633
17754SOL     OW58108   7.708   0.667   7.761  0.0833  0.2411 -0.1859
17754SOL    HW158109   7.714   0.649   7.667 -1.7794  0.5313 -0.3803
17754SOL    HW258110   7.787   0.718   7.781  0.9759 -0.6234 -1.3855
17755SOL     OW58111   5.668   0.990   6.345 -1.1022  0.4587  0.0173
17755SOL    HW158112   5.639   0.898   6.345  0.1225  0.0475 -1.4400
17755SOL    HW258113   5.588   1.040   6.359 -2.0616 -0.7821 -0.8598
17756SOL     OW58114   5.759   1.107   6.659 -0.5596 -0.0806  0.1228
17756SOL    HW158115   5.745   1.115   6.753  1.3913  1.6931  0.2809
17756SOL    HW258116   5.757   1.197   6.627  0.9647 -0.5063 -1.2072
17757SOL     OW58117   8.297   0.287   6.904  0.0505  0.5814 -0.1911
17757SOL    HW158118   8.367   0.253   6.849 -0.4826  0.3580 -0.7402
17757SOL    HW258119   8.309   0.382   6.902 -0.9060  0.6843 -1.9920
17758SOL     OW58120   5.795   9.320   6.197 -0.3667  0.6262  0.1585
17758SOL    HW158121   5.740   9.327   6.275 -1.0929 -0.1309 -0.2795
17758SOL    HW258122   5.790   9.406   6.157  0.2210  1.1054  1.0798
17759SOL     OW58123   7.008   2.737   6.315 -0.4333 -0.2024 -0.9067
17759SOL    HW158124   7.051   2.792   6.250 -2.9981  0.8494 -1.7540
17759SOL    HW258125   6.950   2.681   6.265 -1.3030 -0.4444  0.3423
17760SOL     OW58126   5.975   9.045   5.881  0.0795 -0.4698  0.2233
17760SOL    HW158127   5.905   8.991   5.845 -0.4192 -0.4274  1.1165
17760SOL    HW258128   5.978   9.123   5.825 -1.3433  0.0493  0.8408
17761SOL     OW58129   7.192   0.430   5.506 -0.1908 -0.6058 -0.2709
17761SOL    HW158130   7.126   0.376   5.463 -0.1675 -1.7071  1.0605
17761SOL    HW258131   7.156   0.519   5.502 -1.7337 -1.1798  0.3506
17762SOL     OW58132   6.370   0.992   6.059  0.2718 -0.4143  0.0381
17762SOL    HW158133   6.389   1.060   6.123  0.4752  0.4280 -0.9189
17762SOL    HW258134   6.276   0.976   6.067 -0.3038  1.9927 -1.7277
17763SOL     OW58135   7.170   1.092   6.061  0.5112  0.0696  0.0506
17763SOL    HW158136   7.099   1.058   6.007  1.4715 -1.5388 -0.2222
17763SOL    HW258137   7.248   1.046   6.031  1.2990  0.1820  1.8396
17764SOL     OW58138   5.268   0.928   6.612 -0.0868  0.5869  0.5774
17764SOL    HW158139   5.210   0.907   6.686  0.5391 -2.3365  0.2852
17764SOL    HW258140   5.350   0.956   6.654  0.1668 -0.7732  1.0284
17765SOL     OW58141   6.903   0.524   5.583  0.0799  0.0419 -0.1318
17765SOL    HW158142   6.839   0.576   5.631  0.4028  0.0488  0.2882
17765SOL    HW258143   6.857   0.499   5.502 -0.2469  0.5497 -0.1069
17766SOL     OW58144   6.973   0.490   4.957 -0.6165 -0.3390 -0.2497
17766SOL    HW158145   7.030   0.567   4.960  1.1502 -1.6218  0.3508
17766SOL    HW258146   6.952   0.479   4.864 -1.5054  1.2783 -0.2603
17767SOL     OW58147   7.551   0.949   5.485  0.0414 -0.0004  0.1765
17767SOL    HW158148   7.627   0.918   5.435 -1.0296 -1.6112 -0.5034
17767SOL    HW258149   7.483   0.883   5.469 -1.5251  1.4359  0.7248
17768SOL     OW58150   5.699   1.050   6.023  0.3997 -0.1198  0.2342
17768SOL    HW158151   5.693   1.137   5.984  0.6777 -1.0761 -2.0140
17768SOL    HW258152   5.758   1.061   6.097  0.6580  1.5387 -0.2001
17769SOL     OW58153   8.435   2.106   5.225 -0.5407  0.1529  0.5144
17769SOL    HW158154   8.463   2.039   5.288 -1.0367 -0.1591  0.4047
17769SOL    HW258155   8.434   2.061   5.141 -0.4593  0.4125  0.3740
17770SOL     OW58156   5.919   0.269   6.711  0.3307 -0.3941 -0.3762
17770SOL    HW158157   5.836   0.238   6.675  0.4524  0.3527 -1.3472
17770SOL    HW258158   5.899   0.294   6.801 -0.8376  1.0489 -1.0037
17771SOL     OW58159   7.095   0.347   9.332 -0.0348 -0.4344  0.2236
17771SOL    HW158160   7.063   0.299   9.256  1.6008 -1.3649  0.0983
17771SOL    HW258161   7.071   0.438   9.315 -0.6020 -0.7885 -0.9074
17772SOL     OW58162   5.610   8.273   8.659  0.2518  0.0889  0.1990
17772SOL    HW158163   5.543   8.288   8.592  0.6187 -1.4952 -0.5419
17772SOL    HW258164   5.673   8.344   8.645 -0.0698  0.2181 -0.6313
17773SOL     OW58165   6.491   1.237   9.368  0.2002 -0.2375  0.2159
17773SOL    HW158166   6.541   1.155   9.374 -0.7603 -0.7352  1.6869
17773SOL    HW258167   6.401   1.211   9.386 -0.2979  0.9803 -0.4386
17774SOL     OW58168   6.293   1.399   0.459 -0.5935  0.3202 -0.1854
17774SOL    HW158169   6.386   1.405   0.437 -0.9088  2.0549 -1.1302
17774SOL    HW258170   6.269   1.487   0.486 -1.2831 -0.7658  2.9489
17775SOL     OW58171   5.551   0.713   7.179  0.1932 -0.1618 -0.4275
17775SOL    HW158172   5.557   0.633   7.127  0.0879  0.9395 -2.1881
17775SOL    HW258173   5.479   0.698   7.239  0.9238 -1.8276  0.0595
17776SOL     OW58174   6.123   0.386   7.234  0.0854  0.3596  0.4575
17776SOL    HW158175   6.116   0.291   7.237 -1.8290  0.4497 -0.6637
17776SOL    HW258176   6.216   0.403   7.248  0.3152 -1.6238  1.5416
17777SOL     OW58177   6.587   1.446   0.650  0.2630 -1.0766 -0.0729
17777SOL    HW158178   6.594   1.361   0.695 -0.8265  0.0579  2.3091
17777SOL    HW258179   6.556   1.506   0.717 -2.6364  0.4480 -2.6665
17778SOL     OW58180   6.285   2.378   6.342 -0.5243  0.2367  0.5479
17778SOL    HW158181   6.354   2.374   6.408  0.0901 -1.6766 -0.1796
17778SOL    HW258182   6.316   2.321   6.271 -3.3274 -1.5040  0.6476
17779SOL     OW58183   5.715   0.718   9.548  0.5176 -0.6082  0.3270
17779SOL    HW158184   5.735   0.795   9.496 -0.5054  0.5753  1.6488
17779SOL    HW258185   5.619   0.710   9.543  0.6217 -1.9034  0.0616
17780SOL     OW58186   4.392   1.092   6.702 -0.1506 -0.2620 -0.3200
17780SOL    HW158187   4.450   1.067   6.631 -1.0339  1.6542 -1.7567
17780SOL    HW258188   4.449   1.133   6.767  0.4060 -0.3472 -0.7555
17781SOL     OW58189   5.819   1.785   9.456 -0.6189 -0.5019  0.3887
17781SOL    HW158190   5.880   1.773   9.528 -2.4464 -0.6786  1.9432
17781SOL    HW258191   5.807   1.697   9.420 -0.3663 -0.5434  0.4043
17782SOL     OW58192   7.799   8.804   8.518 -0.3212 -0.3471 -0.1239
17782SOL    HW158193   7.889   8.796   8.484  0.4923  2.2737  1.2900
17782SOL    HW258194   7.777   8.715   8.546  1.4741 -1.2284 -1.4016
17783SOL     OW58195   4.410   0.564   8.641 -0.1405  0.1660 -0.4990
17783SOL    HW158196   4.398   0.635   8.577  1.6157 -0.6872 -1.8400
17783SOL    HW258197   4.324   0.553   8.681 -0.9356  1.6826 -1.7184
17784SOL     OW58198   7.152   1.189   9.669  0.6219 -0.6263 -0.3522
17784SOL    HW158199   7.103   1.245   9.609 -1.9388 -2.5231 -0.1482
17784SOL    HW258200   7.233   1.169   9.622 -0.0004  0.3745 -1.9087
17785SOL     OW58201   7.721   1.091   7.892 -0.2319  0.1857 -0.2224
17785SOL    HW158202   7.734   1.044   7.975  2.3534  0.5028 -0.4122
17785SOL    HW258203   7.796   1.149   7.885 -0.8511  0.7755 -2.4126
17786SOL     OW58204   6.697   0.568   8.287 -0.1583  0.2329 -0.5444
17786SOL    HW158205   6.756   0.500   8.319  1.2597  2.3897  1.5792
17786SOL    HW258206   6.622   0.565   8.346 -0.4012  0.0706 -0.8603
17787SOL     OW58207   6.144   1.008   8.828  0.5212  0.6457  0.5536
17787SOL    HW158208   6.122   1.019   8.921  1.6728  0.5755  0.8453
17787SOL    HW258209   6.163   0.915   8.819  1.6465  0.8736  0.5282
17788SOL     OW58210   5.961   0.062   8.690  0.6254 -0.2135  0.1816
17788SOL    HW158211   5.957  -0.012   8.750  0.2512 -0.0592  0.3451
17788SOL    HW258212   5.967   0.022   8.603 -0.4574 -0.4393  0.2033
17789SOL     OW58213   6.978   8.570   8.889 -0.0444 -0.4311 -0.3602
17789SOL    HW158214   6.957   8.566   8.982  2.6408 -2.2274  0.2468
17789SOL    HW258215   7.046   8.637   8.883  0.3835 -0.9043 -0.8842
17790SOL     OW58216   4.418   0.003   7.578  0.3071 -0.0785 -0.2021
17790SOL    HW158217   4.427   0.087   7.533  3.8559  1.2219  2.6442
17790SOL    HW258218   4.367   0.024   7.657 -1.4819 -1.2746 -1.0186
17791SOL     OW58219   7.358   0.374   9.391 -0.2988  0.5206  0.3875
17791SOL    HW158220   7.314   0.295   9.421  0.7803  0.4417  1.8450
17791SOL    HW258221   7.330   0.385   9.300 -1.0296 -1.1256  0.3987
17792SOL     OW58222   6.342   2.441   7.201 -0.2653 -0.3748 -0.0756
17792SOL    HW158223   6.385   2.515   7.159 -1.0159 -0.5446 -1.1664
17792SOL    HW258224   6.413   2.383   7.226  0.2169 -0.0350 -0.6663
17793SOL     OW58225   8.737   1.444   7.670 -0.4289  0.1913  0.6273
17793SOL    HW158226   8.690   1.475   7.592  0.0042 -1.4362 -0.3024
17793SOL    HW258227   8.738   1.349   7.661  0.5278  0.0455  2.1172
17794SOL     OW58228   7.060   1.369   7.611  0.6410  0.3844  0.5692
17794SOL    HW158229   6.987   1.428   7.591  0.7791  0.6405  0.8059
17794SOL    HW258230   7.021   1.282   7.615  0.5460  0.3867 -0.3831
17795SOL     OW58231   5.089   1.688   9.923  0.0986 -1.1842  0.3308
17795SOL    HW158232   5.028   1.632   9.970  1.2431 -1.3000  1.6713
17795SOL    HW258233   5.172   1.679   9.968  0.3250  1.5950  0.6067
17796SOL     OW58234   7.927   0.660   8.914  0.3818  0.5066 -0.1284
17796SOL    HW158235   7.987   0.648   8.841  1.2894 -1.6079  0.9111
17796SOL    HW258236   7.846   0.616   8.886  0.5297  0.2059 -0.0761
17797SOL     OW58237   6.920   0.093   8.892 -0.0179  0.8308 -0.1826
17797SOL    HW158238   6.950   0.040   8.966 -0.5578 -2.5248 -2.2585
17797SOL    HW258239   6.827   0.108   8.909 -0.2789 -0.4539 -0.4778
17798SOL     OW58240   6.437   8.816   9.379 -0.3722  0.3125 -0.1478
17798SOL    HW158241   6.398   8.897   9.345 -0.7619 -0.0122 -0.4789
17798SOL    HW258242   6.438   8.828   9.474  0.8649  1.2923 -0.2622
17799SOL     OW58243   7.222   9.845   7.573 -0.1422 -0.0743 -0.4182
17799SOL    HW158244   7.290   9.897   7.530 -0.7063  0.5685 -0.5366
17799SOL    HW258245   7.146   9.903   7.577 -0.3761 -0.4460  0.6263
17800SOL     OW58246   6.206   1.659   9.794  0.7047  0.2280 -0.3463
17800SOL    HW158247   6.286   1.643   9.743 -0.3327 -1.3985 -1.5247
17800SOL    HW258248   6.171   1.572   9.810 -0.3184  0.8866  1.0265
17801SOL     OW58249   7.018   9.942   1.232 -0.0512 -0.6047 -0.6995
17801SOL    HW158250   6.975   9.980   1.155 -0.9023 -0.8371 -0.3437
17801SOL    HW258251   7.020  10.013   1.296  2.9349  0.3728 -1.7826
17802SOL     OW58252   6.448   2.092   7.678  0.0009  0.2377 -0.0013
17802SOL    HW158253   6.516   2.077   7.743  0.0744  1.2404  0.1559
17802SOL    HW258254   6.414   2.179   7.698 -0.7340  0.1004 -0.6162
17803SOL     OW58255   5.811   0.220   7.539 -0.2208 -0.3895 -0.5075
17803SOL    HW158256   5.840   0.174   7.460 -3.3484  0.1516 -2.0288
17803SOL    HW258257   5.734   0.172   7.568  1.3060 -1.0591  2.7592
17804SOL     OW58258   7.589   1.214   6.838  0.1079  0.1423  0.3497
17804SOL    HW158259   7.522   1.225   6.771 -1.0837 -0.8159  1.3528
17804SOL    HW258260   7.672   1.221   6.790 -0.7058  0.4457 -1.0505
17805SOL     OW58261   7.060   1.788   8.108  0.0965  0.2868 -0.5553
17805SOL    HW158262   7.106   1.711   8.142 -0.9920  0.1075  0.5473
17805SOL    HW258263   7.125   1.858   8.110  0.8068 -0.3596 -0.6166
17806SOL     OW58264   5.850   9.033   9.519  0.1026  0.6255 -0.3991
17806SOL    HW158265   5.789   9.106   9.528  0.3898  1.0843 -2.0858
17806SOL    HW258266   5.874   9.010   9.609 -0.2225  2.3996  0.1485
17807SOL     OW58267   6.721   0.980   9.721 -0.7345 -0.0324 -0.6879
17807SOL    HW158268   6.804   0.936   9.702 -0.8350  0.4914 -2.4158
17807SOL    HW258269   6.709   0.968   9.815  0.9747 -0.6758 -0.5298
17808SOL     OW58270   7.021   0.616   8.010 -0.1685  0.3430  0.1012
17808SOL    HW158271   7.107   0.573   8.002 -0.8132 -0.6057 -2.4560
17808SOL    HW258272   6.964   0.548   8.045 -0.5156 -0.0074 -1.0973
17809SOL     OW58273   6.030   1.113   7.996  0.0220 -0.4895  0.4178
17809SOL    HW158274   6.055   1.205   7.992  0.6473 -0.6594  0.4309
17809SOL    HW258275   5.971   1.101   7.921  0.6905 -0.3055 -0.1450
17810SOL     OW58276   5.054   0.749   9.290  0.0905 -0.0187 -0.2485
17810SOL    HW158277   5.072   0.830   9.243  1.8640 -1.0670 -1.4499
17810SOL    HW258278   5.140   0.713   9.309 -0.6858 -2.1952 -0.7489
17811SOL     OW58279   5.969   0.587   7.786  0.5107  0.1652 -0.0370
17811SOL    HW158280   5.994   0.586   7.693  0.3743  0.0257 -0.0730
17811SOL    HW258281   5.998   0.673   7.817  1.1742 -0.0632 -0.0323
17812SOL     OW58282   6.183   2.058   9.252 -0.4721 -0.0009  0.2249
17812SOL    HW158283   6.124   2.069   9.178 -0.6672  0.6584  0.4752
17812SOL    HW258284   6.195   1.963   9.260  0.6437 -0.0320 -1.5220
17813SOL     OW58285   7.152   0.826   8.875  0.4133  0.1114 -0.2598
17813SOL    HW158286   7.219   0.759   8.860  1.1669  0.8626 -0.2795
17813SOL    HW258287   7.083   0.804   8.813  0.9041 -0.3158 -0.6676
17814SOL     OW58288   6.276   8.969   8.794 -0.3275  0.2423 -0.1210
17814SOL    HW158289   6.201   9.011   8.752  0.4415 -0.1851 -1.9699
17814SOL    HW258290   6.351   8.992   8.739  0.5864 -0.9768  0.5840
17815SOL     OW58291   6.630   0.193   7.777  0.1910  0.0356 -0.6685
17815SOL    HW158292   6.674   0.257   7.721 -0.2486  0.2847 -0.7307
17815SOL    HW258293   6.607   0.122   7.718 -0.8414  0.5808 -0.9370
17816SOL     OW58294   5.133   1.670   8.026 -0.0727 -0.0187  0.5058
17816SOL    HW158295   5.084   1.590   8.045  0.2584 -0.7630 -1.6159
17816SOL    HW258296   5.201   1.642   7.964  2.9127  1.0253  3.1439
17817SOL     OW58297   7.268   1.311   8.314 -0.6716  0.4606 -0.0272
17817SOL    HW158298   7.296   1.280   8.227  0.8381  1.3131  0.1308
17817SOL    HW258299   7.341   1.288   8.372 -1.9696 -0.7343  1.1697
17818SOL     OW58300   5.952   2.379   9.747 -0.4351  0.1902  0.5763
17818SOL    HW158301   6.026   2.364   9.806 -0.1585 -2.2895 -0.3488
17818SOL    HW258302   5.991   2.386   9.660 -1.2754 -1.4546  0.0397
17819SOL     OW58303   6.152   1.390   8.552 -0.4264 -0.5530 -0.6978
17819SOL    HW158304   6.205   1.390   8.473  0.6539  0.2855  0.0097
17819SOL    HW258305   6.124   1.299   8.563  0.9566 -1.0145 -1.0168
17820SOL     OW58306   6.921   9.634   8.335 -0.7646  0.2665 -0.4096
17820SOL    HW158307   6.994   9.576   8.312  0.3263  1.0729  0.9478
17820SOL    HW258308   6.951   9.681   8.412 -1.8818  2.2036 -1.1131
17821SOL     OW58309   5.611   0.240   8.707 -0.4862 -0.3017  0.5304
17821SOL    HW158310   5.650   0.286   8.781  2.0171 -0.5839 -0.5587
17821SOL    HW258311   5.589   0.154   8.742  1.3854 -0.7012  0.8025
17822SOL     OW58312   6.615   2.040   7.465 -0.4987  0.0489  0.3971
17822SOL    HW158313   6.523   2.045   7.493 -0.3172 -0.3611  1.0921
17822SOL    HW258314   6.641   1.950   7.487 -0.1192 -0.0414 -0.3996
17823SOL     OW58315   5.639   9.417   8.323  0.1887  0.1477 -0.6352
17823SOL    HW158316   5.706   9.440   8.387 -2.0792  0.7335  1.6396
17823SOL    HW258317   5.622   9.499   8.276  1.8043 -0.2664 -1.9968
17824SOL     OW58318   7.254   0.983   5.748  0.4118  0.0012 -0.1253
17824SOL    HW158319   7.253   1.077   5.763 -0.2572 -0.0726  0.2982
17824SOL    HW258320   7.226   0.973   5.657 -0.5367  0.1466  0.1523
17825SOL     OW58321   5.312   1.797   7.505  0.2640  0.1064 -0.6591
17825SOL    HW158322   5.242   1.858   7.483 -1.9995 -2.4877 -0.8154
17825SOL    HW258323   5.328   1.749   7.424  1.1156 -0.4147 -0.1872
17826SOL     OW58324   6.839   2.514   7.625 -0.0565  0.2286 -0.5129
17826SOL    HW158325   6.805   2.425   7.620  0.0311  0.2815 -2.8915
17826SOL    HW258326   6.917   2.513   7.569  1.8055  1.0084  2.0003
17827SOL     OW58327   5.277   1.193   7.950 -0.1391 -0.3793  0.0906
17827SOL    HW158328   5.241   1.113   7.988 -1.7534 -0.6991 -2.0074
17827SOL    HW258329   5.213   1.261   7.973  0.8290  0.1736  1.1973
17828SOL     OW58330   5.701   9.248   9.614 -0.0272  0.0810  0.7040
17828SOL    HW158331   5.616   9.289   9.630  0.5504  1.2070  0.9685
17828SOL    HW258332   5.756   9.278   9.687  0.9637  0.4279 -0.1699
17829SOL     OW58333   9.121   9.275   8.452 -0.6196 -0.2470  0.2049
17829SOL    HW158334   9.045   9.227   8.486  0.6190 -2.3086  0.1536
17829SOL    HW258335   9.171   9.298   8.530 -1.4795  1.4887  0.2709
17830SOL     OW58336   5.914   9.789   7.391 -0.0413  0.3277  0.0247
17830SOL    HW158337   5.984   9.731   7.361 -0.5268  0.2161 -0.9092
17830SOL    HW258338   5.944   9.821   7.476  0.0866 -1.5518  0.7113
17831SOL     OW58339   6.240   0.909   0.932  0.3034 -0.9495  0.5262
17831SOL    HW158340   6.261   0.934   0.842 -1.9148 -3.0091 -0.5995
17831SOL    HW258341   6.269   0.818   0.939  0.1691 -0.9011  1.8140
17832SOL     OW58342   6.538   1.369   8.637 -0.4208  0.1640  0.1024
17832SOL    HW158343   6.524   1.366   8.542 -0.5184  1.6530  0.0449
17832SOL    HW258344   6.482   1.300   8.672 -1.5208  0.5724 -0.8114
17833SOL     OW58345   7.338   0.474   6.884 -0.1020  0.0744 -0.1318
17833SOL    HW158346   7.430   0.460   6.907 -0.6402 -0.5111  1.8215
17833SOL    HW258347   7.292   0.470   6.968 -2.0367 -0.6760 -1.1872
17834SOL     OW58348   6.086   0.448   7.580 -0.2208 -0.4733  0.3911
17834SOL    HW158349   6.175   0.431   7.551  0.1606  0.5757  0.9149
17834SOL    HW258350   6.036   0.457   7.499  0.3661  0.0663  0.0849
17835SOL     OW58351   5.587   1.015   8.437  0.0660  0.2324  0.6700
17835SOL    HW158352   5.631   1.096   8.412  0.6958 -0.8166 -1.8177
17835SOL    HW258353   5.658   0.952   8.450 -0.5294 -0.8295 -0.9874
17836SOL     OW58354   6.841   1.176   7.508  0.3767  0.0520 -1.0120
17836SOL    HW158355   6.873   1.124   7.434  1.9784  0.1522 -0.4218
17836SOL    HW258356   6.883   1.137   7.585  3.0823  3.2831 -0.7351
17837SOL     OW58357   5.844   0.059   7.019 -0.0469  0.3048  0.2779
17837SOL    HW158358   5.781  -0.001   7.060 -0.6923  1.0809  0.4412
17837SOL    HW258359   5.792   0.136   6.998  0.6708  0.6005 -0.4111
17838SOL     OW58360   6.419   0.168   7.989  0.8179  0.2079  0.2494
17838SOL    HW158361   6.512   0.190   7.984  1.2568 -1.5458  0.1845
17838SOL    HW258362   6.415   0.076   7.960 -1.1377  0.7714 -1.3463
17839SOL     OW58363   7.291   1.145   0.062  0.5571  0.1312  0.1361
17839SOL    HW158364   7.351   1.111  -0.005  0.6158  0.4445  0.0254
17839SOL    HW258365   7.204   1.134   0.024  0.5736  0.0733  0.1149
17840SOL     OW58366   6.929   1.909   8.509 -0.4361  0.5512  0.0009
17840SOL    HW158367   6.969   1.984   8.465  0.8351  0.6216  1.2539
17840SOL    HW258368   7.002   1.854   8.537 -1.3697 -1.5758 -1.5614
17841SOL     OW58369   7.068   0.733   7.768 -0.5614 -0.4199 -0.4518
17841SOL    HW158370   7.040   0.718   7.858  0.3606  0.2189 -0.0600
17841SOL    HW258371   6.992   0.707   7.715 -1.5651  0.4152  0.5568
17842SOL     OW58372   7.969   2.120   8.822  0.1014 -0.4645 -0.3451
17842SOL    HW158373   7.932   2.057   8.884  0.2523  0.4151  0.6615
17842SOL    HW258374   8.055   2.141   8.860  0.3514 -0.2056 -1.0616
17843SOL     OW58375   6.464   0.991   7.963 -0.2097  0.1802  0.3859
17843SOL    HW158376   6.399   1.020   7.900  0.2702 -0.4545 -0.4141
17843SOL    HW258377   6.430   1.018   8.048  0.0046  2.6826 -0.2947
17844SOL     OW58378   6.180   0.158   9.946  0.4359 -0.7654 -0.4233
17844SOL    HW158379   6.148   0.081   9.993  1.2175 -0.4443  0.6634
17844SOL    HW258380   6.245   0.196  10.004 -2.0754  2.4502  0.4334
17845SOL     OW58381   5.611   0.191   9.932 -0.0582  0.1444  0.0287
17845SOL    HW158382   5.550   0.118   9.940 -0.2073  0.2199 -0.4115
17845SOL    HW258383   5.624   0.202   9.838  1.5244 -0.6076  0.1450
17846SOL     OW58384   6.371   0.350   7.762 -0.4787  0.2314 -0.1052
17846SOL    HW158385   6.429   0.421   7.736 -1.4829  0.0291 -3.1389
17846SOL    HW258386   6.429   0.284   7.800  0.8853  1.2443 -0.3971
17847SOL     OW58387   6.216   0.356   8.384  0.3035  0.1370  0.4689
17847SOL    HW158388   6.125   0.383   8.396  0.2121  0.5426 -1.0295
17847SOL    HW258389   6.234   0.373   8.291  1.3766 -1.5592  0.3502
17848SOL     OW58390   7.744   0.958   8.121  0.8595 -0.5950  0.4131
17848SOL    HW158391   7.687   0.951   8.198  1.2310  0.7366  0.8110
17848SOL    HW258392   7.764   0.867   8.098  1.1401 -0.9920  2.1807
17849SOL     OW58393   8.337   1.529   7.740  0.6576  0.3598  0.4277
17849SOL    HW158394   8.347   1.472   7.817 -0.3106  0.9713  1.0168
17849SOL    HW258395   8.411   1.589   7.745  2.3625 -1.5794 -0.8517
17850SOL     OW58396   4.769   1.505   7.520 -0.1679 -0.0137  0.2602
17850SOL    HW158397   4.736   1.576   7.576  0.5068  1.3533 -1.0358
17850SOL    HW258398   4.794   1.435   7.581  2.0891  2.0686  1.8291
17851SOL     OW58399   7.191   0.831   7.479  0.5533  0.2799  0.0463
17851SOL    HW158400   7.262   0.771   7.500  0.8421  0.2744 -0.8960
17851SOL    HW258401   7.111   0.778   7.488  0.7334  0.0407  0.2382
17852SOL     OW58402   7.583   1.432   8.163  0.0944 -0.2773 -0.1917
17852SOL    HW158403   7.636   1.464   8.090  0.1008 -0.9817 -0.4976
17852SOL    HW258404   7.578   1.507   8.223  0.9582 -0.0280 -0.4247
17853SOL     OW58405   5.782   2.252   8.178 -0.1944 -0.0627 -0.4487
17853SOL    HW158406   5.696   2.258   8.135 -0.8685  3.5081  1.2395
17853SOL    HW258407   5.837   2.315   8.131  0.8188 -0.5280  0.0852
17854SOL     OW58408   8.071   2.362   7.722 -0.0645  0.2617 -0.1614
17854SOL    HW158409   8.093   2.293   7.660 -2.7133 -0.6095 -0.1928
17854SOL    HW258410   8.126   2.343   7.799  0.7215 -0.6733 -0.9431
17855SOL     OW58411   5.652   9.946   8.766  0.2900 -0.5304  0.1709
17855SOL    HW158412   5.582   9.882   8.755 -1.2060  1.1489 -0.2132
17855SOL    HW258413   5.703   9.940   8.685  1.1940 -2.4374  0.8524
17856SOL     OW58414   6.430   0.881   8.912 -0.1056 -0.0779  0.0391
17856SOL    HW158415   6.510   0.852   8.867  0.1398 -0.2914  0.6136
17856SOL    HW258416   6.364   0.815   8.888  0.0120 -0.1654 -0.0418
17857SOL     OW58417   6.755   0.386   7.167  0.2610 -0.2179  1.0200
17857SOL    HW158418   6.721   0.384   7.256 -1.3171  1.8530  0.4726
17857SOL    HW258419   6.702   0.322   7.120  1.6248 -1.9053  1.7146
17858SOL     OW58420   6.741   1.411   7.410  0.4581  0.5878 -0.7455
17858SOL    HW158421   6.773   1.329   7.448 -0.4043  0.5207 -0.1507
17858SOL    HW258422   6.782   1.415   7.324  2.3529  0.6864  0.1527
17859SOL     OW58423   6.590   0.915   0.444  0.3146 -0.0232  0.1913
17859SOL    HW158424   6.508   0.964   0.446  0.1364 -0.3623  2.8560
17859SOL    HW258425   6.564   0.825   0.424  0.3575  0.4281 -1.9397
17860SOL     OW58426   6.680   0.917   9.983 -0.1788  0.1936 -0.2795
17860SOL    HW158427   6.728   0.890  10.061  1.1743  2.3224 -0.3511
17860SOL    HW258428   6.595   0.946  10.016 -0.2765 -0.6172  0.1890
17861SOL     OW58429   5.621   1.578   8.574 -0.0252  0.0065 -0.0582
17861SOL    HW158430   5.618   1.516   8.501  0.3377 -1.2906  1.0034
17861SOL    HW258431   5.536   1.570   8.615 -0.1524  0.5819 -0.2055
17862SOL     OW58432   4.476   0.224   6.781  0.1851 -0.3142  0.1890
17862SOL    HW158433   4.557   0.253   6.825 -1.1730  0.6008  2.1888
17862SOL    HW258434   4.461   0.136   6.815 -0.9728  0.4691  1.7607
17863SOL     OW58435   6.781   2.299   8.044  0.0995  0.5767 -0.1129
17863SOL    HW158436   6.828   2.370   8.000  1.5590  0.7903  1.7127
17863SOL    HW258437   6.757   2.239   7.974  1.7480  1.2337 -1.2923
17864SOL     OW58438   3.772   1.787   7.494  0.1746 -0.1580 -0.1873
17864SOL    HW158439   3.823   1.857   7.454  1.1201 -0.8295 -0.1640
17864SOL    HW258440   3.681   1.810   7.475  0.5765 -0.0511 -1.9961
17865SOL     OW58441   6.654   1.180   8.253 -0.1924 -0.0214  0.3284
17865SOL    HW158442   6.704   1.099   8.268  2.1282  1.2805 -0.1124
17865SOL    HW258443   6.599   1.189   8.331  0.0559 -1.6321  0.7209
17866SOL     OW58444   6.602   1.592   6.908  0.1676 -0.4308  0.1572
17866SOL    HW158445   6.626   1.658   6.973 -1.9415 -0.1141  0.6747
17866SOL    HW258446   6.563   1.521   6.959  1.1656 -1.4675 -0.5134
17867SOL     OW58447   5.393   1.505   8.688  0.0356 -0.2636 -0.1110
17867SOL    HW158448   5.412   1.491   8.781 -1.1657  0.7580  0.3059
17867SOL    HW258449   5.370   1.418   8.655  0.2966 -0.6077  0.5950
17868SOL     OW58450   6.397   3.305   6.996  0.0516 -0.3543 -0.2238
17868SOL    HW158451   6.461   3.262   7.052  1.0039 -0.8045 -1.6306
17868SOL    HW258452   6.366   3.379   7.048  3.3022  1.1600 -0.2641
17869SOL     OW58453   4.520   1.828   6.640 -0.4130 -0.2739 -0.0814
17869SOL    HW158454   4.442   1.884   6.643 -2.4438 -2.8577 -2.2484
17869SOL    HW258455   4.558   1.846   6.554  1.5283  1.1090  1.0393
17870SOL     OW58456   5.535   1.028   9.201  0.0691  0.1383  0.2534
17870SOL    HW158457   5.509   1.111   9.162 -1.1816  0.3567  1.5306
17870SOL    HW258458   5.549   1.048   9.294 -1.3869 -1.3069  0.8134
17871SOL     OW58459   8.369   9.480   8.839 -0.0357 -0.6198  0.0695
17871SOL    HW158460   8.308   9.540   8.883 -1.5266 -2.5456  0.6862
17871SOL    HW258461   8.423   9.537   8.785 -0.3172  1.4750  1.9141
17872SOL     OW58462   6.900   9.984   9.476 -0.4233  0.0665  0.3045
17872SOL    HW158463   6.826  10.011   9.529  0.2348  2.1220  0.2229
17872SOL    HW258464   6.977  10.005   9.529  0.1592 -0.0953 -0.4595
17873SOL     OW58465   7.774   9.563   6.013  0.5782  0.2351  0.4080
17873SOL    HW158466   7.862   9.527   5.997  1.1122  2.5993 -2.2874
17873SOL    HW258467   7.779   9.601   6.101  2.1555  0.0543  0.4089
17874SOL     OW58468   6.751   8.945   8.935 -0.3290  0.0862  0.3263
17874SOL    HW158469   6.715   8.897   9.009  0.6849 -1.2534 -0.0251
17874SOL    HW258470   6.831   8.986   8.969  0.6610 -1.3269 -0.2612
17875SOL     OW58471   6.453   9.405   7.788 -0.0813  0.5360  0.4137
17875SOL    HW158472   6.437   9.370   7.700 -1.6362  3.4037 -0.5284
17875SOL    HW258473   6.547   9.394   7.802 -0.0764 -1.4145 -0.9157
17876SOL     OW58474   6.047   8.871   8.940  0.1484 -0.1371 -0.9020
17876SOL    HW158475   6.132   8.892   8.901 -0.4652 -0.5668 -2.5200
17876SOL    HW258476   5.983   8.898   8.874 -0.9342 -0.7548 -0.1313
17877SOL     OW58477   6.048   2.023   9.018 -0.4604 -0.7153  0.2211
17877SOL    HW158478   5.964   1.977   9.024 -1.6875  1.6329  2.1180
17877SOL    HW258479   6.049   2.059   8.929 -2.2821  0.6690  0.7321
17878SOL     OW58480   4.850   1.875   7.428  0.4246 -0.4582 -0.8141
17878SOL    HW158481   4.913   1.826   7.481 -0.0496 -1.1304 -0.8649
17878SOL    HW258482   4.767   1.864   7.474 -0.3977 -2.7313 -2.7500
17879SOL     OW58483   6.921   0.526   9.161  0.1402 -0.4412 -0.6698
17879SOL    HW158484   6.906   0.481   9.078  0.0439 -0.3528 -0.7005
17879SOL    HW258485   6.838   0.518   9.208  0.2459 -0.6310 -0.5166
17880SOL     OW58486   6.993   1.786   7.543 -0.5685  0.2888 -0.3398
17880SOL    HW158487   7.079   1.826   7.528 -0.4111  0.2737  0.5282
17880SOL    HW258488   6.989   1.771   7.637 -1.0895 -0.7075 -0.5149
17881SOL     OW58489   7.885   9.809   8.277  0.1808 -0.5102  0.5148
17881SOL    HW158490   7.818   9.845   8.219  0.1120 -0.3381  0.7025
17881SOL    HW258491   7.910   9.883   8.333  0.3413 -0.6432  0.6170
17882SOL     OW58492   6.539   0.936   8.496  0.1389 -0.2942 -0.0433
17882SOL    HW158493   6.469   0.997   8.521 -0.8501 -2.1549  1.9401
17882SOL    HW258494   6.502   0.886   8.423 -0.2585 -0.6197  0.3741
17883SOL     OW58495   5.518   1.419   8.925  0.2555  0.0681  0.5830
17883SOL    HW158496   5.533   1.363   8.849  0.7217  2.4403 -1.1262
17883SOL    HW258497   5.467   1.365   8.985  1.4993 -2.5027 -0.5915
17884SOL     OW58498   7.459   0.488   9.032 -0.3851 -0.2404  0.2162
17884SOL    HW158499   7.520   0.421   9.002  2.0079  0.9989  2.1371
17884SOL    HW258500   7.397   0.497   8.960  1.2195 -2.1293 -1.4766
17885SOL     OW58501   6.785   0.918   8.925  0.3606  0.0870 -0.0633
17885SOL    HW158502   6.825   0.832   8.911  0.5838  0.3283 -0.9448
17885SOL    HW258503   6.860   0.978   8.930  0.2118  0.2159  0.6669
17886SOL     OW58504   6.817   0.773   8.137 -0.1542  0.1193  0.6908
17886SOL    HW158505   6.896   0.727   8.108  0.4329 -0.1965  2.7197
17886SOL    HW258506   6.767   0.707   8.184 -0.3248  1.0185  1.7766
17887SOL     OW58507   7.324   9.897   6.984 -0.5296  0.2023 -0.5167
17887SOL    HW158508   7.315   9.825   7.046  0.1712 -0.3529 -1.0469
17887SOL    HW258509   7.413   9.888   6.949 -0.5691  1.0988 -0.8654
17888SOL     OW58510   5.393   0.820   9.117 -0.2728  0.0952 -0.1070
17888SOL    HW158511   5.433   0.890   9.169 -0.3907  0.6275 -0.7260
17888SOL    HW258512   5.443   0.819   9.035  0.0642 -0.9000  0.0996
17889SOL     OW58513   7.199   0.505   0.559  1.1051  0.3984  0.7486
17889SOL    HW158514   7.198   0.560   0.480  1.5803 -0.6806 -0.0181
17889SOL    HW258515   7.159   0.560   0.627  1.5212  1.6703 -0.0157
17890SOL     OW58516   6.401   0.538   8.979  0.1317 -0.2356 -0.0133
17890SOL    HW158517   6.330   0.591   9.015 -0.1167 -0.2418 -0.5015
17890SOL    HW258518   6.479   0.592   8.992 -0.0721  0.1049 -0.1947
17891SOL     OW58519   5.434   0.909   8.744  0.5865  0.0330 -0.2117
17891SOL    HW158520   5.519   0.950   8.729 -0.2905  1.1922 -2.2048
17891SOL    HW258521   5.370   0.978   8.726 -0.8403 -1.6083 -1.6482
17892SOL     OW58522   5.506   0.682   6.695  0.1252 -0.1097  0.3752
17892SOL    HW158523   5.464   0.764   6.720  0.4409  0.8917 -2.1970
17892SOL    HW258524   5.585   0.677   6.750 -0.1421  1.0781  0.8702
17893SOL     OW58525   7.223   0.994   9.248  0.4838  0.0941  0.4923
17893SOL    HW158526   7.135   1.001   9.285  0.8837  0.4621  1.3834
17893SOL    HW258527   7.242   0.900   9.249 -0.0545 -0.0250 -0.0816
17894SOL     OW58528   7.036   2.498   0.279 -0.1444 -0.3781 -0.6445
17894SOL    HW158529   7.000   2.560   0.216 -0.9401  0.5592  0.7066
17894SOL    HW258530   7.117   2.539   0.309 -0.2435 -0.3870 -0.3676
17895SOL     OW58531   6.696   0.053   8.324  0.0728  0.4769  0.0302
17895SOL    HW158532   6.657   0.116   8.263 -0.1673  1.5329  1.2553
17895SOL    HW258533   6.648  -0.028   8.309 -0.9951  1.1375 -0.1323
17896SOL     OW58534   5.687   9.576   8.552 -0.4594 -0.5856 -0.1782
17896SOL    HW158535   5.629   9.618   8.616 -0.4034 -0.0991 -0.4505
17896SOL    HW258536   5.688   9.635   8.477  1.0661 -0.1715  0.1480
17897SOL     OW58537   6.255   8.587   8.818  0.3305  0.0562 -0.4647
17897SOL    HW158538   6.330   8.528   8.821  0.7769  0.5396 -1.6853
17897SOL    HW258539   6.261   8.629   8.732 -1.0530  0.4692 -0.3809
17898SOL     OW58540   5.110   0.726   1.085 -0.3691  0.0469  1.0188
17898SOL    HW158541   5.035   0.684   1.126 -0.4683 -0.7762  0.0110
17898SOL    HW258542   5.088   0.819   1.084 -0.8711 -0.0630  1.7544
17899SOL     OW58543   5.342   0.635   9.304 -0.0352  0.7827  0.1041
17899SOL    HW158544   5.380   0.684   9.377 -0.2464  2.1840 -0.7231
17899SOL    HW258545   5.363   0.686   9.226 -0.5646 -0.2552 -0.7357
17900SOL     OW58546   6.278   9.137   0.011  0.2464 -0.7953  0.1738
17900SOL    HW158547   6.289   9.044  -0.005  1.3315 -0.6246 -0.1108
17900SOL    HW258548   6.367   9.171   0.021 -0.1354  0.2118  0.2581
17901SOL     OW58549   7.423   0.962   9.891  0.3969  0.4670 -0.1188
17901SOL    HW158550   7.488   0.978   9.822  1.3712 -2.3718  0.0909
17901SOL    HW258551   7.475   0.951   9.971 -0.3935 -1.0979  0.1846
17902SOL     OW58552   5.690   1.375   7.309  0.1712 -0.2152  0.9468
17902SOL    HW158553   5.629   1.342   7.244  2.7110  0.5900 -1.9891
17902SOL    HW258554   5.728   1.297   7.349 -0.2437 -0.7466  0.3140
17903SOL     OW58555   5.694   0.516   8.087 -0.0146  0.6689 -0.0196
17903SOL    HW158556   5.667   0.567   8.011 -1.4989 -3.0801 -2.1504
17903SOL    HW258557   5.612   0.496   8.132  0.4730 -0.2338  0.4828
17904SOL     OW58558   5.529   1.248   8.704  0.0949 -0.1856 -0.4761
17904SOL    HW158559   5.582   1.172   8.678  0.5116 -0.1041  0.1277
17904SOL    HW258560   5.458   1.251   8.640  0.0803 -1.0865 -0.5072
17905SOL     OW58561   5.940   2.210   6.717 -0.4905 -0.7022  0.3821
17905SOL    HW158562   5.988   2.291   6.701 -2.0697  0.1163 -0.3391
17905SOL    HW258563   5.906   2.219   6.805 -0.4712 -0.6845  0.3882
17906SOL     OW58564   7.071   2.084   8.317 -0.6413 -0.3771  0.4703
17906SOL    HW158565   7.096   2.087   8.224 -0.3606  0.9447  0.5718
17906SOL    HW258566   7.142   2.037   8.360  0.6377  1.4173  0.4143
17907SOL     OW58567   5.776   9.705   1.160 -0.6877 -0.3755 -0.4813
17907SOL    HW158568   5.869   9.718   1.142 -0.5088 -0.9828 -0.0136
17907SOL    HW258569   5.740   9.672   1.077 -1.0946  2.7065 -1.5815
17908SOL     OW58570   6.293   0.208   8.855 -0.3463 -0.4197  0.8001
17908SOL    HW158571   6.268   0.178   8.768 -1.2891  0.1031  0.8915
17908SOL    HW258572   6.234   0.162   8.915 -2.6826  2.5350  0.8602
17909SOL     OW58573   6.949   1.005   6.676  0.9608  0.2487 -0.6128
17909SOL    HW158574   6.978   0.973   6.762  0.4385  0.6836 -0.2681
17909SOL    HW258575   6.877   0.948   6.652 -1.7426  2.7533  1.2289
17910SOL     OW58576   5.502   1.665   9.486 -0.4706  0.2145 -0.2765
17910SOL    HW158577   5.539   1.752   9.502 -1.5425  0.6854 -0.2852
17910SOL    HW258578   5.537   1.639   9.401  0.6862  0.1800  0.2031
17911SOL     OW58579   8.635   3.100   6.779 -0.1801 -0.2126 -0.4423
17911SOL    HW158580   8.703   3.165   6.761  0.0816 -1.0533 -2.6763
17911SOL    HW258581   8.633   3.093   6.874  0.0974  2.7248 -0.1659
17912SOL     OW58582   4.693   2.788   7.623 -0.5278  0.1414 -0.6460
17912SOL    HW158583   4.694   2.794   7.718 -0.5911  0.9561 -0.6957
17912SOL    HW258584   4.621   2.727   7.603 -0.7632  0.2752 -0.1966
17913SOL     OW58585   5.469   1.403   6.587 -0.0568 -0.2912 -0.1566
17913SOL    HW158586   5.411   1.327   6.581  0.0098 -0.3607  0.0846
17913SOL    HW258587   5.514   1.406   6.503  1.4630 -1.7315  0.5813
17914SOL     OW58588   6.966   0.159   7.821 -0.3127 -0.3100  0.3506
17914SOL    HW158589   6.970   0.097   7.748  3.3781 -1.3468  1.3210
17914SOL    HW258590   6.962   0.104   7.899 -3.7512  0.7889  1.0571
17915SOL     OW58591   6.826   8.356   8.901 -0.2912  0.2297 -0.4823
17915SOL    HW158592   6.782   8.375   8.983  0.0884  0.9890 -0.4432
17915SOL    HW258593   6.870   8.438   8.878  0.3482 -0.2425 -0.9776
17916SOL     OW58594   6.114   1.323   7.656 -0.3178  0.2698 -0.0795
17916SOL    HW158595   6.144   1.329   7.747 -0.7868 -0.4115  0.1260
17916SOL    HW258596   6.026   1.359   7.658 -0.2516  0.4405 -0.3036
17917SOL     OW58597   6.036   0.663   9.767 -0.9478  0.0098 -0.2314
17917SOL    HW158598   6.092   0.713   9.707 -1.1065  0.7208  0.2092
17917SOL    HW258599   5.950   0.705   9.761 -1.2101 -0.5167 -0.2245
17918SOL     OW58600   8.042   1.690   8.282  0.6059  0.1856  0.2619
17918SOL    HW158601   7.959   1.653   8.312  0.9494 -1.1573 -0.4130
17918SOL    HW258602   8.100   1.684   8.358  0.2023  0.7696  0.6174
17919SOL     OW58603   7.425   0.768   6.344  0.2726  0.0818  0.2105
17919SOL    HW158604   7.363   0.705   6.307 -0.6174  0.4106  1.1320
17919SOL    HW258605   7.478   0.796   6.269 -1.7704  1.0323 -0.9147
17920SOL     OW58606   5.452   0.797   9.561  0.3712 -0.4238 -0.0851
17920SOL    HW158607   5.373   0.765   9.603  0.0760 -2.4941 -2.1529
17920SOL    HW258608   5.456   0.890   9.586 -1.4484 -0.8329  1.8772
17921SOL     OW58609   6.407   9.093   9.286  0.1518 -0.5473 -0.0491
17921SOL    HW158610   6.379   9.181   9.263 -1.2814 -0.9340  0.1985
17921SOL    HW258611   6.402   9.044   9.204 -0.1009 -0.6789  0.0468
17922SOL     OW58612   5.279   2.012   8.503 -0.0060 -0.1915  0.2334
17922SOL    HW158613   5.233   1.930   8.518  0.1310 -0.1519  0.9143
17922SOL    HW258614   5.212   2.072   8.470  0.0647 -0.7989 -1.0257
17923SOL     OW58615   5.742   2.047   9.661 -0.3229 -0.2581  0.1639
17923SOL    HW158616   5.664   2.000   9.631  0.3607 -0.1222 -1.9256
17923SOL    HW258617   5.815   2.003   9.618  0.9925 -1.7171  3.7452
17924SOL     OW58618   6.247   0.863   1.242 -0.6981 -0.3393 -0.2183
17924SOL    HW158619   6.267   0.917   1.166 -0.0776  1.3510  1.0920
17924SOL    HW258620   6.177   0.911   1.288 -1.4652 -1.6212 -0.0228
17925SOL     OW58621   5.583   9.793   6.859  0.2106 -0.4114  0.1404
17925SOL    HW158622   5.631   9.824   6.936  0.1151 -0.8592  0.3864
17925SOL    HW258623   5.650   9.785   6.791 -0.0640  1.9792 -0.4437
17926SOL     OW58624   6.997   0.809   9.148  0.2284  0.0218  0.3420
17926SOL    HW158625   7.067   0.839   9.090 -0.3983  1.4747  0.3108
17926SOL    HW258626   6.999   0.714   9.140  0.7972  0.1442 -1.3057
17927SOL     OW58627   5.122   9.548   8.467  0.0409 -0.2277 -0.3341
17927SOL    HW158628   5.211   9.583   8.474 -0.4834  1.3231 -1.1642
17927SOL    HW258629   5.082   9.567   8.552  0.5570 -1.1446  0.1269
17928SOL     OW58630   6.758   0.981   7.069  0.1030 -0.0934 -0.2068
17928SOL    HW158631   6.731   1.071   7.053  0.4312 -0.3596 -2.4956
17928SOL    HW258632   6.676   0.932   7.075 -0.0480  0.1722 -0.0831
17929SOL     OW58633   6.277   0.686   8.508 -0.1363  0.3421  0.3408
17929SOL    HW158634   6.208   0.720   8.450  0.6748  0.4827 -0.5593
17929SOL    HW258635   6.342   0.649   8.448  0.2862 -0.3334  1.2084
17930SOL     OW58636   5.823   1.233   8.426  0.0342 -0.2821  0.4254
17930SOL    HW158637   5.867   1.277   8.498 -0.8738  2.2281 -0.5128
17930SOL    HW258638   5.894   1.203   8.369  0.7097 -1.3029  1.7685
17931SOL     OW58639   7.196   0.838   9.812  0.5615  0.8286  0.4314
17931SOL    HW158640   7.233   0.751   9.824  0.6844  0.5267 -1.9152
17931SOL    HW258641   7.268   0.898   9.830  1.4707  0.3155 -1.3168
17932SOL     OW58642   6.945   0.636   8.502 -0.0364  0.4222 -0.1574
17932SOL    HW158643   6.889   0.643   8.579  1.4566  0.2492  0.9426
17932SOL    HW258644   6.928   0.548   8.468  0.0303  0.1418  0.5300
17933SOL     OW58645   5.800   0.874   8.524 -0.0945  0.5628  0.1831
17933SOL    HW158646   5.789   0.789   8.567  1.8747  0.2311  0.0575
17933SOL    HW258647   5.894   0.880   8.505 -0.5141  1.9046 -1.5994
17934SOL     OW58648   7.101   9.821   8.516  0.0356  0.5208  0.7509
17934SOL    HW158649   7.174   9.853   8.464  0.1258 -1.7687 -0.6441
17934SOL    HW258650   7.099   9.876   8.594  3.2477  0.6096  0.8136
17935SOL     OW58651   7.511   1.390   7.690 -0.3576 -0.1040  0.1819
17935SOL    HW158652   7.449   1.375   7.761  0.0433 -1.4341  0.2654
17935SOL    HW258653   7.477   1.339   7.616  1.8178 -2.7171  0.9120
17936SOL     OW58654   6.958   2.186   9.216  0.0655  0.5719  0.1885
17936SOL    HW158655   6.953   2.120   9.284 -1.4523 -0.2986 -0.7293
17936SOL    HW258656   6.923   2.265   9.256  0.4135  0.4126  0.8113
17937SOL     OW58657   7.057   0.067   7.560 -0.2598 -0.2041 -0.2049
17937SOL    HW158658   7.095   0.108   7.482 -0.6227 -1.7533 -1.2274
17937SOL    HW258659   6.977   0.025   7.528 -0.4334 -0.8360  1.0253
17938SOL     OW58660   4.729   0.948   7.598 -0.2359 -0.0716 -0.0489
17938SOL    HW158661   4.694   0.862   7.576 -2.9109  0.8675  0.3949
17938SOL    HW258662   4.765   0.938   7.687 -2.1561 -0.3075  0.7188
17939SOL     OW58663   6.993   1.095   8.945 -0.2176  0.4939 -0.6727
17939SOL    HW158664   7.008   1.187   8.967 -0.6579  0.9466 -2.2036
17939SOL    HW258665   7.078   1.063   8.914 -0.2898  0.6399 -1.0219
17940SOL     OW58666   7.379   1.226   7.519  0.5107  0.4957 -0.0845
17940SOL    HW158667   7.294   1.183   7.522  0.7337  0.0709  0.1260
17940SOL    HW258668   7.387   1.259   7.429  0.3239  0.1353 -0.2321
17941SOL     OW58669   5.260   2.404   8.457  0.1643 -0.1164 -0.2357
17941SOL    HW158670   5.239   2.314   8.433 -0.0319 -0.3087  0.6480
17941SOL    HW258671   5.184   2.434   8.507 -0.1490  0.8273 -1.2475
17942SOL     OW58672   4.910   1.830   9.097 -0.1767  0.3804  0.3844
17942SOL    HW158673   4.843   1.892   9.070  0.3904  1.6211  1.7470
17942SOL    HW258674   4.872   1.744   9.078 -0.8196  1.1192 -1.8783
17943SOL     OW58675   8.192   1.599   9.150  0.3084  0.4908  0.2765
17943SOL    HW158676   8.208   1.611   9.057 -1.8023 -1.5039 -0.3786
17943SOL    HW258677   8.097   1.604   9.159  0.2263 -2.4561  1.8078
17944SOL     OW58678   8.416   1.079   9.111 -0.2486  0.0961 -0.1270
17944SOL    HW158679   8.369   1.151   9.154 -1.5000 -1.2133  0.7698
17944SOL    HW258680   8.457   1.119   9.035 -1.8090  1.5496 -0.2415
17945SOL     OW58681   5.741   0.452   7.812 -0.0977  0.1776  0.0293
17945SOL    HW158682   5.812   0.508   7.845 -0.2111 -0.0389  0.6457
17945SOL    HW258683   5.669   0.513   7.795  1.0964  0.8030 -3.2076
17946SOL     OW58684   6.647   8.853   9.186 -0.3588 -0.5361  0.2912
17946SOL    HW158685   6.714   8.841   9.253 -2.1910 -0.4564  2.1726
17946SOL    HW258686   6.568   8.876   9.234 -1.7759 -0.6638 -1.8914
17947SOL     OW58687   6.385   0.383   8.150 -0.7190  0.0991 -0.1740
17947SOL    HW158688   6.457   0.436   8.117  0.1390 -0.0455  1.4446
17947SOL    HW258689   6.387   0.304   8.095  0.4264  0.0535 -0.0820
17948SOL     OW58690   6.891   1.489   0.268  0.0582 -0.3859 -0.2887
17948SOL    HW158691   6.942   1.564   0.298 -1.8285  0.2534  1.3342
17948SOL    HW258692   6.879   1.505   0.174 -0.0256  1.1573 -0.0328
17949SOL     OW58693   5.845   0.137   7.281  0.7780 -0.0713  0.0016
17949SOL    HW158694   5.754   0.138   7.252  0.8540  0.7897 -0.2135
17949SOL    HW258695   5.894   0.101   7.207  0.5358 -1.1788  0.3664
17950SOL     OW58696   7.233   0.114   8.074  0.5643  0.5825  0.2404
17950SOL    HW158697   7.141   0.089   8.071  0.2702  1.6710  0.2458
17950SOL    HW258698   7.242   0.163   8.155  0.5540  2.8094 -1.0665
17951SOL     OW58699   5.022   0.545   7.140  0.3813  0.5346 -0.1420
17951SOL    HW158700   5.069   0.621   7.172  0.1921  0.3866  0.4846
17951SOL    HW258701   4.931   0.574   7.131  0.0222 -0.0279  1.5050
17952SOL     OW58702   5.459   1.302   7.776  0.3707  0.6279 -0.2397
17952SOL    HW158703   5.417   1.218   7.797  1.8217  0.6874  3.2467
17952SOL    HW258704   5.537   1.277   7.726 -0.6896  0.0924 -1.6282
17953SOL     OW58705   6.138   9.259   0.993 -0.3145 -0.2211 -0.2597
17953SOL    HW158706   6.145   9.291   0.903 -1.1909  1.6838  0.3338
17953SOL    HW258707   6.174   9.329   1.047 -2.9964  0.1772  1.1139
17954SOL     OW58708   6.857   0.537   9.461  0.3080  0.1564  0.8178
17954SOL    HW158709   6.907   0.613   9.430  0.2331  0.6827  1.9628
17954SOL    HW258710   6.789   0.524   9.395  0.3344  1.0651  0.6082
17955SOL     OW58711   5.680   1.560   9.668  0.4770  0.0749  0.0553
17955SOL    HW158712   5.684   1.472   9.631 -1.9285 -0.9129  2.0419
17955SOL    HW258713   5.631   1.611   9.604  0.2970 -0.4675 -0.2398
17956SOL     OW58714   6.073   0.858   0.135  0.0634  0.6180  0.5495
17956SOL    HW158715   6.117   0.786   0.091 -1.1670 -1.6480  2.8997
17956SOL    HW258716   5.981   0.832   0.138 -0.0733  1.1691  3.4152
17957SOL     OW58717   4.359   9.870   0.949  0.4697  0.1543  0.0514
17957SOL    HW158718   4.395   9.956   0.970  2.6864 -0.2942 -1.7151
17957SOL    HW258719   4.299   9.886   0.876  0.1493  0.3264  0.3504
17958SOL     OW58720   7.141   2.864   0.164 -0.2234 -0.5100  0.5819
17958SOL    HW158721   7.073   2.834   0.104 -0.7182  0.8463  0.4357
17958SOL    HW258722   7.193   2.926   0.113 -0.7189  0.7395  1.5511
17959SOL     OW58723   5.358   9.727   0.897  0.1453  0.3710 -0.0118
17959SOL    HW158724   5.333   9.738   0.989  3.6197 -0.6542  1.1392
17959SOL    HW258725   5.354   9.633   0.882  1.3357  0.3556 -0.3293
17960SOL     OW58726   8.272   1.107   0.634  0.4685 -0.1283  0.6079
17960SOL    HW158727   8.210   1.049   0.679 -0.4519  1.0896  0.9397
17960SOL    HW258728   8.267   1.081   0.542 -1.1189  0.4566  0.5145
17961SOL     OW58729   7.924   2.017   9.513  0.0527  0.1602 -0.0312
17961SOL    HW158730   7.994   2.007   9.578 -0.0673  0.5795  0.1630
17961SOL    HW258731   7.931   2.108   9.485  2.1251 -0.7724 -2.8844
17962SOL     OW58732   6.595   9.404   8.801 -0.3995  0.4861 -0.3712
17962SOL    HW158733   6.502   9.414   8.819 -0.2032 -0.6976  1.4758
17962SOL    HW258734   6.632   9.491   8.816 -0.6516  0.1255  2.6193
17963SOL     OW58735   7.221   0.301   9.842 -0.2172 -0.0397  0.0565
17963SOL    HW158736   7.191   0.241   9.774  1.8017  2.1543 -2.8896
17963SOL    HW258737   7.146   0.359   9.857 -0.7737 -0.7180 -0.0430
17964SOL     OW58738   5.699   9.644   9.062  0.5899 -0.3517 -0.2211
17964SOL    HW158739   5.680   9.574   9.125 -1.9151  0.7946  0.3848
17964SOL    HW258740   5.646   9.623   8.986 -1.5887  1.7563  0.6403
17965SOL     OW58741   7.230   3.103   0.020  0.2013  0.0101 -0.2968
17965SOL    HW158742   7.267   3.186   0.050  1.3243  0.0602 -1.7967
17965SOL    HW258743   7.137   3.121   0.008  0.1582  0.6257  0.8743
17966SOL     OW58744   6.701   1.011   1.881  0.3056 -0.1039 -0.0704
17966SOL    HW158745   6.656   0.989   1.963  1.2877 -0.4030  0.3909
17966SOL    HW258746   6.649   0.968   1.813 -0.2582 -0.2306  0.4375
17967SOL     OW58747   5.238   0.974   0.593 -0.2891 -0.4400 -0.1162
17967SOL    HW158748   5.265   0.914   0.524  2.3774 -0.1012  0.5854
17967SOL    HW258749   5.170   0.926   0.641  1.2189 -2.6039 -0.0850
17968SOL     OW58750   7.454   0.817   9.030 -0.3259 -0.4789  0.1489
17968SOL    HW158751   7.429   0.757   9.100 -0.5952 -1.0030 -0.3932
17968SOL    HW258752   7.458   0.762   8.951 -0.0102  0.1010 -0.2427
17969SOL     OW58753   6.007   2.465   0.409 -0.0740  0.3965 -0.1891
17969SOL    HW158754   6.050   2.400   0.464 -1.8005 -0.7512 -0.1345
17969SOL    HW258755   6.045   2.453   0.322  1.3083  0.9393  0.3284
17970SOL     OW58756   7.680   1.986   9.658  0.4497 -0.0429  0.3827
17970SOL    HW158757   7.764   1.961   9.620 -0.4859 -1.1434 -1.0199
17970SOL    HW258758   7.636   1.903   9.676  0.1829  0.4957  2.3660
17971SOL     OW58759   7.729   1.561   0.486 -0.2642  0.2585 -0.1192
17971SOL    HW158760   7.823   1.578   0.494 -0.1018 -0.7479  0.3245
17971SOL    HW258761   7.706   1.516   0.568 -0.8639 -0.6192 -0.7521
17972SOL     OW58762   5.598   1.386   8.355 -0.4523 -0.3859 -0.0571
17972SOL    HW158763   5.586   1.404   8.262  1.2954 -1.1169 -0.4355
17972SOL    HW258764   5.673   1.327   8.359  0.3463  0.7231  1.9111
17973SOL     OW58765   6.662   1.133   9.044 -0.8111  0.4629 -0.2105
17973SOL    HW158766   6.675   1.137   9.139  1.5982  0.8952 -0.5072
17973SOL    HW258767   6.710   1.055   9.016  0.5599  1.6472 -1.3116
17974SOL     OW58768   5.075   9.863   1.209 -0.2268 -0.0043 -0.2375
17974SOL    HW158769   5.105   9.888   1.297 -0.7010 -0.5233  0.0716
17974SOL    HW258770   5.112   9.931   1.152 -1.9004  1.7224  0.6636
17975SOL     OW58771   6.200   0.641   9.153  0.4072  0.0680  0.2255
17975SOL    HW158772   6.209   0.720   9.100  0.3619 -1.0490 -1.4945
17975SOL    HW258773   6.154   0.670   9.232 -0.2504  1.6074 -0.7017
17976SOL     OW58774   6.163   9.912   1.547  0.5831 -0.7036  0.0511
17976SOL    HW158775   6.114   9.838   1.512  0.4557 -1.1862  1.2161
17976SOL    HW258776   6.097   9.966   1.591  0.6464  0.2081 -0.9479
17977SOL     OW58777   5.526   0.265   7.825  0.4488  0.3888 -0.0097
17977SOL    HW158778   5.603   0.322   7.829  1.8209 -1.4832  1.0559
17977SOL    HW258779   5.540   0.211   7.747  0.0819  0.2177  0.0426
17978SOL     OW58780   5.985   0.382   9.111 -0.5217 -0.3893  0.2905
17978SOL    HW158781   6.043   0.408   9.039  1.4095 -1.4795  1.3955
17978SOL    HW258782   5.938   0.462   9.134 -0.7512  0.1001 -1.7896
17979SOL     OW58783   7.393   3.066   9.321  0.2910  0.0391  0.3745
17979SOL    HW158784   7.320   3.062   9.383 -2.0054 -0.3728 -2.2351
17979SOL    HW258785   7.427   2.977   9.318 -0.0469 -0.0943  0.5137
17980SOL     OW58786   8.005   0.328   9.761 -0.5865  0.1394 -0.0934
17980SOL    HW158787   8.044   0.334   9.849  0.6068 -0.8258 -0.5411
17980SOL    HW258788   7.949   0.250   9.766  2.7395 -2.4197 -1.3951
17981SOL     OW58789   6.061   0.705   9.385 -0.5514  0.0895 -0.5013
17981SOL    HW158790   5.998   0.775   9.404 -0.0025  0.4295  0.0641
17981SOL    HW258791   6.128   0.714   9.453 -0.8610 -1.4575  0.0177
17982SOL     OW58792   8.124   0.465   0.506 -0.0186 -0.2518 -0.3258
17982SOL    HW158793   8.122   0.520   0.585  0.5686 -0.7243  0.0196
17982SOL    HW258794   8.067   0.511   0.444 -2.0378 -0.8586  1.0147
17983SOL     OW58795   5.958   0.884   9.167  0.2442 -0.3480 -0.0606
17983SOL    HW158796   6.042   0.926   9.150 -0.2226  0.8668  0.5191
17983SOL    HW258797   5.917   0.939   9.234 -1.8913  0.2753 -1.8060
17984SOL     OW58798   7.791   9.679   0.236  0.6419 -0.3389  0.1732
17984SOL    HW158799   7.810   9.730   0.315 -0.5842 -1.6309  1.3443
17984SOL    HW258800   7.849   9.603   0.242  0.1327 -0.7351  0.1395
17985SOL     OW58801   6.643   0.648   8.963  0.4152  0.2720  1.0829
17985SOL    HW158802   6.610   0.665   8.875  1.1155 -0.9765  0.5733
17985SOL    HW258803   6.738   0.648   8.954  0.4854 -0.0300  1.8062
17986SOL     OW58804   6.632   9.940   0.487 -0.1948  0.2237  0.6214
17986SOL    HW158805   6.703   9.903   0.435 -2.2550  1.3465 -3.2472
17986SOL    HW258806   6.556   9.885   0.466 -1.5151  1.8941  0.8842
17987SOL     OW58807   5.374   9.741   1.916 -0.3629  0.2458  0.6433
17987SOL    HW158808   5.306   9.687   1.957 -0.7184  1.2086  1.3284
17987SOL    HW258809   5.395   9.807   1.981 -0.4260  1.3740 -0.4527
17988SOL     OW58810   7.197   0.620   9.082 -0.1525  0.8369 -0.1892
17988SOL    HW158811   7.284   0.620   9.042  0.3938  1.1210  0.9565
17988SOL    HW258812   7.144   0.564   9.026  0.6890  0.9234 -1.0815
17989SOL     OW58813   8.390   1.545   0.251 -0.3349  0.0336 -0.6008
17989SOL    HW158814   8.339   1.623   0.273 -0.5567 -0.2878  0.0413
17989SOL    HW258815   8.326   1.483   0.218 -0.2664 -0.1366 -0.4161
17990SOL     OW58816   6.101   9.878   0.523  0.0644  0.1272  0.3802
17990SOL    HW158817   6.066   9.964   0.547 -0.8130 -0.0137 -0.3726
17990SOL    HW258818   6.188   9.876   0.564  0.3291  1.5938 -0.0527
17991SOL     OW58819   5.746   0.518   0.448  0.3850  0.2076 -0.0217
17991SOL    HW158820   5.721   0.542   0.359 -0.6532 -0.8563 -0.0409
17991SOL    HW258821   5.668   0.534   0.500  1.6141  2.7733  1.1058
17992SOL     OW58822   6.471   1.749   8.007 -0.2194  0.0865 -0.3120
17992SOL    HW158823   6.529   1.767   7.933 -0.8847  0.6279 -0.7074
17992SOL    HW258824   6.479   1.827   8.063 -1.3466  0.6344 -0.8858
17993SOL     OW58825   6.868   0.110   1.970  0.2709  0.4406  0.2198
17993SOL    HW158826   6.908   0.162   1.900  0.3882  0.9642  0.6687
17993SOL    HW258827   6.928   0.120   2.045  0.1315 -0.0873  0.4035
17994SOL     OW58828   7.286   0.273   1.486 -0.0739  0.4865  0.1251
17994SOL    HW158829   7.360   0.216   1.507  0.6056  1.1107 -0.5593
17994SOL    HW258830   7.299   0.350   1.541 -1.0387 -0.0370  1.1124
17995SOL     OW58831   8.574   0.919   9.799  0.1942  0.1368 -0.2714
17995SOL    HW158832   8.585   1.000   9.748 -1.1764  1.1184  0.9431
17995SOL    HW258833   8.589   0.946   9.890 -0.3057 -0.9600  0.1424
17996SOL     OW58834   7.472   8.074   1.259  0.4326  0.0491 -0.2517
17996SOL    HW158835   7.564   8.098   1.271  0.1480  1.7506 -1.2828
17996SOL    HW258836   7.437   8.140   1.199 -1.6582 -0.1184  0.7072
17997SOL     OW58837   8.571   2.207   9.373  0.1314  0.0782  0.0302
17997SOL    HW158838   8.645   2.164   9.330 -1.3575 -2.0373 -0.4684
17997SOL    HW258839   8.594   2.208   9.466  0.1246 -1.9747  0.0665
17998SOL     OW58840   6.900   0.672   8.879 -0.1252 -0.1590 -0.1725
17998SOL    HW158841   6.858   0.629   8.804 -0.0241 -1.1652  0.3435
17998SOL    HW258842   6.970   0.612   8.905 -1.2687 -0.6783  1.8300
17999SOL     OW58843   7.221   1.477   9.805 -0.3268  0.4270 -0.5727
17999SOL    HW158844   7.227   1.387   9.771  1.2924 -0.7425  2.5826
17999SOL    HW258845   7.132   1.504   9.785 -1.1679 -2.2572 -0.7406
18000SOL     OW58846   5.983   1.549   0.474  0.1810 -0.2464 -0.2437
18000SOL    HW158847   6.002   1.547   0.380  1.5749 -0.9667  0.0287
18000SOL    HW258848   6.048   1.610   0.510  1.6747 -2.2902  0.6363
18001SOL     OW58849   4.608   9.254   9.330 -0.2603  0.3829  0.4065
18001SOL    HW158850   4.540   9.188   9.344  0.5049 -0.7782 -1.1905
18001SOL    HW258851   4.612   9.301   9.413 -0.6191 -1.7612  1.6964
18002SOL     OW58852   5.892   1.245   0.266  0.2544 -0.4420  0.0123
18002SOL    HW158853   5.808   1.284   0.243  0.8328  0.6540 -0.3136
18002SOL    HW258854   5.874   1.151   0.276 -1.4473  0.0679  2.1499
18003SOL     OW58855   6.892   0.870   0.993  0.2710 -0.5442  0.5240
18003SOL    HW158856   6.980   0.893   1.023  0.3344  0.0108 -0.0897
18003SOL    HW258857   6.834   0.894   1.065  0.3513  1.3631 -0.0193
18004SOL     OW58858   7.358   9.765   9.186 -0.3182  0.8227  0.0169
18004SOL    HW158859   7.268   9.797   9.198 -0.9272 -0.1000 -1.8589
18004SOL    HW258860   7.363   9.743   9.093  1.3307 -0.7610  0.4624
18005SOL     OW58861   7.081   0.183   9.580 -0.4974 -0.1816 -0.6728
18005SOL    HW158862   7.145   0.122   9.543 -0.7008 -0.4302 -0.6146
18005SOL    HW258863   7.072   0.251   9.513  1.0039  0.6946 -0.0068
18006SOL     OW58864   8.500   0.328   9.058 -0.1619  0.0407 -0.5943
18006SOL    HW158865   8.558   0.312   8.984 -0.2200  0.6316 -0.7676
18006SOL    HW258866   8.522   0.259   9.121  0.1312 -0.2484 -1.0117
18007SOL     OW58867   5.478   1.318   9.784 -0.2171  0.4357 -0.6818
18007SOL    HW158868   5.547   1.259   9.752 -0.4816  0.1914 -0.8045
18007SOL    HW258869   5.415   1.260   9.828  0.7669  0.8836  1.4091
18008SOL     OW58870   5.049   9.281   8.352  0.2313 -0.3001  0.2979
18008SOL    HW158871   5.057   9.369   8.389 -2.1863  0.3718 -0.6374
18008SOL    HW258872   4.994   9.293   8.274 -2.2131 -2.9817  1.5135
18009SOL     OW58873   6.184   0.209   9.188  0.7073 -0.1526  0.4646
18009SOL    HW158874   6.248   0.279   9.206 -0.7852  0.6411  2.9102
18009SOL    HW258875   6.100   0.255   9.182  0.1315 -1.3713 -1.2879
18010SOL     OW58876   7.315   0.295   8.700 -0.7727 -0.2587 -0.3731
18010SOL    HW158877   7.286   0.373   8.748 -5.2642  0.3015 -3.6774
18010SOL    HW258878   7.363   0.330   8.625  2.4213 -0.9933  1.2377
18011SOL     OW58879   5.822   1.402   9.895  0.4427 -0.0880  0.1485
18011SOL    HW158880   5.804   1.464   9.824 -1.4465 -0.4079  0.3174
18011SOL    HW258881   5.917   1.406   9.907  0.4126  2.3957 -0.1861
18012SOL     OW58882   6.994   1.754   9.865 -0.3787 -0.1516 -0.2734
18012SOL    HW158883   6.987   1.685   9.799 -0.9623 -1.4886  1.1768
18012SOL    HW258884   7.088   1.757   9.887 -0.3124 -0.2733 -0.5403
18013SOL     OW58885   6.073   2.706   9.743  0.1907 -0.0755 -0.2076
18013SOL    HW158886   6.082   2.675   9.833  0.5255 -0.6959 -0.4526
18013SOL    HW258887   6.157   2.685   9.702  0.1683  0.5293 -0.5700
18014SOL     OW58888   8.468   2.256   2.682  0.3140 -0.4724  0.6893
18014SOL    HW158889   8.506   2.284   2.766  0.4949  2.8486 -0.4130
18014SOL    HW258890   8.395   2.317   2.667 -1.2631 -2.5825 -0.4121
18015SOL     OW58891   4.343   2.833   9.275 -0.2164 -0.9326 -0.2991
18015SOL    HW158892   4.342   2.742   9.303  2.1169 -0.4927  1.3973
18015SOL    HW258893   4.423   2.842   9.223 -0.4935  0.1114 -0.5691
18016SOL     OW58894   5.443   2.988   1.756 -0.3920  0.5489  0.3512
18016SOL    HW158895   5.514   3.051   1.741 -0.2105  0.3454  0.3640
18016SOL    HW258896   5.398   2.982   1.671  0.1842 -0.0408  0.0915
18017SOL     OW58897   7.397   4.377   1.170  0.8564  0.0017 -0.4980
18017SOL    HW158898   7.489   4.357   1.185  0.8370  0.7958  0.7818
18017SOL    HW258899   7.366   4.411   1.254 -0.8879 -1.2800 -0.5982
18018SOL     OW58900   6.531   2.020   0.426 -0.4667  0.1004  0.6955
18018SOL    HW158901   6.524   1.941   0.479  0.3069 -0.1438  0.4481
18018SOL    HW258902   6.441   2.050   0.415 -0.7947 -0.8843  0.5912
18019SOL     OW58903   6.949   1.491   0.665 -0.3301 -0.5736 -0.2461
18019SOL    HW158904   6.891   1.484   0.741  0.1418 -1.6478  0.0143
18019SOL    HW258905   6.975   1.401   0.646  0.9084 -0.1384 -0.6344
18020SOL     OW58906   5.883   3.604   2.002 -0.6771  0.3560 -0.1823
18020SOL    HW158907   5.836   3.525   1.974  2.4694 -2.2408  1.4637
18020SOL    HW258908   5.827   3.644   2.068 -1.9515 -0.9604 -0.4486
18021SOL     OW58909   5.731   1.646   0.221  0.0687  0.5425  0.3665
18021SOL    HW158910   5.718   1.552   0.209  0.4059  0.2996  1.8030
18021SOL    HW258911   5.733   1.681   0.132 -1.0609 -0.6662 -0.1538
18022SOL     OW58912   6.479   2.460   0.978 -0.3855  0.5759 -0.2580
18022SOL    HW158913   6.483   2.379   0.928 -0.1618  0.1245  0.4832
18022SOL    HW258914   6.567   2.469   1.015 -1.1062 -0.1074  1.6433
18023SOL     OW58915   5.341   3.038   1.504 -0.2153  0.1581  0.7114
18023SOL    HW158916   5.269   3.082   1.459  0.2092  0.5824  0.4410
18023SOL    HW258917   5.335   2.946   1.476 -0.4868  0.2486  0.4766
18024SOL     OW58918   8.013   3.761   0.310  0.3595  0.5793  0.2977
18024SOL    HW158919   8.033   3.794   0.397  2.3805 -3.3099  1.4128
18024SOL    HW258920   7.966   3.679   0.324 -0.1062  0.3425 -2.2665
18025SOL     OW58921   4.888   3.706   0.682 -0.4298 -0.0694 -0.1460
18025SOL    HW158922   4.902   3.743   0.595 -0.3588 -0.7984 -0.4513
18025SOL    HW258923   4.886   3.611   0.668  1.3019 -0.2883  0.8928
18026SOL     OW58924   5.761   2.584   0.749 -0.0224  0.0267  0.5099
18026SOL    HW158925   5.844   2.559   0.790 -0.8919  0.6359  2.7035
18026SOL    HW258926   5.707   2.505   0.754  0.1767 -0.1702 -0.3172
18027SOL     OW58927   6.353   3.142   0.304  0.4631 -0.4227 -0.4082
18027SOL    HW158928   6.312   3.059   0.331  1.0463 -1.1022 -1.5720
18027SOL    HW258929   6.429   3.115   0.253 -0.2970  0.8216 -2.2732
18028SOL     OW58930   7.588   2.573   2.099  0.2931 -0.1541  0.3053
18028SOL    HW158931   7.559   2.566   2.008  0.3544  0.8607  0.2028
18028SOL    HW258932   7.673   2.529   2.100  0.9280  1.0264 -0.4323
18029SOL     OW58933   5.746   1.920   1.616 -0.6384 -0.4563  0.0192
18029SOL    HW158934   5.664   1.969   1.617  0.5313  1.5284  1.8866
18029SOL    HW258935   5.799   1.962   1.548 -0.1225  0.0532  0.7315
18030SOL     OW58936   6.954   4.163   2.182 -0.1518  0.0069 -0.6826
18030SOL    HW158937   7.019   4.222   2.146  0.2034 -0.2951 -0.5355
18030SOL    HW258938   6.963   4.083   2.129 -0.4580 -0.0041 -0.7189
18031SOL     OW58939   5.762   1.748   9.835 -0.2253  0.4306  0.7141
18031SOL    HW158940   5.728   1.711   9.753  0.4987 -2.8400  1.7939
18031SOL    HW258941   5.734   1.839   9.834 -1.1731  0.1676 -2.6535
18032SOL     OW58942   7.947   2.168   9.994 -0.1278 -0.1602 -0.3198
18032SOL    HW158943   7.896   2.177  10.074 -1.7819  1.8100 -1.5520
18032SOL    HW258944   8.037   2.186  10.021 -0.3929 -1.3190  1.4155
18033SOL     OW58945   4.471   2.582   0.740 -0.5237 -0.2429  0.6587
18033SOL    HW158946   4.425   2.503   0.767  1.4399 -0.9409  2.1592
18033SOL    HW258947   4.534   2.552   0.674 -1.1020  0.4047 -0.1897
18034SOL     OW58948   5.784   3.625   8.735 -0.0313  0.4758  0.0766
18034SOL    HW158949   5.850   3.682   8.773 -1.3398  1.4463  0.9613
18034SOL    HW258950   5.722   3.685   8.693 -1.2885 -0.2954  0.7983
18035SOL     OW58951   8.343   3.136   0.996 -0.2875  0.1987  0.0201
18035SOL    HW158952   8.256   3.102   0.974 -1.4343  1.6668  2.0377
18035SOL    HW258953   8.361   3.102   1.084  0.6543  0.8232  0.0800
18036SOL     OW58954   7.437   2.754   1.749 -0.5859 -0.6427 -0.0672
18036SOL    HW158955   7.411   2.755   1.841  0.2337  3.2153  0.2053
18036SOL    HW258956   7.359   2.723   1.703 -1.9129 -0.0167  1.6909
18037SOL     OW58957   6.434   3.183   9.811  0.1964  0.8273  0.5383
18037SOL    HW158958   6.418   3.107   9.867  3.1040  0.1764  0.5246
18037SOL    HW258959   6.470   3.148   9.730 -1.8429  1.9644 -0.9226
18038SOL     OW58960   4.794   2.412   9.492  0.5853 -0.8177 -0.2810
18038SOL    HW158961   4.765   2.386   9.580 -2.1988  1.9300 -0.3028
18038SOL    HW258962   4.777   2.335   9.438 -0.7984 -1.4458  0.9900
18039SOL     OW58963   6.223   4.680   0.760 -0.2734 -0.2723 -0.0973
18039SOL    HW158964   6.146   4.727   0.727  0.0546 -0.5023 -1.1936
18039SOL    HW258965   6.187   4.600   0.800 -0.6941  0.1640  0.4110
18040SOL     OW58966   6.819   0.150   0.751  0.1540  0.1150  0.0105
18040SOL    HW158967   6.776   0.150   0.836 -2.2978 -0.6445 -1.1983
18040SOL    HW258968   6.821   0.057   0.726  1.5577  0.2557 -0.4281
18041SOL     OW58969   6.069   4.479   0.908  0.2480 -0.3466 -0.1773
18041SOL    HW158970   6.105   4.486   0.997  1.6617  0.6936 -0.8012
18041SOL    HW258971   6.044   4.388   0.899  0.8983 -0.6534  0.9966
18042SOL     OW58972   5.743   3.249   9.828  0.1722 -0.0374 -0.2685
18042SOL    HW158973   5.728   3.246   9.922  1.2472  0.1853 -0.0734
18042SOL    HW258974   5.723   3.160   9.797 -0.7985  0.0644  0.0628
18043SOL     OW58975   7.752   3.456   1.577 -0.4492 -0.3446  0.2391
18043SOL    HW158976   7.784   3.486   1.662 -0.0787 -2.2860  0.8233
18043SOL    HW258977   7.785   3.520   1.514  1.0693 -0.0416  1.3212
18044SOL     OW58978   6.688   1.967   9.895  0.4031 -0.9029  0.2163
18044SOL    HW158979   6.615   1.917   9.933 -0.1563 -0.9887 -0.9602
18044SOL    HW258980   6.736   2.000   9.971 -0.9125 -0.7776  1.0078
18045SOL     OW58981   8.214   4.262   0.386 -0.0173 -0.2776 -0.5779
18045SOL    HW158982   8.285   4.205   0.356  0.1624  0.2290 -1.1391
18045SOL    HW258983   8.229   4.272   0.480  1.0032  0.2944 -0.7904
18046SOL     OW58984   8.166   2.014   1.256 -0.1611 -0.1915  0.0644
18046SOL    HW158985   8.074   1.988   1.251 -0.4911  0.6935  1.1846
18046SOL    HW258986   8.163   2.104   1.289  1.1026 -0.1739  0.1333
18047SOL     OW58987   5.962   2.929   9.506  0.2902 -0.3114 -0.4054
18047SOL    HW158988   5.887   2.964   9.458 -0.1003 -0.6801 -0.0620
18047SOL    HW258989   5.928   2.908   9.593  0.7411 -0.6839 -0.3155
18048SOL     OW58990   7.691   2.878   1.039 -0.1949 -0.1123  0.0943
18048SOL    HW158991   7.715   2.936   1.111 -2.9274  1.8771 -0.5310
18048SOL    HW258992   7.681   2.936   0.964 -2.6648 -1.4333 -0.6391
18049SOL     OW58993   6.136   5.038   1.035 -0.1447 -0.1646 -0.9729
18049SOL    HW158994   6.190   5.018   0.959 -2.0868  2.3607 -3.1045
18049SOL    HW258995   6.125   5.133   1.033 -2.2724 -0.3161  1.0239
18050SOL     OW58996   5.765   2.089   0.680 -0.4871  0.0445 -0.2209
18050SOL    HW158997   5.743   2.009   0.728  1.6075 -0.6311 -0.3435
18050SOL    HW258998   5.787   2.058   0.592 -0.2203  0.8266 -0.4305
18051SOL     OW58999   7.097   3.442   1.148 -0.3085  0.0874  0.0909
18051SOL    HW159000   7.146   3.372   1.104 -1.1568 -0.4639  0.0035
18051SOL    HW259001   7.056   3.399   1.223 -0.9172  0.4619 -0.0205
18052SOL     OW59002   8.206   2.266   3.573  0.3549  0.5347  0.8674
18052SOL    HW159003   8.277   2.318   3.535  0.7533  0.9715  2.1707
18052SOL    HW259004   8.162   2.326   3.633 -1.5738  0.4658 -0.4600
18053SOL     OW59005   7.656   3.081   0.846 -0.5992  0.1168  0.6041
18053SOL    HW159006   7.623   3.171   0.839 -0.6009 -0.0568 -1.9803
18053SOL    HW259007   7.686   3.060   0.758  2.7241 -1.1753  1.9941
18054SOL     OW59008   7.405   2.682   0.773  0.0985  0.0801 -0.0127
18054SOL    HW159009   7.354   2.678   0.854  0.5680  0.5545  0.3093
18054SOL    HW259010   7.394   2.772   0.742  0.4592  0.0892 -0.1229
18055SOL     OW59011   3.676   2.981   9.946  0.5243 -0.0425 -0.0510
18055SOL    HW159012   3.697   2.933   9.866  3.0176  0.2310  0.4149
18055SOL    HW259013   3.734   2.943  10.013 -0.7176  0.5143  1.3703
18056SOL     OW59014   6.203   5.053   9.945  0.2085 -0.3718  0.4635
18056SOL    HW159015   6.108   5.057   9.954  0.0202 -1.3957 -0.8737
18056SOL    HW259016   6.237   5.100  10.021 -1.3844  1.2967  0.1580
18057SOL     OW59017   6.698   2.966   0.561  0.8429 -0.1182  0.1419
18057SOL    HW159018   6.755   2.905   0.514  0.0633  0.4898 -1.6421
18057SOL    HW259019   6.609   2.939   0.535  0.4360  0.7563  0.6221
18058SOL     OW59020   7.401   1.333   1.733 -0.7868  0.0575 -0.7558
18058SOL    HW159021   7.342   1.408   1.727  0.0672  0.8915  0.9950
18058SOL    HW259022   7.344   1.260   1.758 -1.2335  0.6181 -0.1327
18059SOL     OW59023   6.429   3.822   0.187  0.4369 -0.4425 -0.2206
18059SOL    HW159024   6.436   3.803   0.093 -0.1552 -0.6009 -0.2383
18059SOL    HW259025   6.470   3.746   0.230  1.8587  0.2232 -0.3653
18060SOL     OW59026   6.898   3.673   1.198  0.3431 -0.6240 -0.1538
18060SOL    HW159027   6.878   3.697   1.108 -0.1708 -1.2441 -0.2143
18060SOL    HW259028   6.938   3.586   1.191  1.6055 -0.0746  0.1049
18061SOL     OW59029   5.259   3.142   0.794 -0.2096  0.1031  0.2035
18061SOL    HW159030   5.169   3.137   0.826 -0.6134  0.2742 -0.8700
18061SOL    HW259031   5.252   3.119   0.701  1.1362 -1.9462  0.5769
18062SOL     OW59032   8.132   1.950   0.533  0.0475 -0.1096  0.1848
18062SOL    HW159033   8.140   1.870   0.584 -2.8612  0.1721  1.1555
18062SOL    HW259034   8.075   1.927   0.460  0.3008  0.7445 -0.2996
18063SOL     OW59035   5.410   4.539   0.932 -0.2277 -0.1166 -0.6697
18063SOL    HW159036   5.423   4.458   0.981  0.5056 -0.1049 -0.8273
18063SOL    HW259037   5.405   4.512   0.840 -0.6033 -0.0472 -0.6679
18064SOL     OW59038   6.031   2.613   0.827  0.5461  0.1556  0.0974
18064SOL    HW159039   6.065   2.597   0.915 -0.2391  1.2203  0.6030
18064SOL    HW259040   6.087   2.683   0.793  0.4796  0.1468 -0.0288
18065SOL     OW59041   7.906   5.094   0.049  0.0973  0.2954 -0.2334
18065SOL    HW159042   7.940   5.015   0.007 -1.8936 -1.7776  1.8859
18065SOL    HW259043   7.835   5.123  -0.008  0.1264 -0.0841 -0.4673
18066SOL     OW59044   6.957   2.891   1.104  0.2260  0.6099  0.2797
18066SOL    HW159045   6.979   2.948   1.177  1.0008  0.5571  0.0932
18066SOL    HW259046   7.020   2.913   1.036  0.3469 -0.2622  0.1023
18067SOL     OW59047   5.033   1.731   1.501 -0.4339 -0.2383  0.1195
18067SOL    HW159048   5.104   1.672   1.474 -1.0126 -0.7262 -0.3477
18067SOL    HW259049   4.963   1.673   1.529 -0.6550  0.2472  0.5815
18068SOL     OW59050   7.308   2.921   0.659  0.2600  0.1651  0.2082
18068SOL    HW159051   7.254   2.938   0.581 -0.5725  2.0328  1.1500
18068SOL    HW259052   7.388   2.971   0.644  0.3488  0.0462  0.2921
18069SOL     OW59053   6.850   3.202   0.623 -0.4829 -0.3105 -0.4979
18069SOL    HW159054   6.800   3.267   0.574 -0.9343 -0.1148  0.2158
18069SOL    HW259055   6.802   3.120   0.611 -0.4694 -0.3091 -0.5620
18070SOL     OW59056   6.498   4.564   1.945  0.4295 -0.2941  0.5362
18070SOL    HW159057   6.574   4.538   1.893 -0.1503 -1.1243  0.0861
18070SOL    HW259058   6.477   4.488   1.998  0.0193 -0.0143  0.7831
18071SOL     OW59059   5.396   3.709   1.717 -0.1457 -0.1889  0.4961
18071SOL    HW159060   5.443   3.765   1.655  0.3984  0.3600  1.3925
18071SOL    HW259061   5.465   3.662   1.764 -0.5193  0.0126  1.2533
18072SOL     OW59062   6.453   3.655   1.918  0.1620 -0.0512  0.0750
18072SOL    HW159063   6.385   3.722   1.915 -0.1469 -0.4006 -1.1210
18072SOL    HW259064   6.473   3.644   2.011 -0.6445  0.8282  0.3545
18073SOL     OW59065   4.922   3.316   2.110 -0.1203 -0.6304 -0.0107
18073SOL    HW159066   4.959   3.333   2.024 -2.2631 -1.6081 -1.1703
18073SOL    HW259067   4.961   3.233   2.138 -1.3081 -1.6089 -1.1823
18074SOL     OW59068   5.658   9.805   9.587  0.4960  0.1576 -0.1350
18074SOL    HW159069   5.699   9.887   9.612 -0.8607  1.2524 -1.4040
18074SOL    HW259070   5.708   9.775   9.511 -1.1451  1.6398 -1.8637
18075SOL     OW59071   6.115   1.651   2.865  0.4529  0.0609  0.4660
18075SOL    HW159072   6.178   1.723   2.872  1.7991 -1.0740  0.2829
18075SOL    HW259073   6.148   1.598   2.793 -0.4219 -0.8473  0.7309
18076SOL     OW59074   5.910   2.209   0.122 -0.4148 -0.1553 -0.3188
18076SOL    HW159075   5.934   2.295   0.088 -0.6487  0.1111  0.1817
18076SOL    HW259076   5.829   2.186   0.076 -0.0941 -0.3272 -0.8065
18077SOL     OW59077   5.996   2.382   1.184  0.2275 -0.6849  0.3007
18077SOL    HW159078   6.016   2.407   1.274  1.8159 -1.2387  0.1315
18077SOL    HW259079   6.076   2.403   1.135 -0.9205  0.4085 -1.1441
18078SOL     OW59080   5.773   3.552   0.841 -0.3424  0.3605  0.0546
18078SOL    HW159081   5.829   3.614   0.795 -0.2830  0.7493  0.6369
18078SOL    HW259082   5.722   3.509   0.772  0.0701  0.6037 -0.4031
18079SOL     OW59083   5.666   2.091   2.658 -0.4606  0.6173 -0.1232
18079SOL    HW159084   5.721   2.159   2.618 -0.6539  0.6567 -0.3210
18079SOL    HW259085   5.715   2.064   2.736 -0.1824  0.6853 -0.2740
18080SOL     OW59086   6.395   0.789   0.245  0.5001  0.9688 -0.6232
18080SOL    HW159087   6.399   0.713   0.186 -2.6078 -0.0871  0.4494
18080SOL    HW259088   6.342   0.853   0.197 -0.9663  0.5884  0.4733
18081SOL     OW59089   6.032   9.742   1.133 -0.2209 -0.1082 -0.0026
18081SOL    HW159090   6.107   9.728   1.190 -0.4670  0.5048  0.4672
18081SOL    HW259091   6.070   9.770   1.050  0.0211  0.9817  0.4767
18082SOL     OW59092   5.715   3.362   1.535  0.7335  0.3482 -0.1996
18082SOL    HW159093   5.741   3.293   1.474 -0.4824 -0.3860  0.0981
18082SOL    HW259094   5.684   3.433   1.479 -0.3721 -0.3231 -0.4355
18083SOL     OW59095   7.844   3.215   1.020 -0.2522  0.7415  0.2895
18083SOL    HW159096   7.796   3.157   0.961  1.0606 -3.7361  3.3878
18083SOL    HW259097   7.935   3.186   1.015  0.4693  2.5549  1.8905
18084SOL     OW59098   6.056   2.747   1.621  0.3680 -0.0737 -0.1445
18084SOL    HW159099   6.036   2.829   1.575 -1.2825  0.8578  2.1539
18084SOL    HW259100   6.101   2.775   1.701  0.1971 -1.4407  0.4410
18085SOL     OW59101   5.737   3.315   9.169 -0.0705 -0.0919  0.8230
18085SOL    HW159102   5.810   3.255   9.152  0.6490  0.4591  1.8939
18085SOL    HW259103   5.766   3.367   9.244 -1.4322  0.3650  1.0453
18086SOL     OW59104   5.410   1.660   1.263 -0.4480  0.1069  0.0220
18086SOL    HW159105   5.369   1.604   1.329 -1.1778 -0.0059 -0.5166
18086SOL    HW259106   5.504   1.645   1.273 -0.4290  1.6041  2.3550
18087SOL     OW59107   6.944   2.297   0.794  0.0905  0.1752  0.4048
18087SOL    HW159108   6.946   2.224   0.732 -1.0110 -2.7380  3.5924
18087SOL    HW259109   6.895   2.366   0.749  0.3748 -1.3683 -2.3722
18088SOL     OW59110   6.096   2.428   9.535  0.3559 -0.6401 -0.2010
18088SOL    HW159111   6.157   2.498   9.557 -0.5182  0.2390 -0.5808
18088SOL    HW259112   6.131   2.390   9.455  0.5360 -0.2896 -0.2895
18089SOL     OW59113   7.313   3.384   0.858 -0.4004  0.3046 -0.4656
18089SOL    HW159114   7.262   3.307   0.883  2.0724 -1.2465 -0.0706
18089SOL    HW259115   7.252   3.435   0.805 -2.3145 -1.5814 -0.1959
18090SOL     OW59116   7.942   2.988   0.773 -0.4909  0.2530  0.4235
18090SOL    HW159117   8.020   3.002   0.826 -0.0419 -0.0350 -0.1484
18090SOL    HW259118   7.897   2.914   0.814 -0.3517  0.2862  0.6319
18091SOL     OW59119   7.652   1.838   1.085  0.1653 -0.0606 -0.1555
18091SOL    HW159120   7.688   1.836   0.996  1.0161  0.1575  0.1836
18091SOL    HW259121   7.571   1.788   1.079  0.6597 -0.7887 -0.8649
18092SOL     OW59122   5.659   4.217   0.225 -0.7418 -0.8862  0.2380
18092SOL    HW159123   5.617   4.201   0.140  1.9215 -1.6717 -0.9798
18092SOL    HW259124   5.702   4.134   0.246  2.3309  0.6253  0.1822
18093SOL     OW59125   6.767   2.457   1.084  0.5558 -0.4579  0.6737
18093SOL    HW159126   6.778   2.520   1.155  1.9820 -0.6855  0.6609
18093SOL    HW259127   6.830   2.483   1.017 -1.6356  0.5088 -1.0936
18094SOL     OW59128   8.898   2.273   9.853  0.0744  0.1852  0.4813
18094SOL    HW159129   8.921   2.180   9.844 -1.2544 -0.1729  0.7559
18094SOL    HW259130   8.875   2.284   9.945  0.8529  0.9485  0.6016
18095SOL     OW59131   6.610   2.072   1.141 -0.1684 -0.1890 -0.2324
18095SOL    HW159132   6.673   2.003   1.160 -1.0240 -0.9887 -0.3035
18095SOL    HW259133   6.650   2.123   1.071 -0.6585 -2.1260 -1.9463
18096SOL     OW59134   7.946   3.462   1.244  0.2009 -0.0157  0.2718
18096SOL    HW159135   7.916   3.549   1.269 -0.3720 -0.0992 -0.1110
18096SOL    HW259136   8.041   3.472   1.231 -0.0340  0.8117 -0.8494
18097SOL     OW59137   6.316   3.761   9.890 -0.1687 -0.0155 -0.4400
18097SOL    HW159138   6.353   3.804   9.813 -1.0367  0.7138 -0.4539
18097SOL    HW259139   6.270   3.831   9.937 -0.4312 -0.6447  0.2533
18098SOL     OW59140   8.339   3.135   2.849 -0.3995 -0.6051  0.1378
18098SOL    HW159141   8.358   3.064   2.911 -1.9453 -0.1863  1.1172
18098SOL    HW259142   8.425   3.170   2.827  0.2820 -1.8161  0.8059
18099SOL     OW59143   5.975   2.909   0.964  0.0273 -0.3942  0.7438
18099SOL    HW159144   5.967   2.874   0.875  1.5665  0.0957  0.3935
18099SOL    HW259145   6.029   2.987   0.954 -0.7818  0.3272  1.9535
18100SOL     OW59146   6.224   1.247   1.380 -0.0081  0.9245  0.0144
18100SOL    HW159147   6.187   1.162   1.355 -0.1991  1.1949 -0.6531
18100SOL    HW259148   6.306   1.253   1.330  1.3690 -0.0331  2.1247
18101SOL     OW59149   4.843   2.079   9.600 -0.7826  0.2916  0.3903
18101SOL    HW159150   4.783   2.011   9.628 -0.0868 -0.4491  0.0997
18101SOL    HW259151   4.872   2.052   9.513 -1.6055  1.7029 -0.3454
18102SOL     OW59152   6.808   2.535   1.629  0.0101 -0.6881 -0.5552
18102SOL    HW159153   6.801   2.474   1.703 -0.1920  0.7972  0.6770
18102SOL    HW259154   6.717   2.558   1.609  0.1932  2.1967  1.5639
18103SOL     OW59155   7.179   3.755   0.282 -0.3153 -0.2033 -0.0355
18103SOL    HW159156   7.089   3.785   0.294 -0.0640  1.1292 -1.3235
18103SOL    HW259157   7.183   3.726   0.191  0.7481  0.4318 -0.1996
18104SOL     OW59158   7.582   2.426   0.764 -0.1220  0.4643 -0.1839
18104SOL    HW159159   7.545   2.351   0.809 -0.6077  1.5826  1.3131
18104SOL    HW259160   7.535   2.502   0.800  1.3035  1.6092 -0.6841
18105SOL     OW59161   6.092   2.057   0.993  0.3449  0.0962  0.0206
18105SOL    HW159162   6.063   2.086   1.079  1.5836  3.3822 -0.6028
18105SOL    HW259163   6.182   2.028   1.007  0.5312  0.5892 -0.1264
18106SOL     OW59164   7.074   3.397   0.227  0.1943 -0.6724 -0.3716
18106SOL    HW159165   7.164   3.374   0.201 -0.0269  0.3402 -2.0807
18106SOL    HW259166   7.071   3.378   0.321  2.0383 -1.2202 -0.4018
18107SOL     OW59167   6.425   3.213   0.563  0.1931 -0.0478  0.6671
18107SOL    HW159168   6.450   3.305   0.573 -3.8510  1.2061  0.3111
18107SOL    HW259169   6.396   3.206   0.472 -1.4626 -1.1219  1.2519
18108SOL     OW59170   6.536   2.592   1.569  0.0359 -0.4925  0.3399
18108SOL    HW159171   6.527   2.572   1.476  0.6001  1.7728 -0.2332
18108SOL    HW259172   6.447   2.605   1.599  0.0383  2.5313 -0.7989
18109SOL     OW59173   6.394   3.380   9.373  0.3183 -0.2971 -0.5656
18109SOL    HW159174   6.372   3.291   9.399 -1.6263  0.6688  1.2505
18109SOL    HW259175   6.314   3.430   9.389  0.2721  1.1801 -4.7331
18110SOL     OW59176   6.396   3.996   0.711 -0.2209  0.3763 -0.5418
18110SOL    HW159177   6.340   3.993   0.634  0.1227  0.0952 -0.7812
18110SOL    HW259178   6.481   3.962   0.681  0.0187  0.6083 -0.1343
18111SOL     OW59179   6.902   2.871   9.414  0.2381  0.8391 -0.5084
18111SOL    HW159180   6.810   2.849   9.404  0.0654  0.7294  1.2435
18111SOL    HW259181   6.914   2.888   9.507  1.8868  1.3315 -0.7773
18112SOL     OW59182   7.606   2.768   1.516  0.5266 -0.0651 -0.1477
18112SOL    HW159183   7.550   2.733   1.585 -0.7943  0.8468 -0.7406
18112SOL    HW259184   7.595   2.863   1.523  1.5913  0.0977 -0.6163
18113SOL     OW59185   4.667   3.749   2.530  0.4600  0.3593 -0.0255
18113SOL    HW159186   4.624   3.786   2.453  1.5784  0.1448 -0.7739
18113SOL    HW259187   4.702   3.825   2.577 -1.3226  0.5813  0.9533
18114SOL     OW59188   8.393   2.350   1.694 -0.2779 -0.3513 -0.4160
18114SOL    HW159189   8.478   2.346   1.649 -0.6797  0.9709 -1.3213
18114SOL    HW259190   8.392   2.436   1.736  1.0319 -2.3925  4.0905
18115SOL     OW59191   8.069   2.203   2.063 -0.8993  0.0500 -0.5262
18115SOL    HW159192   8.045   2.135   2.126 -0.3624  1.4507  1.2043
18115SOL    HW259193   8.150   2.241   2.097 -1.6418  2.1389 -1.0304
18116SOL     OW59194   5.552   1.574   1.580 -0.2115  0.3920 -0.0406
18116SOL    HW159195   5.526   1.502   1.637 -2.3381  1.2243  0.0818
18116SOL    HW259196   5.546   1.537   1.492 -0.4081  0.1482  0.0712
18117SOL     OW59197   6.603   3.509   1.067 -0.2995  0.6513  0.1698
18117SOL    HW159198   6.532   3.514   1.002 -0.5070  1.2376  0.4427
18117SOL    HW259199   6.656   3.435   1.038 -1.7229 -0.5994  0.6449
18118SOL     OW59200   7.217   2.034   0.320  0.9144  0.2164 -0.1327
18118SOL    HW159201   7.170   2.038   0.403  1.6971  0.7529  0.2831
18118SOL    HW259202   7.152   2.002   0.257  0.7922 -1.8991  1.0255
18119SOL     OW59203   7.325   1.971   9.620  0.3832  0.2260 -0.1790
18119SOL    HW159204   7.355   1.881   9.607  1.5917  0.5620  0.1527
18119SOL    HW259205   7.372   2.021   9.553  1.1384  0.8824  0.8279
18120SOL     OW59206   5.523   3.052   0.829 -0.0122 -0.1977 -0.5254
18120SOL    HW159207   5.439   3.098   0.827  0.6541  1.1497  0.9214
18120SOL    HW259208   5.528   3.014   0.917  2.2398  2.3918  0.5473
18121SOL     OW59209   6.919   3.662   1.986  0.4386 -0.1258  0.2297
18121SOL    HW159210   6.939   3.684   2.077 -0.4480 -1.3408  0.7359
18121SOL    HW259211   6.999   3.619   1.954  0.9343  0.7521  0.2744
18122SOL     OW59212   4.147   1.750   0.734 -0.3188 -0.4930 -0.3544
18122SOL    HW159213   4.066   1.736   0.783 -0.6837 -2.1890 -1.4022
18122SOL    HW259214   4.202   1.676   0.758  1.1983  1.0227  0.8814
18123SOL     OW59215   6.782   0.980   1.341 -0.5673 -0.1946  0.4480
18123SOL    HW159216   6.784   1.076   1.348  1.1836 -0.1044 -1.0984
18123SOL    HW259217   6.775   0.950   1.432  0.6599  1.3748  1.0869
18124SOL     OW59218   5.733   0.314   0.817 -0.2036 -0.0619 -0.3744
18124SOL    HW159219   5.745   0.261   0.896 -0.8865 -1.3263 -1.0974
18124SOL    HW259220   5.676   0.386   0.844  1.5224  0.8759  0.8582
18125SOL     OW59221   7.998   3.771   1.088 -0.1355 -0.2730  0.3382
18125SOL    HW159222   7.974   3.796   1.177  1.0459  3.6720 -0.3435
18125SOL    HW259223   8.089   3.745   1.094  0.7649  2.5628 -0.0560
18126SOL     OW59224   6.775   1.851   1.157 -0.2033 -0.0086 -0.5711
18126SOL    HW159225   6.773   1.822   1.248 -0.6385 -0.3471 -0.6876
18126SOL    HW259226   6.864   1.884   1.144  0.0626 -0.5804 -0.2095
18127SOL     OW59227   5.482   3.922   1.918  0.3384  0.2478 -0.8048
18127SOL    HW159228   5.493   3.864   1.993 -3.0013  0.3277 -0.1956
18127SOL    HW259229   5.487   3.864   1.842  1.1071 -0.2158 -0.4087
18128SOL     OW59230   7.923   2.121   0.663  0.3053 -0.5548  0.2067
18128SOL    HW159231   8.010   2.125   0.623  0.7089 -1.2861  1.0050
18128SOL    HW259232   7.887   2.037   0.635  0.0442 -0.4676  0.2765
18129SOL     OW59233   6.357   2.523   0.628 -0.5285  0.0859 -0.1787
18129SOL    HW159234   6.293   2.473   0.679  1.5360 -0.4602  1.9432
18129SOL    HW259235   6.419   2.458   0.596 -0.4023  0.7484 -1.3124
18130SOL     OW59236   7.339   2.721   9.464  0.0600 -0.2552  0.1599
18130SOL    HW159237   7.265   2.705   9.405  0.1781 -0.3305  0.0344
18130SOL    HW259238   7.307   2.790   9.523 -0.3839 -0.8275  0.5937
18131SOL     OW59239   7.337   3.108   1.176  0.6234  0.3445  0.4351
18131SOL    HW159240   7.282   3.100   1.253  2.5097 -0.2629  1.7497
18131SOL    HW259241   7.368   3.019   1.159  0.9363  0.6207 -0.4740
18132SOL     OW59242   4.293   1.853   1.049 -0.1010  1.0453  0.1205
18132SOL    HW159243   4.349   1.929   1.067  1.1274  0.4235 -0.9267
18132SOL    HW259244   4.347   1.797   0.992 -1.3379 -0.1621  0.1106
18133SOL     OW59245   4.803   1.713   0.092 -0.4832  0.1131 -0.0555
18133SOL    HW159246   4.727   1.688   0.143 -1.1541  1.5123 -0.3450
18133SOL    HW259247   4.864   1.750   0.156 -0.3110 -0.3979  0.0790
18134SOL     OW59248   7.386   3.368   1.896 -0.4932 -0.1353 -0.0574
18134SOL    HW159249   7.436   3.321   1.961 -0.5391 -0.4781 -0.2688
18134SOL    HW259250   7.426   3.345   1.812  0.9628  2.0326  0.0093
18135SOL     OW59251   6.991   2.737   1.784  0.0965  0.3520 -0.9521
18135SOL    HW159252   6.920   2.697   1.734 -0.7361  1.1614 -0.4345
18135SOL    HW259253   6.949   2.774   1.861  1.2045  0.1428 -0.2299
18136SOL     OW59254   5.646   2.683   0.214 -0.1320  0.2271 -0.4469
18136SOL    HW159255   5.716   2.740   0.181  0.6255 -1.4991 -1.9212
18136SOL    HW259256   5.692   2.617   0.266 -0.7453 -0.4405 -0.7419
18137SOL     OW59257   7.098   4.980   0.211 -0.0128 -0.0917  0.7631
18137SOL    HW159258   7.141   4.895   0.199  2.1545  1.2460 -1.3762
18137SOL    HW259259   7.015   4.971   0.165 -0.7584 -1.6996  2.3411
18138SOL     OW59260   5.820   2.308   0.994 -0.2524 -0.4598 -0.4110
18138SOL    HW159261   5.906   2.304   1.036  1.0392  0.0962 -2.8820
18138SOL    HW259262   5.804   2.218   0.963  0.1903 -0.2170 -1.3595
18139SOL     OW59263   4.818   0.994   0.444  0.0237  0.1631 -0.2650
18139SOL    HW159264   4.729   0.992   0.408 -0.6629  0.2389  1.3862
18139SOL    HW259265   4.871   0.946   0.380 -1.7103 -2.2859  0.0626
18140SOL     OW59266   5.972   1.809   0.651 -0.0842 -0.1193 -0.1718
18140SOL    HW159267   5.972   1.783   0.743 -0.3808  0.0954 -0.1085
18140SOL    HW259268   6.057   1.852   0.638  0.7090 -1.7600 -0.4705
18141SOL     OW59269   6.662   1.907   1.407 -0.4004 -0.3154  0.3210
18141SOL    HW159270   6.589   1.855   1.374  0.4872 -1.3279 -0.0689
18141SOL    HW259271   6.624   1.994   1.423 -1.6120 -0.7431 -0.1736
18142SOL     OW59272   6.687   3.192   0.270 -0.0981  0.2522 -0.3831
18142SOL    HW159273   6.772   3.147   0.279 -0.6722 -0.8391 -0.3493
18142SOL    HW259274   6.688   3.258   0.339  0.1490 -0.7069  0.5489
18143SOL     OW59275   6.554   2.856   8.937  0.4141  0.2476 -0.0207
18143SOL    HW159276   6.488   2.854   9.006  3.2258  0.8644  2.7965
18143SOL    HW259277   6.532   2.932   8.884  0.3395  2.0043  2.4563
18144SOL     OW59278   9.159   1.878   2.316 -0.8071  0.1844  0.2278
18144SOL    HW159279   9.162   1.964   2.274 -0.5991  0.3446  0.5743
18144SOL    HW259280   9.065   1.861   2.329 -0.8676  0.1771 -0.2085
18145SOL     OW59281   7.390   4.418   1.715 -0.0999 -0.3731 -0.3969
18145SOL    HW159282   7.452   4.474   1.761 -0.6480 -0.1416  0.0716
18145SOL    HW259283   7.304   4.452   1.741 -0.4180 -0.6458 -1.0901
18146SOL     OW59284   6.443   2.672   0.824 -0.6313  0.1105 -0.2405
18146SOL    HW159285   6.443   2.624   0.741  1.0404 -0.6209  0.1735
18146SOL    HW259286   6.463   2.607   0.890 -1.5396  0.7796  0.7117
18147SOL     OW59287   5.219   2.283   0.475  0.2637  0.1616 -0.5218
18147SOL    HW159288   5.151   2.275   0.408 -2.1525 -1.1755  2.0191
18147SOL    HW259289   5.285   2.218   0.450 -0.4620 -0.1131 -1.7507
18148SOL     OW59290   7.640   3.222   9.228  0.8355 -0.1972 -0.3334
18148SOL    HW159291   7.656   3.313   9.205  1.0396 -0.1515 -0.0112
18148SOL    HW259292   7.545   3.214   9.231  0.8126 -0.0830 -0.7110
18149SOL     OW59293   3.995   3.668   1.555  0.1046 -0.1855  0.1354
18149SOL    HW159294   4.013   3.750   1.600  0.9279  0.2829 -1.0137
18149SOL    HW259295   3.913   3.684   1.508 -0.7066 -0.6439  1.3652
18150SOL     OW59296   6.956   3.775   1.456  0.2453 -0.5383 -0.6587
18150SOL    HW159297   6.930   3.728   1.377 -1.4857  0.8172 -0.9364
18150SOL    HW259298   6.900   3.853   1.457  0.3739 -0.4340  1.7945
18151SOL     OW59299   7.505   4.980   1.311  0.0498  0.1777  0.2924
18151SOL    HW159300   7.508   4.903   1.367  0.8618  0.0389  0.0618
18151SOL    HW259301   7.593   5.017   1.316  0.6018 -0.7118 -2.0787
18152SOL     OW59302   8.197   5.229   1.480  0.3042 -0.3828  0.1320
18152SOL    HW159303   8.169   5.263   1.565 -1.1960  0.7104 -0.7761
18152SOL    HW259304   8.254   5.297   1.445 -0.3190 -0.1196 -0.3923
18153SOL     OW59305   5.995   5.314   9.508  0.6167  0.4874 -0.7529
18153SOL    HW159306   6.011   5.272   9.593  1.2705 -0.7404 -1.4699
18153SOL    HW259307   5.990   5.407   9.528 -0.5110  0.1184  0.8268
18154SOL     OW59308   5.099   4.268   1.673  0.3216 -0.0741  0.3601
18154SOL    HW159309   5.004   4.266   1.665  0.4677 -1.1939 -1.2986
18154SOL    HW259310   5.125   4.177   1.685  1.1809  0.2316  0.8938
18155SOL     OW59311   6.423   4.050   2.334  0.6238 -0.4709 -0.1810
18155SOL    HW159312   6.418   3.958   2.362 -0.1154 -0.4440 -0.2318
18155SOL    HW259313   6.382   4.099   2.405  0.9711 -0.1783 -0.1796
18156SOL     OW59314   6.587   2.920   0.232 -0.1801 -0.5416  0.5325
18156SOL    HW159315   6.617   3.002   0.273 -0.7446 -1.0739  2.0246
18156SOL    HW259316   6.598   2.935   0.138 -0.1456  1.2017  0.8014
18157SOL     OW59317   7.169   1.411   0.931  0.0495 -0.0953 -0.4409
18157SOL    HW159318   7.189   1.489   0.880 -0.3398 -0.2078 -0.7683
18157SOL    HW259319   7.249   1.358   0.927  1.2290  1.4242  1.8947
18158SOL     OW59320   5.183   3.493   0.724  0.3293 -0.0305  0.3764
18158SOL    HW159321   5.222   3.416   0.765  2.3423  0.8854  0.2125
18158SOL    HW259322   5.198   3.564   0.786 -2.6935  0.0288  1.1454
18159SOL     OW59323   5.668   1.791   1.838 -0.1078  0.0787 -0.1370
18159SOL    HW159324   5.616   1.714   1.815  1.0938 -1.3727  1.8505
18159SOL    HW259325   5.691   1.830   1.754 -0.7710 -1.7121 -1.1830
18160SOL     OW59326   4.753   2.034   0.997 -0.0486 -0.2158  0.0693
18160SOL    HW159327   4.667   2.073   0.982 -0.2765 -1.2223 -1.3027
18160SOL    HW259328   4.786   2.014   0.910  1.3682 -0.3021  0.6155
18161SOL     OW59329   6.204   4.601   0.359  0.3292  0.0383  0.5169
18161SOL    HW159330   6.202   4.686   0.314  1.0007 -0.0571  0.3056
18161SOL    HW259331   6.261   4.615   0.434 -1.0800  0.2949  1.5571
18162SOL     OW59332   7.166   3.511   0.658  0.0188  0.1562  0.2569
18162SOL    HW159333   7.243   3.552   0.618 -0.5312 -0.0264 -1.0237
18162SOL    HW259334   7.154   3.430   0.608 -2.6868  1.5434 -1.4648
18163SOL     OW59335   7.354   2.243   0.629 -0.4064 -0.0735  0.0748
18163SOL    HW159336   7.313   2.211   0.550 -0.6632  2.3417 -0.8205
18163SOL    HW259337   7.281   2.271   0.685 -0.2058 -1.2799  0.9758
18164SOL     OW59338   7.169   2.692   3.201 -0.5362  0.5537 -0.0764
18164SOL    HW159339   7.211   2.618   3.244 -0.4157  1.1984  0.9412
18164SOL    HW259340   7.171   2.762   3.266 -1.1479  1.2833 -0.8222
18165SOL     OW59341   6.121   2.211   1.832 -0.1350  0.0032 -0.4189
18165SOL    HW159342   6.194   2.156   1.861  0.3289  0.0587 -1.4591
18165SOL    HW259343   6.043   2.165   1.862  0.2184 -1.5538 -1.7932
18166SOL     OW59344   7.155   3.141   8.881 -0.0001 -0.4764 -0.2978
18166SOL    HW159345   7.187   3.139   8.971  0.8769 -0.1302 -0.6022
18166SOL    HW259346   7.077   3.197   8.884  0.2006 -0.2258  0.1821
18167SOL     OW59347   5.741   3.818   0.980 -0.1664  0.2158 -0.0983
18167SOL    HW159348   5.816   3.878   0.974  0.2440 -0.1712  1.0365
18167SOL    HW259349   5.780   3.731   0.974 -0.6634  0.0406 -0.7670
18168SOL     OW59350   7.588   2.463   1.690 -0.1363  0.3497  0.1857
18168SOL    HW159351   7.546   2.379   1.675 -0.7096  0.4309  1.3219
18168SOL    HW259352   7.534   2.506   1.756  1.5107  0.6153  1.3850
18169SOL     OW59353   7.845   2.480   1.757 -0.2227  0.1371 -1.0482
18169SOL    HW159354   7.887   2.566   1.750  0.2039  0.1091  0.9330
18169SOL    HW259355   7.759   2.492   1.717 -0.7181  1.8959  0.4630
18170SOL     OW59356   5.524   1.853   1.043  0.0203 -0.2088 -0.8915
18170SOL    HW159357   5.572   1.808   0.974  1.9315 -1.7985  1.4039
18170SOL    HW259358   5.475   1.784   1.088  0.0068  0.5801  0.3127
18171SOL     OW59359   4.755   1.763   9.592  0.5870 -0.6843 -0.0537
18171SOL    HW159360   4.744   1.723   9.678 -0.7861 -0.9883 -0.3606
18171SOL    HW259361   4.685   1.828   9.587  0.8044 -0.5101 -0.8451
18172SOL     OW59362   6.455   1.713   1.360  0.2538 -0.0204 -0.1596
18172SOL    HW159363   6.415   1.719   1.273 -1.3209 -1.5674  0.4388
18172SOL    HW259364   6.541   1.673   1.344 -0.1932 -0.6824 -0.9528
18173SOL     OW59365   5.371   2.633   0.377  0.0948 -0.4735 -0.2613
18173SOL    HW159366   5.354   2.723   0.347  0.1903 -0.5242 -0.4606
18173SOL    HW259367   5.345   2.578   0.304  0.7066 -0.5773 -0.3989
18174SOL     OW59368   6.158   2.234   1.555  0.1115 -0.1347  0.2557
18174SOL    HW159369   6.133   2.221   1.646  0.0810 -0.3835  0.2127
18174SOL    HW259370   6.138   2.326   1.537 -0.8579 -0.3567  0.1922
18175SOL     OW59371   5.723   2.308   9.461  0.3722 -0.0164 -0.8735
18175SOL    HW159372   5.713   2.231   9.405  1.0309 -1.1797  0.5946
18175SOL    HW259373   5.754   2.274   9.544  1.6035  1.9359 -0.4954
18176SOL     OW59374   6.389   1.633   0.749  0.4429  0.1645  0.8127
18176SOL    HW159375   6.300   1.664   0.766  0.8048  0.6635  1.8296
18176SOL    HW259376   6.425   1.616   0.836  0.6066 -2.1225  0.3322
18177SOL     OW59377   6.041   3.320   8.425  0.4576  0.4836  0.2459
18177SOL    HW159378   5.996   3.353   8.503 -0.3645  0.2481 -0.1180
18177SOL    HW259379   6.001   3.369   8.352  1.9282  1.4416  0.0583
18178SOL     OW59380   6.963   2.633   0.891 -0.0631 -0.1274  0.4207
18178SOL    HW159381   6.937   2.725   0.889  0.9388  0.1683  0.8130
18178SOL    HW259382   6.946   2.602   0.803 -0.3290  0.4557  0.2608
18179SOL     OW59383   8.918   1.921   1.441  0.2287 -0.3118  0.7158
18179SOL    HW159384   9.000   1.887   1.405  1.3859 -0.5512  3.4351
18179SOL    HW259385   8.896   1.860   1.511 -1.2358  0.8795  1.3104
18180SOL     OW59386   6.095   4.181   0.982  0.0594  0.4716 -0.0696
18180SOL    HW159387   6.048   4.140   1.055  0.1739  1.5748  0.6328
18180SOL    HW259388   6.153   4.112   0.949 -2.5404 -1.1709 -1.4285
18181SOL     OW59389   5.069   3.091   1.487  0.4634  0.0766  0.2972
18181SOL    HW159390   5.057   3.045   1.570 -0.6309 -3.0863 -1.5263
18181SOL    HW259391   4.981   3.119   1.462  0.7442  0.7627  0.0785
18182SOL     OW59392   6.706   1.684   0.088  0.3827  0.3020 -0.1225
18182SOL    HW159393   6.631   1.665   0.031  0.3305  2.2139 -0.7416
18182SOL    HW259394   6.771   1.724   0.029  0.2560  2.4857  1.1851
18183SOL     OW59395   5.110   3.374   1.533  0.3604 -0.4125 -0.5272
18183SOL    HW159396   5.205   3.386   1.527  0.4074 -1.5283 -2.1708
18183SOL    HW259397   5.098   3.280   1.528 -0.9938 -0.1466 -2.7650
18184SOL     OW59398   7.386   3.078   2.243 -0.2646 -0.1733 -0.4388
18184SOL    HW159399   7.370   3.050   2.334 -0.4414 -1.8767 -0.9694
18184SOL    HW259400   7.453   3.018   2.211 -2.4139 -1.6626 -2.3934
18185SOL     OW59401   6.090   3.332   9.124  1.1375 -0.0601 -0.0391
18185SOL    HW159402   6.051   3.364   9.206  0.2806 -1.8622  0.2797
18185SOL    HW259403   6.157   3.271   9.152  1.7080  0.2743 -0.6771
18186SOL     OW59404   7.507   1.731   0.664  0.1246  0.5327  0.1345
18186SOL    HW159405   7.554   1.686   0.594 -1.1031 -0.3348 -0.1361
18186SOL    HW259406   7.426   1.762   0.624  0.5036  2.1362  0.5679
18187SOL     OW59407   7.478   2.556   0.522  0.3840  0.0948 -0.3514
18187SOL    HW159408   7.423   2.611   0.577  0.1537  0.0562 -0.5441
18187SOL    HW259409   7.526   2.618   0.466 -0.1290  0.0859 -0.8067
18188SOL     OW59410   6.920   3.069   0.262 -0.5991 -0.1366  0.1885
18188SOL    HW159411   6.979   3.134   0.299 -0.5430 -0.5537  0.8403
18188SOL    HW259412   6.963   3.042   0.180  0.1958 -0.5434  0.7258
18189SOL     OW59413   7.554   3.331   9.532 -0.4920  0.2052 -0.0491
18189SOL    HW159414   7.477   3.317   9.587 -1.4015 -0.7465 -1.5278
18189SOL    HW259415   7.623   3.280   9.575 -1.0181  0.0097  0.5733
18190SOL     OW59416   7.369   1.232   0.858 -0.5918 -0.7537 -0.5745
18190SOL    HW159417   7.445   1.205   0.910  1.0242  2.8344 -0.9811
18190SOL    HW259418   7.393   1.212   0.768  0.7932  2.2802 -0.9238
18191SOL     OW59419   6.774   2.238   0.410 -0.1746  0.6315 -0.2999
18191SOL    HW159420   6.832   2.183   0.463  0.2418  0.2243 -1.1614
18191SOL    HW259421   6.686   2.205   0.428  0.0527 -0.1557 -0.6125
18192SOL     OW59422   9.507   5.189   0.658  0.1180 -0.2392 -0.3837
18192SOL    HW159423   9.497   5.285   0.658  0.9171 -0.1528  0.2630
18192SOL    HW259424   9.529   5.167   0.748 -1.0499 -1.1513 -0.3052
18193SOL     OW59425   6.950   2.613   1.220  0.4130 -0.4924 -0.0120
18193SOL    HW159426   6.978   2.670   1.149  2.3773 -0.3202  0.8548
18193SOL    HW259427   7.011   2.633   1.292 -1.0602 -1.1747  1.4688
18194SOL     OW59428   6.331   3.602   0.680 -0.0442  0.0185 -0.1493
18194SOL    HW159429   6.396   3.561   0.623  0.4121 -0.0141  0.3984
18194SOL    HW259430   6.257   3.621   0.621  0.3230 -0.2410 -0.7015
18195SOL     OW59431   7.413   2.453   1.930 -0.2149 -0.6589  0.2969
18195SOL    HW159432   7.384   2.374   1.976 -1.2204 -2.2232 -2.8721
18195SOL    HW259433   7.333   2.502   1.913  0.2792  0.5022  1.2082
18196SOL     OW59434   6.872   0.387   1.621 -0.1143 -0.5650  0.0525
18196SOL    HW159435   6.821   0.460   1.657  1.8172  0.4487  0.8435
18196SOL    HW259436   6.941   0.430   1.570 -0.3784 -1.9093 -1.4784
18197SOL     OW59437   7.509   1.775   9.771 -0.6741  0.2715 -0.7263
18197SOL    HW159438   7.506   1.771   9.867  5.1999 -2.6347 -0.4063
18197SOL    HW259439   7.460   1.698   9.742  0.2989 -0.6943  0.1378
18198SOL     OW59440   7.588   2.121   2.193  0.5402  0.1667  0.8736
18198SOL    HW159441   7.521   2.127   2.126  0.5435 -0.2294  0.8362
18198SOL    HW259442   7.671   2.136   2.147  0.6336 -1.1723  0.6078
18199SOL     OW59443   6.064   3.569   0.349 -0.2261 -0.2309 -0.0043
18199SOL    HW159444   6.142   3.525   0.382 -0.6356 -0.5469  0.5398
18199SOL    HW259445   6.087   3.595   0.260  0.3479 -0.7004  0.0080
18200SOL     OW59446   6.821   3.774   0.942 -0.2993  0.1729  0.1249
18200SOL    HW159447   6.885   3.816   0.885 -0.3495 -0.6982 -0.5716
18200SOL    HW259448   6.764   3.846   0.971  1.4473  1.0998  1.3897
18201SOL     OW59449   6.044   1.782   1.552  0.0387  0.4613  0.1904
18201SOL    HW159450   6.037   1.698   1.507 -1.5276  0.7608 -0.1499
18201SOL    HW259451   6.131   1.781   1.592 -0.0442 -1.3981  0.3456
18202SOL     OW59452   7.358   2.800   1.297  0.1452  0.3906  0.3893
18202SOL    HW159453   7.282   2.743   1.285  0.2380  0.2144  0.6344
18202SOL    HW259454   7.329   2.867   1.358  0.1367  0.4125  0.3612
18203SOL     OW59455   5.683   4.730   9.974 -0.1218 -0.5305 -0.0001
18203SOL    HW159456   5.721   4.772  10.051  0.8188 -1.9278  0.3261
18203SOL    HW259457   5.722   4.777   9.900  0.8127 -0.7099  0.3587
18204SOL     OW59458   9.149   2.305   1.308  0.4391  0.7157 -0.0946
18204SOL    HW159459   9.107   2.276   1.227  0.1742 -0.0566  0.3177
18204SOL    HW259460   9.234   2.261   1.307  0.8089  1.4326 -0.4021
18205SOL     OW59461   5.769   3.044   9.383  0.6692 -0.4634  0.1478
18205SOL    HW159462   5.675   3.048   9.398  0.4335 -0.9591 -1.1303
18205SOL    HW259463   5.778   3.031   9.289  2.0626  2.0572 -0.1309
18206SOL     OW59464   6.509   2.875   1.375 -0.0457 -0.4166  0.6179
18206SOL    HW159465   6.477   2.799   1.424  0.2311 -1.5094 -0.8719
18206SOL    HW259466   6.575   2.840   1.315  0.8022  1.1534  0.5874
18207SOL     OW59467   6.927   2.866   9.982  0.4219 -0.3376 -0.0740
18207SOL    HW159468   6.920   2.961   9.983 -3.7026 -0.5482  0.7395
18207SOL    HW259469   6.917   2.842   9.890  0.9215 -0.0434 -0.2081
18208SOL     OW59470   5.810   2.652   9.742 -0.4997  0.0519  0.5468
18208SOL    HW159471   5.780   2.739   9.717  0.1872 -0.4184 -2.1090
18208SOL    HW259472   5.905   2.659   9.745 -0.4786 -0.3909  1.2584
18209SOL     OW59473   5.274   4.687   9.708  0.5802 -0.6064 -0.2491
18209SOL    HW159474   5.317   4.714   9.789  0.1757  1.2280 -0.6327
18209SOL    HW259475   5.262   4.592   9.718 -0.5054 -0.2304  2.3236
18210SOL     OW59476   6.775   3.821   2.189  0.1513 -0.1809 -0.1312
18210SOL    HW159477   6.781   3.909   2.225  0.5112 -0.4529  0.4842
18210SOL    HW259478   6.862   3.783   2.202  0.3568 -0.2128 -1.5042
18211SOL     OW59479   8.006   2.016   2.239  0.8002 -0.1492  0.0265
18211SOL    HW159480   8.042   1.928   2.230  1.9775  0.1342  1.5779
18211SOL    HW259481   8.019   2.037   2.332  0.0976  1.4642 -0.2225
18212SOL     OW59482   6.556   2.407   2.054  0.1713 -0.0919 -0.0132
18212SOL    HW159483   6.611   2.380   1.980 -0.9943  0.3252 -1.0392
18212SOL    HW259484   6.472   2.366   2.038  0.2263 -0.8854  1.6641
18213SOL     OW59485   6.323   2.657   1.358 -0.1637  0.1884 -0.0785
18213SOL    HW159486   6.315   2.731   1.298 -1.5711 -0.0505 -0.2051
18213SOL    HW259487   6.353   2.585   1.304  0.7419  0.5374 -0.0502
18214SOL     OW59488   7.883   2.921   3.802  0.5185 -0.2247  0.1367
18214SOL    HW159489   7.968   2.965   3.803  0.5629 -0.3230  1.3412
18214SOL    HW259490   7.894   2.846   3.861  0.2493 -1.4794 -1.3806
18215SOL     OW59491   7.603   1.373   3.293  0.0361 -0.5188 -0.2971
18215SOL    HW159492   7.666   1.439   3.321 -0.8912  1.4947 -2.7254
18215SOL    HW259493   7.638   1.340   3.210  0.3946 -3.0254  0.7890
18216SOL     OW59494   4.545   4.361   2.789 -0.1328 -0.5423 -0.5598
18216SOL    HW159495   4.602   4.411   2.730  0.0676 -0.9816 -0.7491
18216SOL    HW259496   4.495   4.304   2.730 -1.2160  0.2812 -0.4418
18217SOL     OW59497   5.735   3.330   2.704 -0.1077 -0.0782 -0.5203
18217SOL    HW159498   5.711   3.414   2.741 -2.3619 -0.0287 -1.9784
18217SOL    HW259499   5.809   3.349   2.645  0.7168  0.5087  0.6950
18218SOL     OW59500   4.882   3.058   2.319  0.5051  0.3722 -0.2638
18218SOL    HW159501   4.969   3.060   2.357  0.1262 -0.2719  0.6446
18218SOL    HW259502   4.846   2.973   2.344  0.5905 -0.4821 -2.8571
18219SOL     OW59503   4.985   2.444   4.298 -0.0514  0.4851  0.7617
18219SOL    HW159504   4.997   2.350   4.284 -0.9640  0.3864  0.5477
18219SOL    HW259505   5.072   2.482   4.291  0.1615 -0.1965 -0.3813
18220SOL     OW59506   5.608   2.284   0.817 -0.2143 -0.6184  0.3383
18220SOL    HW159507   5.643   2.214   0.762 -1.6658 -1.6533  0.7101
18220SOL    HW259508   5.681   2.309   0.874  1.0780 -0.0776 -1.5016
18221SOL     OW59509   5.940   2.275   4.341  0.3457 -0.1330 -0.1786
18221SOL    HW159510   5.977   2.191   4.315 -1.7606 -0.6971 -1.4524
18221SOL    HW259511   5.910   2.261   4.431  2.2443  0.0288  0.5005
18222SOL     OW59512   6.487   3.221   2.749 -0.1615  0.0367  0.3831
18222SOL    HW159513   6.459   3.149   2.693 -0.7406  0.7976 -0.3065
18222SOL    HW259514   6.514   3.179   2.830 -0.9529 -0.9197  0.1545
18223SOL     OW59515   8.757   2.619   3.322  0.2720 -0.7182 -0.2265
18223SOL    HW159516   8.776   2.710   3.299  2.5390 -1.3219 -0.9380
18223SOL    HW259517   8.709   2.624   3.405  2.4834  1.0444  1.0103
18224SOL     OW59518   5.361   1.488   3.315 -0.0160  0.5056  0.1299
18224SOL    HW159519   5.434   1.549   3.321 -0.2811  0.7794  0.6050
18224SOL    HW259520   5.297   1.533   3.260  0.0175  0.4244  0.0237
18225SOL     OW59521   5.486   3.767   2.842 -0.5150  0.4658 -0.4627
18225SOL    HW159522   5.411   3.707   2.850  0.2571 -0.6501 -1.4315
18225SOL    HW259523   5.511   3.785   2.933 -0.9423 -0.4493 -0.1534
18226SOL     OW59524   5.529   4.732   2.499  0.4607  0.0052 -0.0243
18226SOL    HW159525   5.525   4.658   2.561  2.1477  0.0746  0.2047
18226SOL    HW259526   5.619   4.729   2.465 -0.9047 -1.0717 -3.7887
18227SOL     OW59527   5.959   3.195   0.886 -0.1314 -0.7270  0.2922
18227SOL    HW159528   5.881   3.209   0.832 -1.7034 -0.3648  2.5762
18227SOL    HW259529   6.032   3.220   0.829 -1.7834  0.4772 -1.3794
18228SOL     OW59530   6.295   1.696   1.602 -0.2499 -0.2724 -0.0285
18228SOL    HW159531   6.346   1.705   1.521  2.2515 -0.4927  1.4652
18228SOL    HW259532   6.296   1.602   1.619 -0.9052 -0.2380  0.1787
18229SOL     OW59533   8.418   1.613   1.731 -0.2651 -0.3992  0.2399
18229SOL    HW159534   8.421   1.565   1.813 -0.2768 -1.7629 -0.5371
18229SOL    HW259535   8.401   1.546   1.665  0.3798  0.5892 -0.9492
18230SOL     OW59536   7.046   1.741   4.996 -0.2533  0.0687  0.0265
18230SOL    HW159537   6.997   1.660   4.985 -0.0682 -0.0034 -0.2770
18230SOL    HW259538   7.111   1.739   4.926 -2.3971  2.0618 -2.1428
18231SOL     OW59539   6.494   0.894   3.554 -0.4610  0.4255  0.2805
18231SOL    HW159540   6.575   0.929   3.593 -1.5815  0.7973  2.3297
18231SOL    HW259541   6.519   0.808   3.521  0.4813 -0.0264  2.0989
18232SOL     OW59542   8.087   2.644   2.609  0.3204 -0.4851  0.3171
18232SOL    HW159543   8.008   2.607   2.647 -0.5033  0.1245 -0.7804
18232SOL    HW259544   8.082   2.737   2.631 -0.4232 -0.0278 -1.6881
18233SOL     OW59545   5.910   2.859   0.357 -0.1851 -0.5546  0.2071
18233SOL    HW159546   5.918   2.825   0.446 -0.0944  1.4456  1.0029
18233SOL    HW259547   5.828   2.909   0.358  1.4759  2.3319  0.2125
18234SOL     OW59548   8.063   2.916   2.942  0.2412 -0.5474  0.5913
18234SOL    HW159549   8.089   2.969   2.866  1.4923 -0.7048  0.9039
18234SOL    HW259550   8.142   2.912   2.996 -0.1385 -1.9112  1.0470
18235SOL     OW59551   8.774   2.359   2.730 -0.5192 -0.0053  0.6491
18235SOL    HW159552   8.718   2.306   2.786 -0.6626  0.0452  0.5527
18235SOL    HW259553   8.804   2.430   2.787 -2.7304  1.5212  0.0063
18236SOL     OW59554   4.735   1.969   3.322  0.3752  0.0197  0.5636
18236SOL    HW159555   4.817   1.973   3.371  0.6277 -0.2870  0.1732
18236SOL    HW259556   4.703   1.880   3.337  0.6761 -0.2170 -0.1787
18237SOL     OW59557   5.268   2.630   0.075 -0.4115  0.0109 -0.4839
18237SOL    HW159558   5.304   2.541   0.074 -0.3479  0.0153  0.5880
18237SOL    HW259559   5.334   2.683   0.032  0.2059 -0.2234  0.1647
18238SOL     OW59560   6.162   2.943   1.799  0.0498  0.1724  0.0881
18238SOL    HW159561   6.132   3.017   1.745 -0.2447 -0.4740 -0.6432
18238SOL    HW259562   6.255   2.935   1.778 -0.6774 -1.9604 -2.6191
18239SOL     OW59563   7.942   2.224   3.063  0.4112  0.3435 -0.1553
18239SOL    HW159564   7.965   2.133   3.081  0.4502  0.5017  0.5740
18239SOL    HW259565   8.018   2.275   3.091 -0.4563  0.7895  1.4221
18240SOL     OW59566   6.993   2.907   3.346 -0.0866  0.0995  0.0644
18240SOL    HW159567   7.022   2.893   3.436  0.0980  1.1922  0.1815
18240SOL    HW259568   6.919   2.847   3.335  0.3310 -0.5431  0.7126
18241SOL     OW59569   7.670   1.961   2.507 -0.2835  0.4687  0.2903
18241SOL    HW159570   7.744   1.931   2.454 -1.6639  2.0373 -2.6574
18241SOL    HW259571   7.596   1.963   2.446 -2.2984  0.8976  2.6711
18242SOL     OW59572   6.662   1.332   1.933 -0.2166  0.1678 -0.1959
18242SOL    HW159573   6.584   1.301   1.979 -0.4561 -0.6269 -1.1269
18242SOL    HW259574   6.723   1.259   1.936 -0.9349 -0.6100 -2.7504
18243SOL     OW59575   6.865   2.838   2.589 -0.0986 -0.1045  0.0073
18243SOL    HW159576   6.851   2.748   2.563 -3.9952 -0.0126  1.4362
18243SOL    HW259577   6.868   2.835   2.685  3.1328  0.8970 -0.0073
18244SOL     OW59578   8.124   1.743   2.345  0.2859  0.2951 -0.3443
18244SOL    HW159579   8.165   1.657   2.334 -1.4714 -0.5087 -0.8231
18244SOL    HW259580   8.033   1.724   2.370  0.0538  2.0235  0.2105
18245SOL     OW59581   8.472   1.992   2.938 -0.2807  0.7911  0.1402
18245SOL    HW159582   8.437   1.973   2.851 -0.4654 -1.6942  0.6943
18245SOL    HW259583   8.565   2.011   2.922  0.0252 -1.0300 -0.5147
18246SOL     OW59584   6.828   3.384   1.953  0.3996  0.0273 -0.4483
18246SOL    HW159585   6.848   3.477   1.948  2.5846 -0.2933  1.7016
18246SOL    HW259586   6.856   3.348   1.869 -0.0394  1.2021 -1.1048
18247SOL     OW59587   8.163   2.691   2.294  0.4395 -0.5689 -0.5071
18247SOL    HW159588   8.213   2.712   2.215 -1.4485 -0.4507 -1.7128
18247SOL    HW259589   8.163   2.595   2.298 -2.4304 -0.7199 -2.6794
18248SOL     OW59590   6.301   3.041   2.639  0.3990 -0.1882  0.2745
18248SOL    HW159591   6.255   3.125   2.645  1.7353  0.5209  0.8015
18248SOL    HW259592   6.240   2.977   2.674  0.3237  0.9394  2.2510
18249SOL     OW59593   6.627   1.580   2.453 -0.3665 -1.1406  0.4296
18249SOL    HW159594   6.646   1.492   2.486 -0.0148 -1.9401 -1.7827
18249SOL    HW259595   6.535   1.577   2.428 -1.5634  0.4699  4.2428
18250SOL     OW59596   7.301   1.943   3.444 -0.2363  0.5836 -0.2973
18250SOL    HW159597   7.373   1.935   3.382 -0.0541  1.1301 -0.1554
18250SOL    HW259598   7.224   1.914   3.395 -0.1269  1.2108 -0.8429
18251SOL     OW59599   6.311   2.596   1.740 -0.1622  0.4519 -0.2270
18251SOL    HW159600   6.229   2.547   1.730  0.3863 -0.6734  0.7059
18251SOL    HW259601   6.341   2.574   1.828  1.0296  1.0304 -0.4855
18252SOL     OW59602   7.723   2.385   3.386 -0.2424 -0.3841 -0.3263
18252SOL    HW159603   7.811   2.406   3.416 -0.7118  1.0631  0.0530
18252SOL    HW259604   7.732   2.369   3.292  0.0958  1.7098 -0.6588
18253SOL     OW59605   7.140   2.085   2.699  0.2020 -0.0491  0.4633
18253SOL    HW159606   7.202   2.159   2.705 -1.7543  1.5576  1.3119
18253SOL    HW259607   7.064   2.113   2.750 -1.4057 -1.8328 -0.8863
18254SOL     OW59608   5.302   5.600   1.173  0.1681 -0.7201  0.1192
18254SOL    HW159609   5.394   5.573   1.183  0.1979 -0.9410 -0.6693
18254SOL    HW259610   5.253   5.542   1.231  0.3591 -1.7290 -0.7083
18255SOL     OW59611   6.991   2.049   0.093  0.0083  0.8217  0.0877
18255SOL    HW159612   6.982   2.133   0.138 -2.1221  0.7890 -0.1896
18255SOL    HW259613   6.940   1.988   0.146 -0.2488  0.1821 -0.8843
18256SOL     OW59614   7.595   2.001   1.528 -0.1008  0.6296 -0.0174
18256SOL    HW159615   7.687   1.999   1.502  0.3831  0.4213  1.6289
18256SOL    HW259616   7.553   1.934   1.474  0.6105  1.0795 -1.1411
18257SOL     OW59617   8.630   2.826   1.964  0.3724  0.2946  0.1902
18257SOL    HW159618   8.674   2.854   1.884 -0.9196  1.1657 -0.2432
18257SOL    HW259619   8.685   2.757   1.999  2.4567  1.8318  0.0429
18258SOL     OW59620   6.993   2.266   1.226 -0.3652 -0.7450 -0.2554
18258SOL    HW159621   6.932   2.222   1.167 -0.5921 -0.6023 -0.1324
18258SOL    HW259622   7.045   2.323   1.170 -1.8218  0.7890 -0.1135
18259SOL     OW59623   5.837   4.931   1.249  0.1304  0.6238  0.2504
18259SOL    HW159624   5.894   5.006   1.263 -1.0029  1.8736 -1.6074
18259SOL    HW259625   5.776   4.959   1.181 -2.2665 -0.8977  1.6573
18260SOL     OW59626   4.742   2.652   1.817  0.1689  0.0055  0.2400
18260SOL    HW159627   4.673   2.601   1.773  0.5359 -0.1250 -0.1967
18260SOL    HW259628   4.720   2.743   1.799 -0.3237 -0.0123  0.7652
18261SOL     OW59629   7.821   2.858   3.162 -0.1115 -0.3348  0.0009
18261SOL    HW159630   7.882   2.923   3.199  0.0794 -1.2085  1.2412
18261SOL    HW259631   7.734   2.894   3.181 -0.0071  0.2307 -0.5497
18262SOL     OW59632   7.590   1.962   6.131 -0.5267 -0.3026 -0.2632
18262SOL    HW159633   7.516   2.022   6.145  0.2128  0.1705  1.7054
18262SOL    HW259634   7.612   1.974   6.039 -0.9654  1.8088 -0.1256
18263SOL     OW59635   5.976   1.425   2.377 -0.2205  0.2718 -0.4582
18263SOL    HW159636   6.021   1.355   2.330 -0.5266  0.3580 -0.8829
18263SOL    HW259637   6.030   1.503   2.361 -1.1162  0.6166 -1.9160
18264SOL     OW59638   6.273   4.249   1.824  0.1544 -0.4398 -0.2387
18264SOL    HW159639   6.214   4.323   1.829  0.3793 -0.2868  0.1337
18264SOL    HW259640   6.285   4.221   1.914  0.5183 -0.5727 -0.3266
18265SOL     OW59641   5.036   2.987   5.573 -0.0869  0.5885 -0.2982
18265SOL    HW159642   5.064   3.044   5.502 -0.1147  1.4161  0.3562
18265SOL    HW259643   4.943   3.005   5.584 -0.1797  0.1501 -0.3306
18266SOL     OW59644   7.262   3.979   2.114 -0.3158  0.2044 -0.1865
18266SOL    HW159645   7.268   4.044   2.044 -0.3085 -0.8582 -1.2118
18266SOL    HW259646   7.268   3.895   2.068  0.2364 -0.5120  1.1531
18267SOL     OW59647   5.700   1.401   2.337  0.8195  0.2480 -0.0924
18267SOL    HW159648   5.791   1.422   2.361  1.2802  0.5729 -2.0367
18267SOL    HW259649   5.707   1.322   2.283 -0.2962 -1.0659  1.6241
18268SOL     OW59650   6.666   2.439   4.058  0.1690  0.3908 -0.1816
18268SOL    HW159651   6.728   2.457   4.129  1.2300 -2.6389 -0.2302
18268SOL    HW259652   6.607   2.373   4.094 -0.2815  0.0130 -1.5761
18269SOL     OW59653   6.157   0.359   1.769 -0.3546  0.0798 -0.1502
18269SOL    HW159654   6.079   0.384   1.820 -0.5757  1.2017 -1.0154
18269SOL    HW259655   6.184   0.440   1.726 -0.6633 -1.0189 -2.4898
18270SOL     OW59656   7.488   2.193   1.698  0.0456  0.4422 -0.0411
18270SOL    HW159657   7.399   2.157   1.696  0.7732 -1.4499  0.1092
18270SOL    HW259658   7.542   2.124   1.659  1.5993  1.1230  0.8558
18271SOL     OW59659   6.600   2.985   2.113 -0.3266  0.6365 -0.3441
18271SOL    HW159660   6.681   2.974   2.164  0.2300  1.6147 -0.9922
18271SOL    HW259661   6.625   3.046   2.043 -1.2883 -0.0959 -1.3206
18272SOL     OW59662   4.689   3.307   2.924  0.1005  0.1204  0.1180
18272SOL    HW159663   4.695   3.289   3.018  0.2620 -2.2731 -0.3320
18272SOL    HW259664   4.710   3.224   2.882 -0.4901  1.0315 -2.0422
18273SOL     OW59665   7.157   1.595   2.455  0.1850 -0.0788 -0.5111
18273SOL    HW159666   7.068   1.608   2.488  1.2246 -0.2172  2.4251
18273SOL    HW259667   7.201   1.679   2.469  0.7897 -0.2909 -1.1052
18274SOL     OW59668   7.758   1.266   2.276 -0.3238 -0.5418  0.0279
18274SOL    HW159669   7.703   1.208   2.328 -0.5187  1.3033  1.9277
18274SOL    HW259670   7.846   1.254   2.312 -0.2084 -0.3397 -0.1871
18275SOL     OW59671   6.710   0.971   5.746  0.1640 -0.6967  0.3732
18275SOL    HW159672   6.727   0.890   5.698 -0.1005  1.0601 -2.8873
18275SOL    HW259673   6.630   1.006   5.707  0.8828  1.6790  0.8839
18276SOL     OW59674   6.892   2.027   1.554 -0.7613  0.0967  0.1336
18276SOL    HW159675   6.865   1.940   1.525 -0.2354 -0.3570  1.0072
18276SOL    HW259676   6.981   2.038   1.520 -1.6953  1.2496 -2.0065
18277SOL     OW59677   5.527   3.564   1.915  0.0468 -0.2389  0.2081
18277SOL    HW159678   5.508   3.596   2.003 -0.8472  3.2993 -1.1670
18277SOL    HW259679   5.460   3.498   1.898 -1.3511  0.8751  1.2828
18278SOL     OW59680   6.815   2.493   2.183  0.0955  0.3270 -0.1426
18278SOL    HW159681   6.747   2.444   2.136  1.7527  0.7272 -3.0982
18278SOL    HW259682   6.777   2.579   2.197 -0.1969  0.4173 -1.4053
18279SOL     OW59683   7.600   1.143   1.020 -0.2669 -0.1921  0.0866
18279SOL    HW159684   7.653   1.098   0.955  0.8225  1.1495  0.0195
18279SOL    HW259685   7.660   1.164   1.091 -1.2155 -0.6947  1.0530
18280SOL     OW59686   6.421   1.584   1.841 -0.4681  0.3478  0.0191
18280SOL    HW159687   6.454   1.633   1.765  0.2100  0.8680  0.6496
18280SOL    HW259688   6.366   1.647   1.888 -1.4868 -0.1910 -0.4288
18281SOL     OW59689   7.415   3.623   1.365 -0.0913 -0.0147 -0.1383
18281SOL    HW159690   7.438   3.530   1.372  1.9810  0.4855  0.1085
18281SOL    HW259691   7.321   3.626   1.384  0.0053 -1.9533  0.8101
18282SOL     OW59692   7.024   3.736   2.244  0.2298  0.3412 -0.4563
18282SOL    HW159693   7.070   3.708   2.323  0.5316 -1.5081 -1.2500
18282SOL    HW259694   7.066   3.818   2.220  0.6533  0.5242  0.8714
18283SOL     OW59695   6.896   3.087   1.308 -0.4978  0.1473  0.1098
18283SOL    HW159696   6.890   3.179   1.284 -1.6756 -0.3072 -1.4631
18283SOL    HW259697   6.812   3.067   1.350 -0.0062 -0.0598  1.0044
18284SOL     OW59698   7.148   2.253   3.238  0.0609 -0.5713 -0.1072
18284SOL    HW159699   7.204   2.240   3.162 -0.1548 -0.3593 -0.3030
18284SOL    HW259700   7.061   2.270   3.201  0.0403 -0.0486  0.1749
18285SOL     OW59701   6.666   2.882   3.047 -0.2778  0.3752  0.1589
18285SOL    HW159702   6.661   2.843   2.960 -0.8231  1.5823 -0.3641
18285SOL    HW259703   6.582   2.928   3.058 -0.5021 -0.3392  1.5936
18286SOL     OW59704   6.992   3.278   1.726 -0.6004  0.1360 -0.3341
18286SOL    HW159705   6.936   3.329   1.666 -0.9893  0.5906  0.3983
18286SOL    HW259706   7.080   3.313   1.712 -1.0460  1.8228  0.9913
18287SOL     OW59707   7.835   2.570   3.137  0.1075  0.3858 -0.3945
18287SOL    HW159708   7.780   2.492   3.138  1.1494 -0.3393  1.6634
18287SOL    HW259709   7.772   2.643   3.142 -0.7714 -0.3739 -0.1794
18288SOL     OW59710   4.452   1.942   3.160 -0.6267  0.4331 -0.4611
18288SOL    HW159711   4.362   1.956   3.130 -0.8083 -1.4457 -0.7971
18288SOL    HW259712   4.503   1.935   3.079 -0.6554 -1.5525 -0.3323
18289SOL     OW59713   7.442   1.935   2.315 -0.1226 -0.0791 -0.6097
18289SOL    HW159714   7.382   1.894   2.253  0.7106 -1.4543 -0.5190
18289SOL    HW259715   7.492   1.998   2.263 -0.9227  0.3260 -0.8910
18290SOL     OW59716   5.139   2.028   2.298  0.1045 -0.0782 -0.2860
18290SOL    HW159717   5.153   2.058   2.208 -0.7536 -2.7383 -1.3365
18290SOL    HW259718   5.182   2.095   2.352  2.8790  0.2641 -2.7579
18291SOL     OW59719   5.929   3.178   1.744 -0.0132 -0.2229 -0.3441
18291SOL    HW159720   6.019   3.154   1.720  0.0455 -1.0842  0.6775
18291SOL    HW259721   5.875   3.109   1.707 -0.1062 -0.5060  0.3103
18292SOL     OW59722   8.504   1.969   3.704 -0.1448 -0.6821  0.1146
18292SOL    HW159723   8.498   2.060   3.731  1.9650 -0.5902  0.3131
18292SOL    HW259724   8.474   1.969   3.613 -1.0512  0.0377  0.4066
18293SOL     OW59725   6.355   3.411   2.424 -0.5629  0.1767 -0.5789
18293SOL    HW159726   6.355   3.417   2.520  0.2865  0.9022 -0.6228
18293SOL    HW259727   6.305   3.331   2.406  0.9654 -1.0902  0.5479
18294SOL     OW59728   6.206   2.420   4.063 -0.1424  0.2634  0.4087
18294SOL    HW159729   6.112   2.410   4.078 -0.2944  0.8088 -0.1485
18294SOL    HW259730   6.246   2.403   4.148 -0.8671  1.6717  1.0577
18295SOL     OW59731   8.922   1.850   2.437 -0.4475  0.2162 -0.0028
18295SOL    HW159732   8.844   1.797   2.455 -0.4316  0.2527  0.1671
18295SOL    HW259733   8.888   1.934   2.408 -0.4721  0.4512  0.6978
18296SOL     OW59734   6.328   2.272   1.160  0.6374  0.3923 -0.2422
18296SOL    HW159735   6.337   2.181   1.131  0.0785 -0.1785  1.2992
18296SOL    HW259736   6.282   2.316   1.088  2.8716  0.0096 -1.9690
18297SOL     OW59737   7.490   3.032   2.544  0.1078 -0.2564 -0.0049
18297SOL    HW159738   7.556   3.076   2.599  2.0356  0.6127 -2.9079
18297SOL    HW259739   7.538   2.962   2.501 -1.8621 -2.2092  0.8885
18298SOL     OW59740   8.052   2.597   4.164 -0.9559  0.7671 -0.1291
18298SOL    HW159741   8.011   2.558   4.087  1.8831 -0.2166 -1.2103
18298SOL    HW259742   8.033   2.536   4.235 -2.2149  0.8673 -0.3583
18299SOL     OW59743   6.299   4.408   1.371 -0.4654 -0.2627  0.0225
18299SOL    HW159744   6.344   4.429   1.453 -0.4174  1.2562 -0.3899
18299SOL    HW259745   6.354   4.444   1.302  0.1055 -2.5733 -0.7864
18300SOL     OW59746   5.821   3.131   5.219 -0.0814  0.2898  0.2013
18300SOL    HW159747   5.752   3.188   5.252 -0.0369 -0.9008  2.4668
18300SOL    HW259748   5.803   3.046   5.258  1.7103 -0.4577 -0.5318
18301SOL     OW59749   5.561   1.165   3.623 -0.1822  0.6176 -0.3772
18301SOL    HW159750   5.523   1.176   3.710 -0.4725  1.0082 -0.5513
18301SOL    HW259751   5.492   1.191   3.563  0.4567  1.6729 -0.6820
18302SOL     OW59752   7.207   2.401   3.913  0.9549 -0.1904  0.1029
18302SOL    HW159753   7.249   2.470   3.862  0.7278 -0.8531 -0.9885
18302SOL    HW259754   7.118   2.433   3.929  0.2490 -1.0233 -2.0039
18303SOL     OW59755   6.525   2.254   3.016 -0.4165  0.1765 -1.0337
18303SOL    HW159756   6.556   2.345   3.023  0.6193 -0.2343 -0.1548
18303SOL    HW259757   6.458   2.257   2.948 -3.4921  2.4296  1.9496
18304SOL     OW59758   6.573   3.418   2.059  0.3102 -0.2948 -0.0921
18304SOL    HW159759   6.526   3.409   1.976  1.0819 -0.1125 -0.5540
18304SOL    HW259760   6.665   3.419   2.034  0.5158  0.5967  0.7058
18305SOL     OW59761   5.612   3.563   1.398 -0.6343  0.1641 -0.0745
18305SOL    HW159762   5.525   3.536   1.370 -0.8606  0.9167 -0.1195
18305SOL    HW259763   5.622   3.652   1.362 -1.1337  1.3548  2.6018
18306SOL     OW59764   6.602   3.666   1.297 -0.1192  0.1866  0.3448
18306SOL    HW159765   6.619   3.586   1.247  0.6153 -0.5780  1.7900
18306SOL    HW259766   6.641   3.736   1.245 -0.3015 -0.4539 -0.6723
18307SOL     OW59767   7.974   0.501   3.014 -0.8284 -0.3830  0.0520
18307SOL    HW159768   7.910   0.439   3.050  0.4621 -1.0120  1.2997
18307SOL    HW259769   8.017   0.538   3.091 -0.0939  0.4626 -0.7619
18308SOL     OW59770   5.701   2.743   2.268 -0.0398  0.0361 -0.0022
18308SOL    HW159771   5.751   2.764   2.348 -1.7359  1.5916  0.6797
18308SOL    HW259772   5.696   2.826   2.221 -2.1816 -0.0418  0.0521
18309SOL     OW59773   5.903   3.454   1.104  0.1109  0.2504 -0.3032
18309SOL    HW159774   5.844   3.378   1.099 -0.0491  0.3403  0.1549
18309SOL    HW259775   5.888   3.501   1.022  0.3058 -0.2840 -0.6496
18310SOL     OW59776   7.120   2.260   1.936  0.0316 -0.1925 -0.6272
18310SOL    HW159777   7.054   2.215   1.883 -2.2401  1.5228  0.6720
18310SOL    HW259778   7.143   2.338   1.885 -0.0631 -0.0059 -0.3860
18311SOL     OW59779   6.378   2.942   2.253  0.6932  0.8039 -0.1133
18311SOL    HW159780   6.323   2.907   2.182  0.5913 -0.9077  0.7858
18311SOL    HW259781   6.462   2.961   2.211  0.5606  0.0257 -0.7447
18312SOL     OW59782   7.297   4.255   4.519 -0.2483 -0.5665 -0.0600
18312SOL    HW159783   7.344   4.315   4.578 -0.1597  0.0161 -0.7213
18312SOL    HW259784   7.347   4.173   4.524 -0.3798 -0.5955  0.8589
18313SOL     OW59785   7.325   1.567   2.805 -0.8948 -0.3263 -0.1363
18313SOL    HW159786   7.238   1.532   2.783 -1.4913  0.6501  0.6610
18313SOL    HW259787   7.311   1.660   2.818  0.2217 -0.2249  0.3592
18314SOL     OW59788   6.305   2.643   4.236 -0.0687  0.2613 -0.3503
18314SOL    HW159789   6.303   2.565   4.292 -0.8696  1.1855  0.9081
18314SOL    HW259790   6.214   2.671   4.231  0.1842  0.9754 -1.0276
18315SOL     OW59791   5.905   0.602   3.125  0.1819 -0.3104  0.2678
18315SOL    HW159792   5.896   0.694   3.147  1.5717 -0.3808  1.2359
18315SOL    HW259793   5.883   0.596   3.032 -1.5212  0.7175  0.5971
18316SOL     OW59794   8.757   1.382   3.287 -0.1107 -0.0475  1.0525
18316SOL    HW159795   8.817   1.402   3.215 -1.3834  0.1180  0.0146
18316SOL    HW259796   8.778   1.291   3.311  1.0572  0.2578  1.2034
18317SOL     OW59797   7.976   4.038   5.038 -0.4387  0.2515  0.5613
18317SOL    HW159798   7.901   4.065   4.985 -1.0653 -2.1508  0.1605
18317SOL    HW259799   7.948   4.053   5.129 -1.0170  0.2633  0.3787
18318SOL     OW59800   8.137   2.775   3.222 -0.0924 -0.4850  0.1225
18318SOL    HW159801   8.207   2.726   3.266  0.8965  0.6607 -0.1317
18318SOL    HW259802   8.104   2.836   3.289 -0.5102 -0.6867  0.1005
18319SOL     OW59803   5.298   4.087   1.004  0.5812 -0.2375  0.1432
18319SOL    HW159804   5.350   4.083   0.923  0.3531 -1.4958  0.0513
18319SOL    HW259805   5.216   4.129   0.977  1.0866  0.7171  0.0492
18320SOL     OW59806   7.705   2.482   4.015  0.1869 -0.3005  0.5581
18320SOL    HW159807   7.781   2.492   3.958 -0.6694 -1.0761 -0.7437
18320SOL    HW259808   7.741   2.445   4.096  1.3689  0.5317  0.4217
18321SOL     OW59809   8.821   9.912   2.018  0.5316  0.3600  0.0451
18321SOL    HW159810   8.790   9.948   2.102  0.2643 -1.5006  0.7864
18321SOL    HW259811   8.880   9.979   1.983 -0.7123  1.9351  0.8702
18322SOL     OW59812   5.345   0.857   3.810 -0.3636  0.1098  0.4067
18322SOL    HW159813   5.257   0.893   3.819 -1.0282 -0.9008 -1.6931
18322SOL    HW259814   5.365   0.866   3.717  2.2317  1.3649  1.0217
18323SOL     OW59815   5.439   1.916   3.765  0.2793 -0.1804  0.1358
18323SOL    HW159816   5.534   1.917   3.775  0.3522 -0.9220 -0.4949
18323SOL    HW259817   5.416   1.824   3.769 -0.5192  0.0542  1.2310
18324SOL     OW59818   7.819   0.780   2.810 -0.4647 -0.1124 -0.1145
18324SOL    HW159819   7.765   0.715   2.854 -1.7996  1.2725  0.3004
18324SOL    HW259820   7.885   0.804   2.875 -1.3604  0.6225  0.5380
18325SOL     OW59821   6.348   2.789   5.144  0.2643 -0.1106 -0.3135
18325SOL    HW159822   6.442   2.804   5.148  0.2814  1.1582 -3.3869
18325SOL    HW259823   6.309   2.876   5.154 -0.7062 -0.8640  2.8538
18326SOL     OW59824   7.427   2.744   2.216  0.2612  0.6292  1.0777
18326SOL    HW159825   7.391   2.703   2.294  0.5248 -0.9701  0.3750
18326SOL    HW259826   7.490   2.680   2.182  1.6030  2.1370  0.6556
18327SOL     OW59827   7.801   1.718   2.413 -0.0283  0.7099 -0.4372
18327SOL    HW159828   7.818   1.667   2.334  1.0744  0.2300  0.0983
18327SOL    HW259829   7.706   1.717   2.424  0.0296 -1.9407  0.0418
18328SOL     OW59830   7.236   2.484   2.313  0.1269 -0.2986  0.4207
18328SOL    HW159831   7.273   2.407   2.270  1.6980  1.1507 -0.9082
18328SOL    HW259832   7.188   2.530   2.244  0.6869  0.8195  0.7588
18329SOL     OW59833   7.772   3.230   2.351  0.2319 -0.5238  0.2705
18329SOL    HW159834   7.862   3.252   2.376  0.0963 -0.6288  0.8634
18329SOL    HW259835   7.762   3.138   2.374 -0.3083 -0.2775  1.0386
18330SOL     OW59836   6.985   2.804   4.225  0.1916  0.0177 -0.2759
18330SOL    HW159837   6.962   2.842   4.140 -2.1871 -1.4048 -0.2984
18330SOL    HW259838   7.081   2.801   4.224  0.1811 -1.4439 -3.6152
18331SOL     OW59839   6.489   3.230   3.034  0.0174  0.3876 -0.1952
18331SOL    HW159840   6.509   3.207   3.125 -1.6275 -1.0374 -0.1626
18331SOL    HW259841   6.498   3.325   3.031  2.5015  0.2440  0.8274
18332SOL     OW59842   7.590   2.080   0.545 -0.7766  0.1482  0.2263
18332SOL    HW159843   7.565   2.058   0.455  1.8909 -0.3738 -0.4320
18332SOL    HW259844   7.666   2.025   0.562 -0.9869  0.5842  2.6614
18333SOL     OW59845   7.731   1.840   1.781 -0.1702 -0.0840 -0.6712
18333SOL    HW159846   7.696   1.757   1.812 -0.7537  0.1065 -0.8079
18333SOL    HW259847   7.777   1.876   1.857  1.6790 -1.3820 -1.1526
18334SOL     OW59848   5.747   2.867   2.535 -0.2647  0.2312  0.0126
18334SOL    HW159849   5.677   2.830   2.589 -0.8629  0.1206 -0.8314
18334SOL    HW259850   5.709   2.948   2.501  0.6215  1.0303  0.9103
18335SOL     OW59851   6.297   3.875   2.002 -0.1430  0.3413  0.5865
18335SOL    HW159852   6.290   3.901   2.094 -1.4178  1.9518  0.0398
18335SOL    HW259853   6.208   3.852   1.976  0.1363  0.3111 -0.3863
18336SOL     OW59854   5.382   3.280   9.474 -0.5591 -0.1678  0.3665
18336SOL    HW159855   5.459   3.294   9.419 -0.2854  1.0228  1.0241
18336SOL    HW259856   5.314   3.334   9.435 -1.0651 -1.2026 -0.1996
18337SOL     OW59857   8.001   0.665   3.917  0.1592 -0.4316  0.2381
18337SOL    HW159858   8.082   0.683   3.964  0.9031  1.6838 -1.7528
18337SOL    HW259859   8.027   0.610   3.843 -0.2668  0.0248 -0.2567
18338SOL     OW59860   7.609   1.952   3.346 -0.3928  0.4083 -0.5929
18338SOL    HW159861   7.628   1.961   3.439  2.9782 -1.8937 -0.9766
18338SOL    HW259862   7.693   1.928   3.306 -2.1336 -0.4269 -3.9473
18339SOL     OW59863   5.256   3.677   0.967  0.7132 -0.3176  0.0840
18339SOL    HW159864   5.205   3.742   0.919 -0.0990  0.0091  1.3532
18339SOL    HW259865   5.202   3.658   1.045  0.8629 -2.5839 -0.3314
18340SOL     OW59866   5.257   4.608   2.074  0.1652  0.2171  0.1466
18340SOL    HW159867   5.232   4.698   2.056 -0.2154  0.2116  0.6529
18340SOL    HW259868   5.350   4.604   2.051  0.2222  0.7819  0.2770
18341SOL     OW59869   6.045   2.940   2.712  0.0579  0.4337  0.2390
18341SOL    HW159870   6.053   2.932   2.807 -0.9825 -0.5988  0.2397
18341SOL    HW259871   6.001   3.024   2.699 -0.2339  0.3516  0.6847
18342SOL     OW59872   4.472   2.649   4.052  0.0911  0.7631 -0.5829
18342SOL    HW159873   4.379   2.666   4.037 -0.4372 -1.5953 -0.2524
18342SOL    HW259874   4.501   2.606   3.972  0.5750  0.3355 -0.1803
18343SOL     OW59875   4.828   2.188   1.311 -0.4496 -0.2564 -0.3942
18343SOL    HW159876   4.739   2.177   1.346 -0.3122  2.1547  0.8442
18343SOL    HW259877   4.870   2.103   1.324 -2.5167 -1.4073 -0.9050
18344SOL     OW59878   6.587   3.193   3.300  0.0304  0.3886 -0.1062
18344SOL    HW159879   6.675   3.168   3.274  0.0627  0.1428  0.2290
18344SOL    HW259880   6.558   3.121   3.357 -1.2179 -0.6377 -1.9868
18345SOL     OW59881   6.870   1.043   2.582  0.1822 -0.2723 -0.6699
18345SOL    HW159882   6.820   1.053   2.501 -1.1165 -0.2935  0.1124
18345SOL    HW259883   6.851   0.954   2.611 -0.0255  0.0221  0.0985
18346SOL     OW59884   8.826   3.221   3.311  0.5932  0.1543 -0.4290
18346SOL    HW159885   8.811   3.132   3.343  0.0481 -0.6177 -2.7611
18346SOL    HW259886   8.777   3.226   3.229  1.4839  2.2700 -0.8619
18347SOL     OW59887   5.205   2.956   1.056  0.0275 -0.7511 -0.1138
18347SOL    HW159888   5.138   2.979   0.992  0.8402 -0.0040 -0.7075
18347SOL    HW259889   5.158   2.907   1.124 -1.0020 -0.7500 -0.8176
18348SOL     OW59890   6.230   2.300   2.697 -0.3638  0.8251 -0.4226
18348SOL    HW159891   6.180   2.238   2.750  1.1583 -1.7288 -1.8684
18348SOL    HW259892   6.280   2.352   2.760 -1.5815  0.5290  0.8047
18349SOL     OW59893   7.505   3.743   4.369  0.4185  0.0118 -0.8388
18349SOL    HW159894   7.590   3.699   4.364  0.5290  0.1378 -0.0310
18349SOL    HW259895   7.482   3.742   4.462 -0.8314 -0.7125 -1.1429
18350SOL     OW59896   4.440   2.057   3.582 -0.2079  0.4865 -0.3279
18350SOL    HW159897   4.353   2.055   3.621 -0.1716  1.1063 -0.2148
18350SOL    HW259898   4.472   1.967   3.591 -1.2096  0.0286 -1.2380
18351SOL     OW59899   6.521   3.361   3.880  0.2818  0.0315  0.2227
18351SOL    HW159900   6.521   3.266   3.870  1.5866  0.2489 -2.2265
18351SOL    HW259901   6.437   3.389   3.842 -0.3969 -0.1638  1.5370
18352SOL     OW59902   7.186   2.985   1.865 -0.2088 -0.1998 -0.3957
18352SOL    HW159903   7.145   3.044   1.928 -0.6003 -1.0288  0.1370
18352SOL    HW259904   7.144   2.901   1.880  3.3157 -1.7003  1.8474
18353SOL     OW59905   6.189   3.621   4.228 -0.3526  0.2368 -0.1688
18353SOL    HW159906   6.159   3.593   4.141 -1.5637  0.8501  0.0400
18353SOL    HW259907   6.148   3.559   4.288 -1.2409  1.0855  0.1192
18354SOL     OW59908   7.590   3.058   2.973  0.3478  0.3974 -0.3790
18354SOL    HW159909   7.678   3.072   2.939  0.7719 -1.1363  0.0558
18354SOL    HW259910   7.585   2.963   2.988 -0.7092  0.7296  1.4181
18355SOL     OW59911   7.973   2.484   2.398  0.5340 -0.3871  0.0410
18355SOL    HW159912   8.001   2.558   2.453 -0.7607  0.5845 -0.5838
18355SOL    HW259913   7.881   2.471   2.422  0.4557 -1.0895 -0.6523
18356SOL     OW59914   6.509   3.233   1.255 -0.1213 -0.6499  0.3401
18356SOL    HW159915   6.589   3.221   1.203 -0.6316 -1.3315 -0.2996
18356SOL    HW259916   6.467   3.147   1.254 -0.7766 -0.3384  0.8184
18357SOL     OW59917   8.858   2.369   3.282 -0.8105 -0.2167 -0.1625
18357SOL    HW159918   8.907   2.368   3.364 -0.8512 -0.0516 -0.1364
18357SOL    HW259919   8.824   2.458   3.275 -1.8633 -0.5881  0.2583
18358SOL     OW59920   6.173   1.381   3.056 -0.0241  0.2545 -0.2249
18358SOL    HW159921   6.190   1.367   2.963 -0.9570  0.2619 -0.3988
18358SOL    HW259922   6.180   1.293   3.095  0.0988  0.2131 -0.3388
18359SOL     OW59923   7.516   1.858   3.104  0.3085 -0.1794 -0.2263
18359SOL    HW159924   7.430   1.815   3.112 -0.0564  0.1417 -2.1701
18359SOL    HW259925   7.533   1.894   3.191 -2.2694  1.1269 -0.2261
18360SOL     OW59926   6.606   2.801   2.769  0.1429  0.3209  0.0551
18360SOL    HW159927   6.522   2.757   2.756  0.1074  0.6984 -1.0330
18360SOL    HW259928   6.672   2.733   2.751  0.0751  0.0864  0.6831
18361SOL     OW59929   6.490   2.728   3.732 -0.0103  0.2733 -0.2254
18361SOL    HW159930   6.446   2.792   3.789  0.4360 -1.2381  1.8599
18361SOL    HW259931   6.577   2.765   3.718  0.5324 -0.2171  1.6515
18362SOL     OW59932   5.698   3.359   2.239 -0.0724  0.6275  0.0003
18362SOL    HW159933   5.787   3.338   2.268 -0.4244  0.7742  1.1728
18362SOL    HW259934   5.644   3.350   2.317 -1.4406 -1.5329 -1.1448
18363SOL     OW59935   7.020   1.404   1.633  0.2396 -0.9223  0.2427
18363SOL    HW159936   6.976   1.473   1.683  2.0366 -0.1035  0.7640
18363SOL    HW259937   7.022   1.329   1.692 -3.0683 -1.9707 -0.8691
18364SOL     OW59938   7.165   4.539   2.288  0.0727  0.8399  0.8548
18364SOL    HW159939   7.162   4.610   2.223 -0.1761 -0.0504 -0.1250
18364SOL    HW259940   7.174   4.460   2.235  1.6848  0.2372  1.9965
18365SOL     OW59941   7.349   2.717   2.729 -0.1683 -0.4603 -0.4911
18365SOL    HW159942   7.367   2.633   2.773 -2.7981 -1.9945 -2.1715
18365SOL    HW259943   7.354   2.696   2.636  0.6107  1.6328 -0.9320
18366SOL     OW59944   5.972   2.024   3.289  0.4260 -0.1051 -0.2420
18366SOL    HW159945   5.990   2.099   3.232 -0.2833  0.6190  0.4580
18366SOL    HW259946   6.005   2.053   3.375 -3.2173  0.9125  0.8777
18367SOL     OW59947   7.279   5.065   1.614 -0.4069  0.2012 -0.2718
18367SOL    HW159948   7.289   5.154   1.648 -0.6896 -0.0968  0.6034
18367SOL    HW259949   7.339   5.013   1.666  0.0003 -0.0601 -1.0148
18368SOL     OW59950   7.108   1.813   1.674  0.3178 -0.1706 -0.1980
18368SOL    HW159951   7.026   1.764   1.681  0.5287 -0.7654 -1.7444
18368SOL    HW259952   7.175   1.746   1.660  0.7434  0.4738 -1.3451
18369SOL     OW59953   6.658   0.575   1.739 -0.2410 -0.6120 -0.3909
18369SOL    HW159954   6.563   0.585   1.750 -0.1149  1.1836 -0.7440
18369SOL    HW259955   6.683   0.650   1.685  1.8126  0.5218  2.0779
18370SOL     OW59956   6.879   3.477   1.591  0.4485 -0.1457 -0.5480
18370SOL    HW159957   6.946   3.546   1.602  0.0438 -0.2263  3.3532
18370SOL    HW259958   6.797   3.525   1.580  0.2304  0.0754  1.7272
18371SOL     OW59959   6.992   3.094   2.509 -0.0665  0.3454  0.3063
18371SOL    HW159960   6.942   3.014   2.529  0.5325  0.3924  2.1028
18371SOL    HW259961   7.061   3.064   2.449 -1.0333 -0.0996 -0.5974
18372SOL     OW59962   8.492   3.456   3.563  0.0047 -0.2821  0.3358
18372SOL    HW159963   8.565   3.511   3.534 -0.5912  1.1473  1.4574
18372SOL    HW259964   8.429   3.461   3.491  0.2947 -0.1320  0.0917
18373SOL     OW59965   6.875   3.146   3.282 -0.4104  0.3047 -0.0029
18373SOL    HW159966   6.937   3.170   3.213 -0.5432  1.1153  0.1517
18373SOL    HW259967   6.909   3.064   3.317  0.8830  1.0138  0.4450
18374SOL     OW59968   7.038   1.649   2.062  0.4541  0.2900 -0.2805
18374SOL    HW159969   7.006   1.562   2.037 -1.1787  0.5390  0.9467
18374SOL    HW259970   6.964   1.691   2.104  1.4449  2.0518 -0.2754
18375SOL     OW59971   7.558   2.382   1.100  0.8451 -0.4451 -0.9457
18375SOL    HW159972   7.473   2.340   1.114  0.2353  0.2351 -2.5066
18375SOL    HW259973   7.604   2.322   1.041  1.8692 -1.3248  0.7033
18376SOL     OW59974   7.504   2.513   2.893  0.0777 -0.4448 -0.3196
18376SOL    HW159975   7.437   2.449   2.866  1.5495 -2.4760  0.7085
18376SOL    HW259976   7.568   2.461   2.942  2.1149  1.5687 -0.7835
18377SOL     OW59977   4.884   1.479   1.518  0.0342 -0.2290 -0.2785
18377SOL    HW159978   4.933   1.399   1.497  1.0006 -0.1569  1.6739
18377SOL    HW259979   4.866   1.472   1.612 -1.5352  0.9481 -0.4736
18378SOL     OW59980   5.823   2.136   1.459 -0.3145 -0.4222 -0.0680
18378SOL    HW159981   5.912   2.128   1.424 -0.2047  0.6838 -0.0352
18378SOL    HW259982   5.773   2.178   1.389 -0.9049 -1.3768 -0.2302
18379SOL     OW59983   6.502   2.590   3.079  0.0493 -0.0928  0.1865
18379SOL    HW159984   6.596   2.608   3.082  0.1599 -0.6261  0.0177
18379SOL    HW259985   6.463   2.658   3.133  0.6324 -0.5204  1.1607
18380SOL     OW59986   4.284   2.749   2.157 -0.2618  0.9956  0.1037
18380SOL    HW159987   4.241   2.671   2.192 -2.5781  2.3561  0.3710
18380SOL    HW259988   4.328   2.789   2.232 -0.5020  0.8652  0.3138
18381SOL     OW59989   8.613   1.002   2.342  0.2649 -0.0803  0.1991
18381SOL    HW159990   8.613   0.987   2.247 -0.1053  0.5181  0.0987
18381SOL    HW259991   8.521   1.008   2.365  0.3462 -0.5580  0.6576
18382SOL     OW59992   5.505   9.739   3.136  0.1345  0.2997 -0.0346
18382SOL    HW159993   5.561   9.817   3.132  1.0205 -0.3436 -0.0925
18382SOL    HW259994   5.534   9.684   3.064  1.2097 -1.2150  1.5202
18383SOL     OW59995   6.477   1.146   1.649  0.0015 -0.1104 -0.3895
18383SOL    HW159996   6.512   1.059   1.671 -1.6871 -1.1353 -1.6371
18383SOL    HW259997   6.400   1.128   1.596 -0.6873  2.1699 -0.2099
18384SOL     OW59998   5.844   2.662   1.789  0.5351 -0.0819 -0.2785
18384SOL    HW159999   5.857   2.590   1.852 -1.6615 -2.0852 -2.0352
18384SOL    HW260000   5.923   2.660   1.735  0.7444 -0.8236  0.0411
18385SOL     OW60001   7.718   3.537   1.940 -0.0116 -0.0249 -0.0690
18385SOL    HW160002   7.763   3.453   1.948 -1.0729 -0.5128  1.0940
18385SOL    HW260003   7.763   3.582   1.869  0.4522 -1.6624 -0.8497
18386SOL     OW60004   8.978   2.804   3.211 -0.0303  0.2008  0.1588
18386SOL    HW160005   8.922   2.854   3.270 -2.1424 -1.8179 -0.0709
18386SOL    HW260006   8.982   2.857   3.131 -0.1244  1.2051  0.8101
18387SOL     OW60007   8.586   2.638   3.066 -0.8065 -0.7781 -0.9339
18387SOL    HW160008   8.604   2.636   3.160 -2.1258  0.4925 -0.6266
18387SOL    HW260009   8.497   2.674   3.060 -0.1162  0.6837 -2.7366
18388SOL     OW60010   7.850   4.100   2.536 -0.2063 -0.0674  0.3141
18388SOL    HW160011   7.794   4.177   2.543 -1.0260 -0.8449  3.0348
18388SOL    HW260012   7.939   4.134   2.550 -0.6329  0.3164  2.2896
18389SOL     OW60013   6.435   0.915   3.891 -0.5651 -0.3173 -0.0644
18389SOL    HW160014   6.419   1.005   3.862  1.9436 -0.2144 -1.2910
18389SOL    HW260015   6.493   0.925   3.967 -0.6857 -0.8747  0.0981
18390SOL     OW60016   8.573   2.308   2.925  0.3273 -0.2770  0.4066
18390SOL    HW160017   8.616   2.370   2.985  1.0902 -0.5728  0.1742
18390SOL    HW260018   8.604   2.222   2.954 -1.2993 -0.6107  1.1835
18391SOL     OW60019   8.112   2.325   1.753  0.3132 -0.9223  0.2601
18391SOL    HW160020   8.081   2.369   1.673  0.7027  0.0050  0.6182
18391SOL    HW260021   8.207   2.318   1.741  0.6824  1.2877  1.6490
18392SOL     OW60022   7.016   2.436   1.484 -0.0503 -0.1057 -0.3204
18392SOL    HW160023   6.939   2.440   1.540  0.5245 -2.5973  0.7221
18392SOL    HW260024   6.987   2.388   1.406  0.5050 -1.3270  0.2122
18393SOL     OW60025   5.906   3.536   2.437  0.4907  0.0214 -0.0365
18393SOL    HW160026   5.959   3.464   2.403  0.7320  0.5307 -0.7396
18393SOL    HW260027   5.816   3.502   2.435  0.4994  0.0747 -1.2448
18394SOL     OW60028   8.047   0.938   0.998  0.0641 -0.4571 -0.1655
18394SOL    HW160029   8.009   0.967   1.081 -2.1698 -0.1639 -1.2337
18394SOL    HW260030   8.127   0.891   1.022  0.7372  1.7287  1.9681
18395SOL     OW60031   8.560   1.435   1.141 -0.0331 -0.6145  0.0247
18395SOL    HW160032   8.609   1.373   1.195 -1.6769 -2.0110 -0.0273
18395SOL    HW260033   8.472   1.436   1.180 -0.3561  0.7822 -0.7029
18396SOL     OW60034   7.603   2.925   2.130  0.1571 -0.2904  0.2346
18396SOL    HW160035   7.545   2.848   2.122 -0.7671  0.4891 -0.6498
18396SOL    HW260036   7.688   2.888   2.155 -0.2325 -1.6254 -0.3554
18397SOL     OW60037   7.369   4.905   1.073 -0.2015  0.0826 -0.0740
18397SOL    HW160038   7.410   4.945   1.149 -0.8191  1.1419 -0.2903
18397SOL    HW260039   7.398   4.813   1.075  1.5273  0.6208  0.2015
18398SOL     OW60040   8.315   3.010   3.938  0.0381  0.0506 -0.3780
18398SOL    HW160041   8.350   3.060   4.011 -1.1582 -1.1429  1.0445
18398SOL    HW260042   8.376   2.936   3.928 -0.0116  0.0057 -0.3445
18399SOL     OW60043   5.752   3.365   3.891 -0.2407  0.6301  0.4186
18399SOL    HW160044   5.770   3.280   3.851  0.0484  0.6369  0.5380
18399SOL    HW260045   5.690   3.345   3.962 -2.9977  0.9661 -1.7839
18400SOL     OW60046   7.094   1.485   3.205  0.8646  0.2069 -0.0403
18400SOL    HW160047   7.016   1.540   3.206  1.4634  1.1727 -2.8800
18400SOL    HW260048   7.065   1.401   3.241 -1.8340  0.0947 -2.3718
18401SOL     OW60049   5.909   2.544   2.029  0.3676 -0.5686 -0.2538
18401SOL    HW160050   5.962   2.534   2.108  0.6645  0.2519 -0.3374
18401SOL    HW260051   5.827   2.582   2.059  0.8827  0.7564 -0.4488
18402SOL     OW60052   7.479   3.056   1.888  0.5636 -0.2859 -0.3555
18402SOL    HW160053   7.516   3.015   1.966  0.2534 -0.2952 -0.2148
18402SOL    HW260054   7.385   3.038   1.893  0.1138  2.2054  0.7700
18403SOL     OW60055   5.220   0.802   2.167 -0.0898 -0.3208  0.3140
18403SOL    HW160056   5.151   0.747   2.202 -0.2188 -0.2370  0.1917
18403SOL    HW260057   5.300   0.751   2.180  0.0820  0.3713  2.2015
18404SOL     OW60058   6.693   3.087   4.647  0.1046 -0.7053 -0.3632
18404SOL    HW160059   6.781   3.096   4.611  0.2746 -2.7525 -0.5364
18404SOL    HW260060   6.641   3.050   4.575  0.0086 -3.0632  0.8700
18405SOL     OW60061   6.706   2.309   1.838 -0.5226 -0.3357  1.0787
18405SOL    HW160062   6.774   2.252   1.873 -0.1413 -1.0425 -0.7597
18405SOL    HW260063   6.695   2.281   1.747 -0.7779  2.0877  0.3223
18406SOL     OW60064   6.935   3.348   2.428  0.0417 -0.1313  0.2512
18406SOL    HW160065   6.842   3.342   2.405 -0.2684 -1.6580  1.7475
18406SOL    HW260066   6.952   3.268   2.479  1.7394  0.9765  1.5023
18407SOL     OW60067   7.023   0.124   2.202 -0.1590 -0.0804 -0.6931
18407SOL    HW160068   7.102   0.176   2.182  0.2642 -1.0847 -1.6535
18407SOL    HW260069   7.000   0.150   2.291  0.3941  1.3228 -0.9382
18408SOL     OW60070   7.041   2.299   3.634 -0.0725  0.2807 -0.0114
18408SOL    HW160071   7.125   2.253   3.634 -0.3012 -0.1876  1.8874
18408SOL    HW260072   7.051   2.367   3.700 -0.6715  1.2200 -0.8739
18409SOL     OW60073   6.506   3.771   2.339 -0.4298  0.2147 -0.3765
18409SOL    HW160074   6.445   3.712   2.294 -0.6804 -1.0732  1.6121
18409SOL    HW260075   6.593   3.743   2.309 -0.6212 -0.2405 -0.5083
18410SOL     OW60076   8.000   2.998   2.294  0.5560  0.4414 -0.5970
18410SOL    HW160077   8.038   3.061   2.232  0.9042  1.0785  0.2640
18410SOL    HW260078   8.055   3.004   2.371  1.5594 -2.0877 -1.0873
18411SOL     OW60079   6.353   0.654   3.321 -0.7651 -0.0939 -0.1431
18411SOL    HW160080   6.396   0.593   3.381  1.0515  0.7202 -0.5800
18411SOL    HW260081   6.351   0.607   3.237 -1.4998 -0.4501  0.0654
18412SOL     OW60082   7.918   1.816   3.803 -0.0198  0.1802  0.3611
18412SOL    HW160083   8.010   1.832   3.782 -0.4794 -0.6247 -2.5294
18412SOL    HW260084   7.885   1.766   3.728 -1.6455 -3.7426  3.4980
18413SOL     OW60085   7.534   3.829   3.758  0.2557 -0.5110  0.9556
18413SOL    HW160086   7.568   3.854   3.672  2.4251  1.6281  2.3749
18413SOL    HW260087   7.540   3.734   3.760 -0.0490 -0.5998 -1.3278
18414SOL     OW60088   5.303   2.115   1.376 -0.0704 -0.0879  0.4003
18414SOL    HW160089   5.235   2.181   1.368 -0.0589 -0.1247 -0.0506
18414SOL    HW260090   5.273   2.043   1.319  0.1805 -0.2428  0.4615
18415SOL     OW60091   9.021   2.722   2.778  0.2968 -0.2510 -0.3815
18415SOL    HW160092   8.944   2.749   2.728  0.6482  0.6327 -0.4510
18415SOL    HW260093   9.047   2.800   2.826  1.2583 -0.4894 -0.5023
18416SOL     OW60094   7.273   1.669   5.520 -0.2491  1.0109  0.3578
18416SOL    HW160095   7.219   1.599   5.558  0.7445  1.0024  1.8069
18416SOL    HW260096   7.324   1.702   5.593 -1.8418  4.3832  0.0374
18417SOL     OW60097   5.718   2.311   2.161 -0.1002  0.6130  0.0585
18417SOL    HW160098   5.727   2.305   2.066  2.0616  1.3144  0.1952
18417SOL    HW260099   5.666   2.234   2.185  0.0298 -0.0148 -1.6004
18418SOL     OW60100   5.103   3.111   4.734  0.2747  0.2504 -0.3867
18418SOL    HW160101   5.174   3.088   4.795  0.7099  1.2338 -0.5238
18418SOL    HW260102   5.026   3.120   4.790  0.5495  0.5678 -0.0570
18419SOL     OW60103   6.003   2.435   6.276  0.2746 -0.1646 -0.3988
18419SOL    HW160104   6.099   2.429   6.270  0.1703 -2.3011 -0.4212
18419SOL    HW260105   5.986   2.471   6.363  1.0921 -0.3945 -0.1366
18420SOL     OW60106   6.470   2.329   6.581  0.2226  0.2591  0.6131
18420SOL    HW160107   6.393   2.276   6.599 -0.3675  1.6423  2.3318
18420SOL    HW260108   6.537   2.266   6.553 -1.0270 -1.1313  0.7103
18421SOL     OW60109   7.230   2.517   5.284 -0.3330  0.6934  0.5475
18421SOL    HW160110   7.272   2.468   5.355  1.8170  1.9734  0.1971
18421SOL    HW260111   7.269   2.482   5.204  1.7928  3.3881  0.3244
18422SOL     OW60112   8.244   2.740   4.000 -0.4003 -0.4483 -0.2318
18422SOL    HW160113   8.201   2.724   3.916  0.7267 -0.3727 -0.8415
18422SOL    HW260114   8.228   2.660   4.051  0.0591 -1.0457 -1.0228
18423SOL     OW60115   6.633   1.873   6.131  0.2846  0.4390 -0.2698
18423SOL    HW160116   6.580   1.794   6.146 -1.6632  1.7968  0.1084
18423SOL    HW260117   6.673   1.892   6.215  1.9086 -0.9384 -0.7002
18424SOL     OW60118   8.363   1.660   5.092 -0.4428 -0.3868  0.1881
18424SOL    HW160119   8.398   1.692   5.009  0.8288 -1.0937  0.4353
18424SOL    HW260120   8.415   1.582   5.112 -2.3832 -1.6329  0.4333
18425SOL     OW60121   6.645   1.776   2.789  0.6666  0.3655  0.4982
18425SOL    HW160122   6.719   1.715   2.788  1.9399  1.8451 -1.9934
18425SOL    HW260123   6.607   1.766   2.876  2.9482 -1.4656  1.3488
18426SOL     OW60124   8.359   2.451   4.917 -0.5188  0.0206 -0.4572
18426SOL    HW160125   8.274   2.491   4.901 -0.7321 -0.9380 -1.7870
18426SOL    HW260126   8.353   2.364   4.876  0.9194 -0.2523 -0.1260
18427SOL     OW60127   5.933   3.144   3.950  0.8563 -0.3774  0.0296
18427SOL    HW160128   5.891   3.079   3.894 -0.9813 -1.4812  2.5694
18427SOL    HW260129   5.993   3.093   4.005 -0.5853 -0.0089  2.0281
18428SOL     OW60130   6.816   2.753   3.859 -0.0820 -0.4016  0.5883
18428SOL    HW160131   6.752   2.818   3.830  1.5225  0.2334 -1.6043
18428SOL    HW260132   6.796   2.675   3.808  0.0254 -0.6494  0.9231
18429SOL     OW60133   7.476   2.802   5.936  0.2605 -0.1803  0.2959
18429SOL    HW160134   7.553   2.746   5.924  0.1735 -0.5400  1.3733
18429SOL    HW260135   7.510   2.891   5.934  0.5182 -0.2930 -0.5730
18430SOL     OW60136   7.703   3.102   3.699  0.0576 -0.1686 -0.5275
18430SOL    HW160137   7.745   3.029   3.745 -0.3213 -1.4047 -2.0779
18430SOL    HW260138   7.769   3.129   3.635  0.4389  1.2903  0.4669
18431SOL     OW60139   5.971   3.054   2.961  0.0919 -0.5882  0.5043
18431SOL    HW160140   5.955   3.046   3.055  1.5078 -0.2729  0.7808
18431SOL    HW260141   6.044   3.115   2.954 -0.7167  0.2530 -0.8594
18432SOL     OW60142   4.996   3.801   3.586  0.3104 -0.3119 -0.2327
18432SOL    HW160143   4.933   3.734   3.560 -0.5156  0.5961 -0.6008
18432SOL    HW260144   4.952   3.884   3.567  1.6122  0.3314 -0.4779
18433SOL     OW60145   4.367   3.275   3.372 -0.1326 -0.2027  0.3656
18433SOL    HW160146   4.385   3.182   3.357  0.8360  0.0333  0.0085
18433SOL    HW260147   4.367   3.314   3.285 -1.7525 -0.0654  0.4131
18434SOL     OW60148   4.299   2.904   5.774 -0.5654  0.0434 -0.1413
18434SOL    HW160149   4.329   2.818   5.744  0.9187  0.0865  1.1278
18434SOL    HW260150   4.349   2.920   5.854 -1.4645  1.7087  0.1128
18435SOL     OW60151   6.848   6.147   4.014 -0.4771  0.7357 -0.1968
18435SOL    HW160152   6.840   6.052   4.018 -0.4699  0.7896  1.4165
18435SOL    HW260153   6.762   6.177   3.986 -1.3981  0.4174  2.2331
18436SOL     OW60154   6.308   4.528   2.881  0.6067 -0.5112  0.7898
18436SOL    HW160155   6.351   4.595   2.933  0.9919 -0.6819  0.6910
18436SOL    HW260156   6.363   4.519   2.803 -1.4865  1.7994 -1.0286
18437SOL     OW60157   7.925   0.346   5.357  0.0193 -0.1336  0.5242
18437SOL    HW160158   8.018   0.337   5.378 -0.0240 -0.5563  0.5357
18437SOL    HW260159   7.909   0.281   5.289 -0.1826  0.2009  0.2513
18438SOL     OW60160   4.327   4.997   2.183  0.3831  0.1265  0.3869
18438SOL    HW160161   4.288   4.954   2.259  1.9424 -2.7845 -0.3806
18438SOL    HW260162   4.253   5.023   2.128 -0.6184 -1.8039  0.8011
18439SOL     OW60163   7.799   3.387   3.675 -0.0410  0.4772 -0.3851
18439SOL    HW160164   7.861   3.364   3.607 -1.4293 -0.4417 -1.3551
18439SOL    HW260165   7.842   3.362   3.757  0.6648 -0.5840 -1.0822
18440SOL     OW60166   6.396   3.754   1.605  0.1165 -0.1154  0.1648
18440SOL    HW160167   6.319   3.720   1.560 -0.1010 -0.4948  0.8126
18440SOL    HW260168   6.364   3.832   1.651  0.5375  0.7947 -1.0419
18441SOL     OW60169   6.254   2.783   3.360 -0.5647  0.4721  0.2750
18441SOL    HW160170   6.309   2.729   3.416 -0.8652 -0.3114 -0.1754
18441SOL    HW260171   6.165   2.751   3.375 -0.4094 -1.5132 -2.5476
18442SOL     OW60172   7.208   2.666   5.840 -0.0520 -0.2271 -0.4385
18442SOL    HW160173   7.303   2.673   5.850 -0.0756 -0.2772 -0.1915
18442SOL    HW260174   7.196   2.606   5.767  0.1269  0.8020 -1.3370
18443SOL     OW60175   7.036   3.206   5.426 -0.3379  0.6520 -0.5760
18443SOL    HW160176   7.069   3.147   5.359 -0.7388 -0.7774  0.4661
18443SOL    HW260177   6.941   3.205   5.415 -0.3546  0.9941 -0.4665
18444SOL     OW60178   6.725   3.542   5.791  0.7562  0.2181 -0.2330
18444SOL    HW160179   6.661   3.584   5.734  2.1988  0.4819 -1.6932
18444SOL    HW260180   6.774   3.615   5.831  0.6106  0.0067  0.3364
18445SOL     OW60181   5.381   3.254   3.806  0.0075 -0.0833 -0.0146
18445SOL    HW160182   5.387   3.263   3.901  1.5648  1.2527 -0.2124
18445SOL    HW260183   5.305   3.308   3.782  0.6502  0.9711  0.3003
18446SOL     OW60184   5.969   0.494   4.567  0.3750 -0.7644 -0.0357
18446SOL    HW160185   6.044   0.439   4.546 -0.2534 -1.8901  0.6191
18446SOL    HW260186   5.903   0.433   4.602 -0.0001  0.5192  1.5680
18447SOL     OW60187   3.478   1.242   4.032  0.2803  0.4888 -0.5116
18447SOL    HW160188   3.545   1.199   4.084  0.2558  1.7470  0.5935
18447SOL    HW260189   3.456   1.321   4.081 -1.9324  0.1611 -0.9101
18448SOL     OW60190   6.980   3.346   1.375 -0.7389 -0.3019 -0.2604
18448SOL    HW160191   6.921   3.372   1.446 -1.3613 -1.6362 -0.2670
18448SOL    HW260192   7.036   3.279   1.414 -0.0819  0.0244 -0.6270
18449SOL     OW60193   6.895   3.327   4.135  0.2180  0.2954  0.0905
18449SOL    HW160194   6.946   3.369   4.205 -0.6702  0.2117  0.8042
18449SOL    HW260195   6.822   3.286   4.181 -1.0539  1.2762 -1.0272
18450SOL     OW60196   6.890   1.041   4.536  0.5977 -0.0082 -0.0081
18450SOL    HW160197   6.802   1.005   4.537 -0.1648  1.7882  0.7940
18450SOL    HW260198   6.896   1.086   4.451  0.3889  0.6674  0.3301
18451SOL     OW60199   7.935   4.619   4.758 -0.4954  0.0146 -0.0120
18451SOL    HW160200   7.873   4.547   4.743 -0.4483 -0.5633  2.4773
18451SOL    HW260201   7.883   4.687   4.801  0.1175  0.3634  0.1792
18452SOL     OW60202   7.553   4.762   2.919 -0.5679  0.4062 -0.3843
18452SOL    HW160203   7.554   4.834   2.982  0.2609  0.5934 -0.6154
18452SOL    HW260204   7.461   4.755   2.892 -0.8471  0.6334  0.4894
18453SOL     OW60205   7.017   4.174   1.354  0.2465 -0.8508 -0.1669
18453SOL    HW160206   7.034   4.231   1.280  0.4808 -1.8922 -0.9230
18453SOL    HW260207   7.032   4.229   1.431  2.2859 -0.4071 -0.8642
18454SOL     OW60208   6.283   2.386   4.412 -0.3638  0.1155 -0.1970
18454SOL    HW160209   6.355   2.326   4.431 -0.0346  0.5047 -0.1925
18454SOL    HW260210   6.247   2.408   4.498  1.6403  2.5084  0.0896
18455SOL     OW60211   6.346   3.464   2.737 -0.4153  0.3084 -0.2650
18455SOL    HW160212   6.302   3.463   2.822  0.7300  0.3311  0.3342
18455SOL    HW260213   6.375   3.374   2.725  1.6322  0.8212  0.5496
18456SOL     OW60214   5.713   1.952   4.379  0.4892  0.0944 -0.2402
18456SOL    HW160215   5.705   1.882   4.314  0.1927 -0.4903  0.4164
18456SOL    HW260216   5.720   1.906   4.463  1.3132  0.8268  0.1045
18457SOL     OW60217   8.128   2.244   5.029  0.3460  0.0160  0.3855
18457SOL    HW160218   8.073   2.321   5.013  0.1690  0.0068  0.9533
18457SOL    HW260219   8.176   2.231   4.947  0.1245  0.5282  0.1767
18458SOL     OW60220   6.094   1.120   2.855 -0.3340  0.4032 -0.1500
18458SOL    HW160221   6.172   1.168   2.828 -0.5514 -0.0210 -1.5270
18458SOL    HW260222   6.119   1.028   2.848 -1.2188  0.2492 -1.3961
18459SOL     OW60223   6.019   1.886   3.804  0.2701 -0.1452 -0.0421
18459SOL    HW160224   5.989   1.832   3.731 -1.6419  2.4644 -1.2918
18459SOL    HW260225   6.091   1.938   3.768 -0.6931  1.1639 -0.1305
18460SOL     OW60226   7.166   1.764   3.637  0.4961  0.0269 -0.3035
18460SOL    HW160227   7.211   1.724   3.712  1.3672  1.7939  0.1307
18460SOL    HW260228   7.235   1.779   3.573 -0.1389 -0.8592 -1.2135
18461SOL     OW60229   6.128   2.501   1.513 -0.1440 -0.0513 -0.6169
18461SOL    HW160230   6.196   2.547   1.464  1.4006 -0.9703  0.5945
18461SOL    HW260231   6.086   2.570   1.565  1.8294  0.1076  0.8246
18462SOL     OW60232   7.274   4.944   3.446  0.1280  0.1885 -0.2906
18462SOL    HW160233   7.227   5.021   3.477  2.0406  1.7135 -1.0311
18462SOL    HW260234   7.366   4.963   3.466  0.5607 -2.1468 -0.0001
18463SOL     OW60235   7.581   1.919   3.635 -0.0904 -0.3764 -0.0024
18463SOL    HW160236   7.641   1.993   3.625  0.6292 -0.6398  2.1138
18463SOL    HW260237   7.602   1.882   3.721 -0.2112 -3.2646 -1.1576
18464SOL     OW60238   7.238   2.790   5.272 -0.1788  0.1258 -0.3157
18464SOL    HW160239   7.322   2.800   5.228 -0.5104  1.0121 -0.7636
18464SOL    HW260240   7.216   2.697   5.262  2.4133 -0.9352  2.8730
18465SOL     OW60241   7.941   1.636   4.687  0.1635 -0.5361  0.3405
18465SOL    HW160242   7.962   1.594   4.770 -0.0386  0.3675  0.8609
18465SOL    HW260243   8.011   1.608   4.628 -0.5526 -2.4378  0.3685
18466SOL     OW60244   6.377   3.415   5.549 -0.4095  0.0278 -0.2056
18466SOL    HW160245   6.441   3.485   5.538  0.6083 -0.9096 -0.2977
18466SOL    HW260246   6.321   3.422   5.471 -0.4807  0.8989 -0.0857
18467SOL     OW60247   5.990   2.986   2.400  0.0041 -0.2341  0.3780
18467SOL    HW160248   5.898   2.962   2.413 -0.0965 -0.7177 -1.1288
18467SOL    HW260249   6.035   2.947   2.475 -0.7641 -1.5632  0.1704
18468SOL     OW60250   6.295   3.103   5.104  0.8598  0.3759  0.0570
18468SOL    HW160251   6.224   3.167   5.107  1.1285  0.6440  0.8975
18468SOL    HW260252   6.311   3.089   5.011  2.3389  3.2664 -0.1552
18469SOL     OW60253   6.704   3.082   4.907  0.1969  0.6575  0.1551
18469SOL    HW160254   6.728   3.097   4.816  0.0318 -2.1827 -0.4193
18469SOL    HW260255   6.614   3.048   4.902  0.4418 -0.1809  1.2916
18470SOL     OW60256   4.578   3.957   3.152 -0.5096  0.1775 -0.3716
18470SOL    HW160257   4.664   3.970   3.193 -0.2380  1.3824 -1.3006
18470SOL    HW260258   4.597   3.927   3.064 -1.0433  0.6917 -0.6636
18471SOL     OW60259   5.584   1.461   4.297  0.1468 -0.0593 -0.1405
18471SOL    HW160260   5.541   1.376   4.305  0.6892 -0.1975  1.5311
18471SOL    HW260261   5.678   1.441   4.303  0.2484  0.7352  1.2176
18472SOL     OW60262   5.673   2.296   5.295  0.2283 -0.1801 -0.4719
18472SOL    HW160263   5.703   2.385   5.308 -0.3502  0.2375 -1.8825
18472SOL    HW260264   5.653   2.291   5.201 -0.8373 -1.4471 -0.1914
18473SOL     OW60265   7.791   3.269   1.970  0.6188  0.5016  0.1609
18473SOL    HW160266   7.709   3.257   2.018  0.5868  0.4774  0.0992
18473SOL    HW260267   7.841   3.189   1.989  0.6852  0.5777  0.3107
18474SOL     OW60268   7.371   1.709   4.109  0.1147 -0.7596  0.1153
18474SOL    HW160269   7.464   1.701   4.130 -0.0321 -1.7617  0.4422
18474SOL    HW260270   7.334   1.623   4.130 -0.7796 -0.5558 -0.5424
18475SOL     OW60271   6.390   2.461   2.861 -0.0552 -0.0743  0.1036
18475SOL    HW160272   6.444   2.505   2.927 -1.0699  0.6689  0.4567
18475SOL    HW260273   6.393   2.519   2.785 -0.3553 -0.0115  0.1349
18476SOL     OW60274   6.818   3.540   5.227 -0.3341 -0.5680  0.0897
18476SOL    HW160275   6.747   3.480   5.251 -1.3024  0.0253 -1.2021
18476SOL    HW260276   6.773   3.618   5.194  0.9301 -0.1914 -0.7698
18477SOL     OW60277   7.359   1.647   3.817  0.4104  0.0605  0.3136
18477SOL    HW160278   7.421   1.646   3.744 -0.5306  0.3459 -0.5062
18477SOL    HW260279   7.405   1.693   3.887  0.7150  1.2670 -0.6550
18478SOL     OW60280   6.816   5.459   5.262  0.2609  0.1379 -0.6559
18478SOL    HW160281   6.893   5.508   5.232 -0.5730  0.7413 -1.8451
18478SOL    HW260282   6.743   5.521   5.251 -0.2493 -0.0704  1.4384
18479SOL     OW60283   7.144   4.042   3.024  0.5404 -0.4236 -0.5257
18479SOL    HW160284   7.205   3.999   2.963  3.2471 -0.1955  1.9075
18479SOL    HW260285   7.181   4.129   3.037 -1.5759  0.5264 -0.6904
18480SOL     OW60286   4.792   2.423   5.137  0.1481 -0.2065  0.3091
18480SOL    HW160287   4.879   2.459   5.121  0.3572 -0.3974  1.0255
18480SOL    HW260288   4.797   2.386   5.225 -1.0558  0.9769  0.9002
18481SOL     OW60289   6.909   0.962   5.158 -0.2127 -0.1536  0.0957
18481SOL    HW160290   6.832   0.987   5.106 -0.3129 -0.1923  0.2242
18481SOL    HW260291   6.876   0.894   5.217  0.2852 -1.3495 -0.9652
18482SOL     OW60292   6.602   2.585   2.519 -0.0617 -0.0392  0.0242
18482SOL    HW160293   6.665   2.513   2.522 -0.7473 -0.6320  0.4383
18482SOL    HW260294   6.628   2.636   2.442 -0.5666 -1.6485 -1.2413
18483SOL     OW60295   4.582   2.590   4.960 -0.6664 -0.2001  0.2090
18483SOL    HW160296   4.567   2.514   4.904  2.1168 -0.1413 -0.6974
18483SOL    HW260297   4.651   2.561   5.020 -0.8167  1.0505  0.9917
18484SOL     OW60298   5.623   2.146   4.101 -0.2213 -0.3133  0.3975
18484SOL    HW160299   5.610   2.161   4.195 -2.8184 -0.0349  0.0244
18484SOL    HW260300   5.593   2.057   4.086  0.6474 -0.5263 -0.0826
18485SOL     OW60301   7.032   2.168   6.221  0.3994  0.2710 -0.1633
18485SOL    HW160302   7.079   2.251   6.226  1.3023 -0.2992  1.1326
18485SOL    HW260303   7.079   2.110   6.280 -1.9001 -0.3175  1.1723
18486SOL     OW60304   7.276   3.524   4.511 -0.1299 -0.1301  0.0252
18486SOL    HW160305   7.354   3.478   4.479 -0.4363  0.5759 -1.8234
18486SOL    HW260306   7.300   3.554   4.598  2.0000  0.8171 -0.8369
18487SOL     OW60307   8.895   1.563   2.725  0.2859 -0.7149  0.3174
18487SOL    HW160308   8.892   1.509   2.645  0.2180 -0.6877  0.3018
18487SOL    HW260309   8.983   1.600   2.726 -0.3451  0.8681 -0.7793
18488SOL     OW60310   7.099   2.018   4.966  0.3937 -0.3764 -0.3961
18488SOL    HW160311   7.077   2.081   5.035  1.6021 -0.9650  0.5515
18488SOL    HW260312   7.118   1.937   5.012  0.6976 -0.9264 -1.4686
18489SOL     OW60313   5.401   2.427   1.656  0.5280 -0.3061  0.0061
18489SOL    HW160314   5.323   2.475   1.629 -0.3184 -0.2896  2.3316
18489SOL    HW260315   5.432   2.473   1.734  1.3447 -1.8323  0.6142
18490SOL     OW60316   4.376   0.576   3.265  0.3512  0.2692 -0.4911
18490SOL    HW160317   4.329   0.657   3.247  0.2894  0.6934  1.5251
18490SOL    HW260318   4.365   0.562   3.359  2.3351 -0.8307 -0.4044
18491SOL     OW60319   5.859   1.104   3.012 -0.1215 -0.1075  0.0681
18491SOL    HW160320   5.945   1.110   2.973 -0.5590 -1.3860 -1.0992
18491SOL    HW260321   5.862   1.025   3.066 -0.5364 -0.0850  0.1278
18492SOL     OW60322   5.747   1.259   3.404 -0.0117 -0.0934  0.3154
18492SOL    HW160323   5.826   1.283   3.453 -0.6461 -0.8068  1.6974
18492SOL    HW260324   5.752   1.311   3.324  2.1266 -0.5112  0.1526
18493SOL     OW60325   6.046   3.450   4.398 -0.4318 -0.2501  0.0195
18493SOL    HW160326   6.060   3.395   4.476 -1.9532  2.6156  2.3968
18493SOL    HW260327   6.009   3.390   4.333  0.8662 -2.7091  1.4463
18494SOL     OW60328   6.582   1.760   4.497 -0.0647 -0.8120  0.1618
18494SOL    HW160329   6.653   1.726   4.443 -1.6100 -0.3002 -2.2881
18494SOL    HW260330   6.603   1.852   4.510 -0.6246 -0.4846 -1.1815
18495SOL     OW60331   6.637   4.028   4.360 -0.2151 -0.0678 -0.6129
18495SOL    HW160332   6.581   3.985   4.424  0.1007  1.2847  0.5760
18495SOL    HW260333   6.702   3.961   4.337  0.3886 -0.1823  1.3540
18496SOL     OW60334   7.594   1.307   2.585 -0.2519 -0.3185 -0.0296
18496SOL    HW160335   7.575   1.278   2.674  0.1340  3.3814  1.3138
18496SOL    HW260336   7.522   1.365   2.562  0.6848  0.3591 -1.3367
18497SOL     OW60337   7.291   1.968   5.478  0.4081 -0.0550  0.2996
18497SOL    HW160338   7.351   1.967   5.552  0.9746  1.1844 -0.1106
18497SOL    HW260339   7.278   1.876   5.456 -1.0052 -0.5122  2.9018
18498SOL     OW60340   6.833   9.955   3.334  0.7453 -0.2579  0.1921
18498SOL    HW160341   6.918   9.910   3.326  0.5813 -0.3245 -1.2879
18498SOL    HW260342   6.825  10.004   3.252 -0.5201 -0.0209  0.4611
18499SOL     OW60343   7.222   1.292   5.497 -0.0187  0.1090 -0.3013
18499SOL    HW160344   7.306   1.248   5.485 -0.1867 -0.4016  0.3361
18499SOL    HW260345   7.169   1.264   5.423  1.5053  3.2164 -2.6740
18500SOL     OW60346   7.059   1.571   4.431  0.1110  0.8082 -0.1039
18500SOL    HW160347   7.139   1.539   4.474  0.6611  2.0155 -0.2058
18500SOL    HW260348   7.072   1.551   4.338 -0.1389  0.1114  0.0134
18501SOL     OW60349   8.760   3.520   4.229 -0.3026 -0.3245  0.4039
18501SOL    HW160350   8.791   3.444   4.278  1.0455 -1.0632 -1.4963
18501SOL    HW260351   8.665   3.516   4.234 -0.2738 -2.4527 -0.0706
18502SOL     OW60352   8.144   1.952   5.031 -0.3790  0.2448  0.1862
18502SOL    HW160353   8.178   1.895   5.099  0.6298  0.5153 -0.0721
18502SOL    HW260354   8.117   2.031   5.077  1.7424  1.0505  0.1303
18503SOL     OW60355   7.049   2.528   6.024  0.1712 -0.1527 -0.6279
18503SOL    HW160356   6.996   2.494   5.952  0.4165 -0.6728 -0.5649
18503SOL    HW260357   7.118   2.578   5.980 -1.3591  1.9973 -0.6572
18504SOL     OW60358   5.578   2.843   5.940  0.0751 -0.1898  0.0590
18504SOL    HW160359   5.621   2.911   5.991 -0.3549 -0.9130  1.4186
18504SOL    HW260360   5.615   2.761   5.972  0.7877 -0.6023 -1.7512
18505SOL     OW60361   6.380   2.666   5.390  0.2108  0.5021  0.4538
18505SOL    HW160362   6.402   2.717   5.313 -1.2429 -0.5047 -0.6543
18505SOL    HW260363   6.342   2.729   5.451 -0.7618  0.9088 -0.5601
18506SOL     OW60364   8.596   1.194   3.892 -0.1570  0.2854 -0.1205
18506SOL    HW160365   8.655   1.219   3.821  1.9261 -2.3591  0.5902
18506SOL    HW260366   8.612   1.258   3.961  1.4595 -0.0323 -0.1847
18507SOL     OW60367   5.007   2.668   2.292 -0.0743 -0.3144 -0.1691
18507SOL    HW160368   5.000   2.618   2.373 -0.3845 -1.9617 -1.1987
18507SOL    HW260369   4.937   2.635   2.236 -0.3086  1.2894 -0.8598
18508SOL     OW60370   5.245   2.587   4.218 -0.7573 -0.0222  0.3101
18508SOL    HW160371   5.300   2.543   4.283 -1.2609 -0.1294  0.6669
18508SOL    HW260372   5.289   2.569   4.135  1.6424  2.7770  0.9042
18509SOL     OW60373   7.511   2.544   5.805 -0.6495  0.0442  0.2488
18509SOL    HW160374   7.504   2.490   5.883  1.2598 -1.0957 -0.3291
18509SOL    HW260375   7.473   2.490   5.735  1.6023 -0.7625 -0.4003
18510SOL     OW60376   6.231   6.748   2.009  0.0614  0.5599  0.0964
18510SOL    HW160377   6.142   6.778   2.030 -0.6068 -0.3566 -1.2994
18510SOL    HW260378   6.280   6.759   2.090 -1.0948  1.9532  0.6312
18511SOL     OW60379   6.983   1.721   5.321  0.0799  0.4028 -0.0696
18511SOL    HW160380   6.983   1.753   5.411 -2.8420  0.5096 -0.0730
18511SOL    HW260381   6.976   1.626   5.328  1.7596  0.2462 -0.1902
18512SOL     OW60382   7.396   1.775   4.943 -0.1859  0.0617  0.2515
18512SOL    HW160383   7.325   1.729   4.897 -2.7714  2.3211  1.7992
18512SOL    HW260384   7.351   1.826   5.011  2.9398  1.7131  1.1676
18513SOL     OW60385   5.749   1.389   5.713  0.3915  0.1157 -0.3643
18513SOL    HW160386   5.695   1.366   5.637 -0.1427  0.7110 -0.1677
18513SOL    HW260387   5.715   1.334   5.783  0.5108 -0.0224 -0.4144
18514SOL     OW60388   6.683   0.594   4.087  0.4672 -0.0447 -0.1955
18514SOL    HW160389   6.748   0.609   4.156  0.5324 -2.9908  0.4409
18514SOL    HW260390   6.723   0.528   4.030 -0.7333  0.3211 -1.4829
18515SOL     OW60391   5.543   2.074   5.432  0.2686  0.5074  0.0459
18515SOL    HW160392   5.609   2.118   5.379 -0.6279  0.9735 -0.7069
18515SOL    HW260393   5.576   2.077   5.521  1.5355  0.2154 -0.4051
18516SOL     OW60394   7.422   1.427   6.141 -0.0930  1.0625  0.5165
18516SOL    HW160395   7.351   1.447   6.202 -1.1066  0.3378 -0.4163
18516SOL    HW260396   7.425   1.331   6.137  0.3018  1.1003 -0.2005
18517SOL     OW60397   7.990   3.708   5.498 -0.2559  0.3933  0.1751
18517SOL    HW160398   7.989   3.770   5.425  1.0254  0.5921  0.3085
18517SOL    HW260399   8.078   3.717   5.535 -0.8530  0.1991  1.6662
18518SOL     OW60400   5.801   2.206   2.458 -0.6386  0.6051  0.1494
18518SOL    HW160401   5.837   2.291   2.481 -2.1292  0.8824  1.5170
18518SOL    HW260402   5.873   2.161   2.412  1.2833  1.3264  2.3426
18519SOL     OW60403   6.172   1.569   4.313  0.2056  0.3380  0.0779
18519SOL    HW160404   6.213   1.601   4.232 -0.2416  0.0711 -0.2586
18519SOL    HW260405   6.091   1.528   4.283  0.0239  0.2702  0.6712
18520SOL     OW60406   7.095   4.570   3.937 -0.3102 -0.0040 -0.2808
18520SOL    HW160407   7.182   4.534   3.958  0.1350  1.1427 -0.1155
18520SOL    HW260408   7.041   4.547   4.013  0.0998  0.0967  0.0458
18521SOL     OW60409   6.835   3.823   3.825  0.4443  0.4492 -0.4036
18521SOL    HW160410   6.773   3.822   3.898 -0.0576 -0.3196 -0.8310
18521SOL    HW260411   6.781   3.804   3.748  1.1032  0.4507 -0.8653
18522SOL     OW60412   6.972   1.781   4.635 -0.0850 -0.4667  0.4439
18522SOL    HW160413   7.038   1.727   4.679 -1.2485 -1.9743  0.3967
18522SOL    HW260414   6.970   1.747   4.545 -0.0846  0.3696  0.1214
18523SOL     OW60415   6.178   3.148   3.624  0.2040  0.3666 -0.1411
18523SOL    HW160416   6.140   3.133   3.538  0.5475  0.2747 -0.2767
18523SOL    HW260417   6.106   3.130   3.685  0.1344 -0.1657 -0.3778
18524SOL     OW60418   5.009   1.609   5.079  0.3126  0.1978  0.4946
18524SOL    HW160419   5.002   1.672   5.007  1.8065  0.1930  0.3236
18524SOL    HW260420   4.946   1.639   5.144 -1.2727  0.0308 -0.9343
18525SOL     OW60421   7.757   1.838   4.742 -0.2910  0.1033  0.5857
18525SOL    HW160422   7.820   1.775   4.707 -1.6857 -2.1202  1.8843
18525SOL    HW260423   7.682   1.833   4.682 -0.5454  0.2595  0.8872
18526SOL     OW60424   4.009   2.114   4.278  0.2084 -0.0107 -0.3301
18526SOL    HW160425   4.085   2.063   4.252  1.0121  0.6381  0.7083
18526SOL    HW260426   4.036   2.159   4.358 -2.4140 -2.5392  2.0848
18527SOL     OW60427   4.612   2.911   5.756 -0.1306  0.2105 -0.2159
18527SOL    HW160428   4.654   2.996   5.745 -0.1453  0.6734  2.7989
18527SOL    HW260429   4.585   2.909   5.848 -3.4491 -1.5753 -1.1407
18528SOL     OW60430   4.754   2.600   4.369  0.2438  0.1589  0.8142
18528SOL    HW160431   4.776   2.692   4.358  0.7547 -0.0104  0.3759
18528SOL    HW260432   4.836   2.553   4.352 -0.5852 -0.5311 -1.4559
18529SOL     OW60433   6.920   5.264   4.288  0.0491  0.6735  0.1772
18529SOL    HW160434   6.968   5.343   4.263  0.1987 -0.3664 -3.0584
18529SOL    HW260435   6.968   5.193   4.245 -1.5671 -0.9259  0.9540
18530SOL     OW60436   7.569   2.081   5.070  0.3328  0.9268  0.3280
18530SOL    HW160437   7.619   2.110   4.993 -1.2823  1.4471 -0.5730
18530SOL    HW260438   7.618   2.008   5.105  1.3390  0.9615 -0.9626
18531SOL     OW60439   5.969   2.102   5.627 -0.6394  0.5119  0.0129
18531SOL    HW160440   5.903   2.039   5.598  0.7272 -1.4460  1.0561
18531SOL    HW260441   5.975   2.088   5.722  1.2141  0.7349 -0.0518
18532SOL     OW60442   5.561   3.304   3.608  0.1412  0.3717  0.1200
18532SOL    HW160443   5.620   3.238   3.645  0.7962  1.1142  0.4195
18532SOL    HW260444   5.507   3.331   3.682 -0.8175 -0.5487 -0.2285
18533SOL     OW60445   4.785   1.708   4.028  0.0076 -0.3374 -0.2930
18533SOL    HW160446   4.713   1.704   4.090 -1.3434 -0.3053 -1.8194
18533SOL    HW260447   4.770   1.635   3.968  1.5509 -0.6630 -0.3226
18534SOL     OW60448   7.362   4.524   6.327 -0.5173  0.1751  0.3480
18534SOL    HW160449   7.395   4.445   6.285  2.2848  1.8768 -0.7750
18534SOL    HW260450   7.403   4.525   6.414  1.5161  1.6836 -0.6015
18535SOL     OW60451   6.714   0.981   3.682  0.1601  0.4446  0.2600
18535SOL    HW160452   6.777   0.913   3.661 -0.7559 -0.2713 -0.2285
18535SOL    HW260453   6.737   1.010   3.770  0.8306 -0.1711  0.2890
18536SOL     OW60454   7.164   0.323   5.156 -0.2305  0.0108  0.1395
18536SOL    HW160455   7.089   0.324   5.216 -0.4596  1.6235 -0.1563
18536SOL    HW260456   7.131   0.362   5.075  0.8198  0.3816 -0.1176
18537SOL     OW60457   4.319   3.956   3.699 -0.2094 -0.1966 -0.3219
18537SOL    HW160458   4.274   3.924   3.621 -0.5138  0.9389 -0.6169
18537SOL    HW260459   4.293   4.048   3.706  0.3871 -0.1001  0.7089
18538SOL     OW60460   8.829   3.539   4.639  0.3523  0.3789  0.6748
18538SOL    HW160461   8.743   3.537   4.598  1.0449 -0.1028 -0.8059
18538SOL    HW260462   8.812   3.524   4.732 -1.1398  0.1514  0.3735
18539SOL     OW60463   6.757   3.025   5.907  0.7832  0.1840  0.4177
18539SOL    HW160464   6.834   3.009   5.852 -1.6385 -1.3820 -2.6541
18539SOL    HW260465   6.747   2.945   5.958 -0.8771 -1.1579 -1.8943
18540SOL     OW60466   8.695   3.541   3.927  0.3773  0.2057  0.0468
18540SOL    HW160467   8.756   3.467   3.928  0.1541  0.0050 -0.8161
18540SOL    HW260468   8.614   3.506   3.964 -0.4104 -0.5999 -2.3200
18541SOL     OW60469   7.606   2.747   5.057 -0.2586 -0.1170  0.8246
18541SOL    HW160470   7.524   2.794   5.075  0.5815  1.2138  1.2155
18541SOL    HW260471   7.621   2.694   5.135 -0.4858  0.0167  0.9617
18542SOL     OW60472   5.583   2.183   2.950  0.0141 -0.3776  0.6762
18542SOL    HW160473   5.678   2.170   2.954 -0.0317 -0.9705 -0.0169
18542SOL    HW260474   5.560   2.223   3.034  0.9651  0.3539  0.5904
18543SOL     OW60475   6.157   0.841   2.696  0.4458 -0.4315  0.0948
18543SOL    HW160476   6.137   0.829   2.603 -0.0989 -2.5495  0.4796
18543SOL    HW260477   6.104   0.776   2.741 -0.8641  1.9175  2.0877
18544SOL     OW60478   6.223   2.605   4.669  0.0273  0.2322  0.9796
18544SOL    HW160479   6.221   2.637   4.760 -1.0790  0.9107  0.7219
18544SOL    HW260480   6.176   2.672   4.619  0.9425  0.0309 -0.1534
18545SOL     OW60481   5.735   3.052   6.366 -0.0027  0.4537 -0.0600
18545SOL    HW160482   5.721   3.141   6.400  3.7097  1.3869 -0.8388
18545SOL    HW260483   5.715   2.995   6.441 -0.5909  2.0133  1.0049
18546SOL     OW60484   7.104   2.243   5.849  0.6356 -0.6195  0.3561
18546SOL    HW160485   7.091   2.208   5.761  0.7664 -0.5403  0.3053
18546SOL    HW260486   7.016   2.267   5.879  0.5101 -1.2353  0.4956
18547SOL     OW60487   5.115   2.612   2.888 -0.0968  0.0110 -0.1603
18547SOL    HW160488   5.177   2.567   2.945  0.8825  0.4545 -0.8746
18547SOL    HW260489   5.114   2.702   2.921 -1.0908 -0.2122  0.4534
18548SOL     OW60490   7.549   4.094   3.327 -0.1743 -0.0849 -0.3895
18548SOL    HW160491   7.545   4.017   3.271  0.2229 -0.9104  0.6941
18548SOL    HW260492   7.619   4.075   3.390 -0.6600  0.7804  0.4402
18549SOL     OW60493   7.177   2.188   5.312 -0.2628  0.3038 -0.1071
18549SOL    HW160494   7.144   2.176   5.401  0.8906 -0.7103  0.1912
18549SOL    HW260495   7.253   2.130   5.306 -0.3372  0.3507 -1.7600
18550SOL     OW60496   6.503   1.632   5.716  0.3110  0.3202 -0.3416
18550SOL    HW160497   6.586   1.678   5.705  3.0593 -3.7118  2.0768
18550SOL    HW260498   6.497   1.575   5.639  0.3067 -0.1105 -0.0246
18551SOL     OW60499   4.851   4.747   3.220 -0.1397  0.1438  0.1927
18551SOL    HW160500   4.759   4.772   3.224 -0.0985  0.2449  0.6295
18551SOL    HW260501   4.860   4.681   3.290  0.2361  0.5348  0.5152
18552SOL     OW60502   7.156   2.467   5.657 -0.5790 -0.3426  0.5658
18552SOL    HW160503   7.073   2.419   5.654 -0.6319 -0.2384  0.3487
18552SOL    HW260504   7.223   2.401   5.638 -0.5541 -0.5647  1.3872
18553SOL     OW60505   8.358   3.970   4.303  0.2273  0.4117  0.1044
18553SOL    HW160506   8.419   3.896   4.306  0.5354  0.6879  1.0541
18553SOL    HW260507   8.393   4.032   4.367  0.1701  1.5430 -0.9545
18554SOL     OW60508   7.583   2.239   4.195  0.7507  0.4993  0.0122
18554SOL    HW160509   7.602   2.155   4.237  0.1531  1.2859  1.9178
18554SOL    HW260510   7.658   2.295   4.218  0.4536  0.9143 -0.0230
18555SOL     OW60511   6.382   1.280   5.743 -0.1873  0.7455  0.3732
18555SOL    HW160512   6.473   1.293   5.719  0.0629 -0.7886  0.3939
18555SOL    HW260513   6.378   1.307   5.835  0.6786 -0.8737  0.9122
18556SOL     OW60514   7.573   3.852   7.222 -0.2862  0.2722  0.1973
18556SOL    HW160515   7.665   3.859   7.198  0.2921 -2.0532  1.5634
18556SOL    HW260516   7.567   3.893   7.309 -0.0830 -1.4474  1.0492
18557SOL     OW60517   7.826   1.940   5.222  0.1552  0.4239 -0.1488
18557SOL    HW160518   7.793   1.853   5.246 -0.0021  0.6327  0.3855
18557SOL    HW260519   7.921   1.931   5.227  0.1554  0.1617 -0.5247
18558SOL     OW60520   7.348   4.253   4.885  0.8298  0.1116  0.6535
18558SOL    HW160521   7.357   4.315   4.957 -0.7946  1.6003 -0.4139
18558SOL    HW260522   7.382   4.299   4.808 -0.7210 -0.1637 -0.2178
18559SOL     OW60523   8.248   2.522   3.295 -0.5220  0.7853 -0.3416
18559SOL    HW160524   8.310   2.479   3.354 -1.6676  1.0154  1.0508
18559SOL    HW260525   8.286   2.607   3.277  1.1994 -0.3283 -2.1906
18560SOL     OW60526   3.481   2.763   5.100 -0.7398  0.2144  0.1040
18560SOL    HW160527   3.388   2.754   5.119 -0.9950 -0.4165 -1.3726
18560SOL    HW260528   3.491   2.726   5.012  1.2444 -1.6572  1.0505
18561SOL     OW60529   6.197   1.434   5.060  0.1224  0.0123 -0.0265
18561SOL    HW160530   6.204   1.422   4.966  0.1886  1.2295 -0.1848
18561SOL    HW260531   6.150   1.357   5.091 -0.7739  0.0831 -1.1916
18562SOL     OW60532   6.064   2.464   1.839 -0.3234 -0.5899  0.3765
18562SOL    HW160533   6.035   2.478   1.930 -0.9275 -0.4758  0.1681
18562SOL    HW260534   6.078   2.369   1.833  0.0788 -0.5542  0.6932
18563SOL     OW60535   7.147   3.408   4.274  0.3801 -0.3836  0.0835
18563SOL    HW160536   7.164   3.349   4.201 -0.2211 -0.1668 -0.2346
18563SOL    HW260537   7.207   3.379   4.342  1.4784 -0.1050 -0.7545
18564SOL     OW60538   6.557   3.653   3.754 -0.1701  0.1296 -0.8487
18564SOL    HW160539   6.495   3.589   3.788  0.3100  0.6255  0.9993
18564SOL    HW260540   6.635   3.602   3.732  0.0462  0.0223  0.1764
18565SOL     OW60541   3.427   3.776   4.683 -0.1101 -0.5272 -0.5149
18565SOL    HW160542   3.371   3.743   4.753 -1.9824 -0.6251 -2.0149
18565SOL    HW260543   3.413   3.871   4.685  1.4785 -0.2937  0.5946
18566SOL     OW60544   6.988   1.328   5.810 -0.5073 -0.1204  0.2580
18566SOL    HW160545   6.938   1.404   5.840 -1.5869 -0.0151 -1.6683
18566SOL    HW260546   6.931   1.253   5.825  0.4231 -0.5282  1.8485
18567SOL     OW60547   7.418   3.401   3.431 -0.6841  0.0101  0.2911
18567SOL    HW160548   7.455   3.372   3.348  0.1496 -2.7263  1.5552
18567SOL    HW260549   7.443   3.493   3.438  0.2052 -0.0387 -1.9556
18568SOL     OW60550   6.336   3.995   1.736  0.2250  0.3018 -0.0368
18568SOL    HW160551   6.334   4.090   1.744 -0.9995  0.2210  0.8149
18568SOL    HW260552   6.293   3.963   1.816  1.2856 -0.9839  0.0394
18569SOL     OW60553   8.068   4.979   5.315  0.2391  0.4058  0.1946
18569SOL    HW160554   7.990   4.945   5.272  2.1818 -0.9347 -2.4176
18569SOL    HW260555   8.116   4.901   5.343 -0.2230  1.2238  3.5492
18570SOL     OW60556   6.333   2.421   5.052 -0.1863 -0.1710 -0.0644
18570SOL    HW160557   6.425   2.402   5.069  0.0519  0.0967 -1.0414
18570SOL    HW260558   6.320   2.403   4.959 -1.1877 -0.4579  0.1163
18571SOL     OW60559   6.732   2.758   4.999  0.1447 -0.9190  0.4958
18571SOL    HW160560   6.702   2.788   5.085 -0.6921 -2.6925  0.8357
18571SOL    HW260561   6.796   2.690   5.018 -0.1612 -1.4328 -0.2834
18572SOL     OW60562   4.407   4.477   2.434 -0.6350  0.5234  0.6875
18572SOL    HW160563   4.397   4.539   2.507  1.2163 -0.0071  1.4254
18572SOL    HW260564   4.475   4.516   2.379 -0.4016 -0.1925  0.4687
18573SOL     OW60565   6.050   1.894   6.061  0.4134 -0.0855 -0.4581
18573SOL    HW160566   6.041   1.801   6.082  0.3667 -0.0345 -0.2449
18573SOL    HW260567   6.089   1.932   6.140 -0.2995  0.2082 -0.2415
18574SOL     OW60568   7.791   2.935   4.466  0.5531 -0.1152  0.1554
18574SOL    HW160569   7.826   2.868   4.524  1.4856  0.1379 -0.1084
18574SOL    HW260570   7.698   2.913   4.457  0.7813 -1.1688  0.3425
18575SOL     OW60571   6.605   1.493   4.305  0.3591  0.2513  0.3081
18575SOL    HW160572   6.672   1.561   4.312  1.8218 -1.0555 -0.7837
18575SOL    HW260573   6.559   1.513   4.224 -1.0948  1.5761  1.4220
18576SOL     OW60574   4.118   4.512   1.517 -0.3721  0.0874 -0.1515
18576SOL    HW160575   4.149   4.544   1.433 -0.0894  0.8687  0.2384
18576SOL    HW260576   4.196   4.511   1.573 -0.5098 -0.6480  0.0357
18577SOL     OW60577   7.101   3.087   2.168  0.3210  0.1533  0.1112
18577SOL    HW160578   7.149   3.148   2.224  0.6223  0.6507 -0.6825
18577SOL    HW260579   7.155   3.008   2.167  1.2752  0.8183 -1.0225
18578SOL     OW60580   7.552   2.995   3.974 -0.2637  0.4064 -0.1320
18578SOL    HW160581   7.639   3.007   4.013  1.7608 -1.6682 -3.7415
18578SOL    HW260582   7.500   2.953   4.043  1.6808  1.2909  1.9457
18579SOL     OW60583   5.898   2.496   5.370 -0.2962  0.1221  0.1571
18579SOL    HW160584   5.961   2.525   5.305  0.7923  0.1842  1.2121
18579SOL    HW260585   5.948   2.492   5.452 -1.5273 -0.3465  0.9083
18580SOL     OW60586   6.108   2.165   3.472 -0.1570 -0.3062 -0.0456
18580SOL    HW160587   6.088   2.139   3.561  1.0083  0.4046  0.4295
18580SOL    HW260588   6.166   2.241   3.481  0.1124 -0.3348 -1.3960
18581SOL     OW60589   5.085   3.253   4.497  1.0399 -0.1906  0.0283
18581SOL    HW160590   5.088   3.226   4.589  0.9622 -0.0679  0.0672
18581SOL    HW260591   5.172   3.232   4.463  0.6372 -1.5003 -0.2388
18582SOL     OW60592   5.593   2.354   3.855 -0.0269  0.2304 -0.1271
18582SOL    HW160593   5.604   2.261   3.875  0.6377 -0.2024 -2.3700
18582SOL    HW260594   5.580   2.396   3.940  0.9261 -1.7344  1.0107
18583SOL     OW60595   5.715   1.893   3.329 -0.3520 -0.6634 -0.0217
18583SOL    HW160596   5.663   1.915   3.252 -0.7991 -0.2784  0.3808
18583SOL    HW260597   5.802   1.873   3.296 -0.2481  0.6073 -0.5010
18584SOL     OW60598   7.367   3.375   5.535 -0.6982 -0.2613  0.0597
18584SOL    HW160599   7.402   3.403   5.620 -0.2659 -1.6656  0.3590
18584SOL    HW260600   7.272   3.382   5.545 -0.6512 -0.4733  0.6778
18585SOL     OW60601   5.973   1.966   4.893 -0.3753  0.2380  0.1691
18585SOL    HW160602   5.918   1.996   4.965 -1.5131 -0.1332 -0.5365
18585SOL    HW260603   6.003   1.879   4.920  0.2482  0.6267  0.7531
18586SOL     OW60604   5.712   2.763   3.295 -0.3426  0.1053 -0.8202
18586SOL    HW160605   5.666   2.846   3.283 -1.2628 -0.3214 -0.3070
18586SOL    HW260606   5.659   2.698   3.248 -1.4104 -0.7442  1.4499
18587SOL     OW60607   6.578   2.547   8.185  0.5363 -0.4526 -0.6015
18587SOL    HW160608   6.618   2.497   8.113  1.2227 -0.2767 -0.3421
18587SOL    HW260609   6.486   2.551   8.161  0.5554 -1.4113 -0.8866
18588SOL     OW60610   5.964   3.240   2.021 -0.4581  0.8018 -0.8093
18588SOL    HW160611   6.025   3.311   2.001  1.5579 -1.0157 -1.3606
18588SOL    HW260612   5.906   3.237   1.945  0.6805  0.6214 -1.6902
18589SOL     OW60613   6.274   2.544   3.799  0.1578  0.3045 -0.1968
18589SOL    HW160614   6.249   2.501   3.881 -1.6425  0.0159 -0.8715
18589SOL    HW260615   6.334   2.614   3.826 -1.3453  0.9713  1.5036
18590SOL     OW60616   6.906   1.214   3.628 -0.2546  0.2117  0.0884
18590SOL    HW160617   6.920   1.251   3.715 -1.3672 -0.0923  0.4040
18590SOL    HW260618   6.811   1.216   3.616 -0.1965 -0.8279 -0.6296
18591SOL     OW60619   5.619   2.594   3.754 -0.3755  0.0058 -0.0224
18591SOL    HW160620   5.712   2.614   3.769 -0.4306  0.4142 -0.2038
18591SOL    HW260621   5.613   2.499   3.760 -0.0674  0.0229  0.6938
18592SOL     OW60622   6.430   1.961   5.422  0.3802  0.0352 -0.6591
18592SOL    HW160623   6.456   1.872   5.398  0.1883  0.0817 -1.0509
18592SOL    HW260624   6.335   1.962   5.409  0.3835  0.2952 -0.6530
18593SOL     OW60625   7.291   3.015   3.920 -0.7065  0.4093 -0.2658
18593SOL    HW160626   7.349   2.939   3.919 -0.0653  0.8930 -0.2254
18593SOL    HW260627   7.206   2.981   3.893  0.0657  0.0771 -2.3380
18594SOL     OW60628   7.723   2.421   5.053  0.0181 -0.2770  0.2855
18594SOL    HW160629   7.679   2.459   5.129 -0.5529  1.4825 -0.8777
18594SOL    HW260630   7.809   2.464   5.053  0.7762 -1.7623  1.0581
18595SOL     OW60631   7.747   2.111   5.441 -0.2865  0.6518 -0.3116
18595SOL    HW160632   7.789   2.046   5.385 -0.8100  0.1436 -0.1253
18595SOL    HW260633   7.808   2.123   5.514  1.5464  3.1470 -2.2072
18596SOL     OW60634   7.290   6.275   5.506  0.6471  0.2889 -0.4635
18596SOL    HW160635   7.360   6.238   5.559  1.0420  0.0356 -1.1561
18596SOL    HW260636   7.280   6.214   5.433 -1.3854 -0.5311  0.4669
18597SOL     OW60637   5.552   1.561   5.005  0.0929  0.2829 -0.4430
18597SOL    HW160638   5.474   1.530   4.958 -1.0398 -0.6748  1.9446
18597SOL    HW260639   5.517   1.625   5.068  0.2480 -4.2512  4.5991
18598SOL     OW60640   4.706   0.967   3.043 -0.2216 -0.3590 -0.0676
18598SOL    HW160641   4.617   0.943   3.015 -0.9169 -0.1530  1.8557
18598SOL    HW260642   4.703   0.960   3.139  1.9834 -0.8355 -0.0072
18599SOL     OW60643   4.312   0.836   3.746 -0.1640  0.2043 -0.5582
18599SOL    HW160644   4.230   0.791   3.729  0.2454 -0.5980 -0.4226
18599SOL    HW260645   4.333   0.815   3.837  0.7735 -0.5393 -0.9409
18600SOL     OW60646   8.021   2.832   5.391 -0.1706 -0.1469 -0.1481
18600SOL    HW160647   8.065   2.899   5.443 -0.3360 -0.9975  1.1146
18600SOL    HW260648   8.091   2.772   5.364 -0.1219  0.1522 -0.7017
18601SOL     OW60649   7.365   1.869   4.666 -0.3864 -0.5886 -0.8515
18601SOL    HW160650   7.394   1.927   4.736  0.7774 -1.1715 -0.8376
18601SOL    HW260651   7.313   1.802   4.710 -0.9844 -0.0609 -0.7522
18602SOL     OW60652   5.303   4.361   2.180 -0.2698 -0.4624  0.1242
18602SOL    HW160653   5.268   4.397   2.098 -2.6653  3.9385  2.8812
18602SOL    HW260654   5.383   4.411   2.196 -0.1492 -0.8631  0.7928
18603SOL     OW60655   5.745   4.260   2.750  0.0600  0.2095  0.5029
18603SOL    HW160656   5.788   4.278   2.834 -2.1244  2.7285  1.1172
18603SOL    HW260657   5.804   4.297   2.685  0.9562 -0.2895  1.0148
18604SOL     OW60658   6.491   1.936   4.305  0.1130  0.0362 -0.4516
18604SOL    HW160659   6.514   1.906   4.217 -2.5020 -1.1419 -0.7826
18604SOL    HW260660   6.437   1.866   4.341 -1.2141  1.7664  1.0206
18605SOL     OW60661   6.831   2.073   3.668  0.3029  0.1765  0.2345
18605SOL    HW160662   6.895   2.145   3.665  0.0744  0.3636 -0.3468
18605SOL    HW260663   6.821   2.047   3.576 -0.0511 -0.2137  0.3838
18606SOL     OW60664   7.605   4.736   4.448 -0.2117 -0.5402 -0.6155
18606SOL    HW160665   7.534   4.673   4.441 -0.9524  0.1281  0.6115
18606SOL    HW260666   7.603   4.764   4.540  1.8272 -0.7261 -0.5032
18607SOL     OW60667   6.427   2.493   5.599 -0.0568  0.4355 -0.4840
18607SOL    HW160668   6.427   2.538   5.515 -2.2700 -2.5662 -2.1859
18607SOL    HW260669   6.346   2.522   5.642  0.5674  1.1854  0.2067
18608SOL     OW60670   5.081   1.956   3.861 -0.0238  0.2142  0.1215
18608SOL    HW160671   5.100   1.973   3.769 -0.9501  1.2297  0.1054
18608SOL    HW260672   5.104   1.864   3.874 -1.7207 -0.4715 -1.6160
18609SOL     OW60673   6.699   2.417   4.672  0.0070  0.1020 -0.3261
18609SOL    HW160674   6.648   2.381   4.744 -0.7259 -0.2008 -0.9893
18609SOL    HW260675   6.635   2.430   4.602  0.9046 -0.7038 -1.3118
18610SOL     OW60676   8.958   1.237   5.373 -0.6327  0.1543 -0.1326
18610SOL    HW160677   9.004   1.234   5.457 -2.4085  1.1974  0.9073
18610SOL    HW260678   9.023   1.206   5.309  0.8851 -0.2213  1.5460
18611SOL     OW60679   6.572   4.367   4.468 -0.8269 -0.1523  0.3941
18611SOL    HW160680   6.554   4.314   4.546  0.3598 -0.4971  0.4489
18611SOL    HW260681   6.617   4.444   4.501 -0.0028 -0.4672  0.0178
18612SOL     OW60682   7.592   2.618   4.811 -0.3926  0.1427 -0.0250
18612SOL    HW160683   7.597   2.669   4.892  1.0714 -1.1939  0.7523
18612SOL    HW260684   7.582   2.528   4.839  0.2834 -0.3525 -1.3265
18613SOL     OW60685   4.170   1.074   5.247 -0.5086  0.3794  0.0111
18613SOL    HW160686   4.145   1.014   5.177  2.1291 -0.5830 -0.1932
18613SOL    HW260687   4.246   1.031   5.288  0.1042  2.5715  1.2354
18614SOL     OW60688   5.584   1.621   3.992  0.3692  0.5416 -0.7500
18614SOL    HW160689   5.496   1.607   3.956 -0.0574 -0.9218  0.7523
18614SOL    HW260690   5.635   1.546   3.960  0.4796  0.2446  0.0889
18615SOL     OW60691   7.215   1.480   4.231  0.6514 -0.1613 -0.5434
18615SOL    HW160692   7.149   1.462   4.164  0.1598  0.6668 -0.2934
18615SOL    HW260693   7.199   1.415   4.299 -0.7059  0.7786  0.0716
18616SOL     OW60694   5.295   0.836   4.098  0.0412 -0.1609  0.2710
18616SOL    HW160695   5.252   0.861   4.016 -0.3809  1.6775  1.0098
18616SOL    HW260696   5.388   0.841   4.079 -0.0583 -0.0402 -0.1948
18617SOL     OW60697   5.246   1.880   2.883  0.3118 -0.1155 -0.4530
18617SOL    HW160698   5.291   1.955   2.845  0.8098 -1.5293 -2.7478
18617SOL    HW260699   5.308   1.808   2.876 -0.7852 -1.1546  0.1664
18618SOL     OW60700   7.236   3.476   3.859  0.5849 -0.0366 -0.1887
18618SOL    HW160701   7.323   3.481   3.897  0.4648 -1.5024  0.3020
18618SOL    HW260702   7.187   3.548   3.900  0.5160 -1.4451  2.2913
18619SOL     OW60703   6.734   0.503   5.097 -0.1658  0.2547 -0.1460
18619SOL    HW160704   6.754   0.496   5.190 -0.6301 -0.8914 -0.1258
18619SOL    HW260705   6.805   0.454   5.053  0.3947  1.3122 -0.4394
18620SOL     OW60706   7.259   0.836   3.357  0.4087  0.3692 -0.2304
18620SOL    HW160707   7.270   0.750   3.319  1.3222 -0.0337  0.8968
18620SOL    HW260708   7.277   0.897   3.286 -1.1749 -0.3553 -1.2751
18621SOL     OW60709   5.510   3.398   2.469 -0.0822 -0.4151  0.2222
18621SOL    HW160710   5.534   3.329   2.532 -1.8070  0.4474  1.8816
18621SOL    HW260711   5.531   3.479   2.514  2.1520  0.2135 -1.8184
18622SOL     OW60712   5.476   3.202   2.674 -0.8660 -0.1513  0.1088
18622SOL    HW160713   5.550   3.237   2.722 -1.9588 -0.8814  2.3809
18622SOL    HW260714   5.452   3.122   2.721 -2.5076 -0.4178 -1.1376
18623SOL     OW60715   5.840   3.193   4.416 -0.0371  0.3317  0.7996
18623SOL    HW160716   5.819   3.232   4.332 -2.1156  3.0880  2.5099
18623SOL    HW260717   5.796   3.109   4.416  0.5796 -0.0036 -1.1261
18624SOL     OW60718   6.270   2.140   7.423  0.1789 -0.1141 -0.0639
18624SOL    HW160719   6.315   2.076   7.368  0.0551  0.5644 -0.9795
18624SOL    HW260720   6.226   2.198   7.361  0.4937  1.0040  0.7349
18625SOL     OW60721   5.223   1.261   6.589  0.4745  0.6667  0.4868
18625SOL    HW160722   5.131   1.249   6.565  0.8842  1.0884 -1.3630
18625SOL    HW260723   5.228   1.230   6.680 -0.9049 -2.1884 -0.3331
18626SOL     OW60724   6.751   2.249   5.521 -0.2143  0.1372  0.3517
18626SOL    HW160725   6.763   2.202   5.603 -0.7916 -1.3573 -0.4037
18626SOL    HW260726   6.802   2.329   5.532  1.8825 -1.2730  1.1292
18627SOL     OW60727   7.001   2.384   6.600  0.4067 -0.0444 -0.2434
18627SOL    HW160728   7.053   2.435   6.663  0.3051  0.0154 -0.2089
18627SOL    HW260729   7.063   2.364   6.529 -0.3560  2.7957 -1.7809
18628SOL     OW60730   7.932   3.141   5.515 -0.0611  0.5807  0.3524
18628SOL    HW160731   8.014   3.093   5.504 -1.1137 -0.9867 -0.7883
18628SOL    HW260732   7.904   3.162   5.426 -0.9579  1.0326  0.7265
18629SOL     OW60733   7.396   2.479   6.926 -0.6270 -0.1319  0.6069
18629SOL    HW160734   7.439   2.395   6.935  0.7524  0.6043  1.0440
18629SOL    HW260735   7.394   2.515   7.015 -3.7733 -0.9152  0.9105
18630SOL     OW60736   6.822   2.548   6.198  0.3796 -0.0433  0.5434
18630SOL    HW160737   6.869   2.514   6.122 -0.7650 -1.7770  0.5738
18630SOL    HW260738   6.741   2.583   6.163  0.3730  0.2260  0.8257
18631SOL     OW60739   6.757   3.086   7.829 -0.5881 -0.6511  0.3514
18631SOL    HW160740   6.719   3.115   7.746  1.0221  1.0896  0.1756
18631SOL    HW260741   6.711   3.138   7.895  0.7277  0.7084  0.2216
18632SOL     OW60742   6.884   1.496   7.164  0.0760  0.3805  0.0972
18632SOL    HW160743   6.966   1.448   7.151  0.3462  0.3610  1.8211
18632SOL    HW260744   6.911   1.580   7.200 -0.6579  0.4207  0.5494
18633SOL     OW60745   6.630   1.846   4.921 -0.5150  0.3286  0.3079
18633SOL    HW160746   6.659   1.860   4.831  0.3641 -0.0329  0.5293
18633SOL    HW260747   6.711   1.836   4.971 -1.0182 -1.0847  0.8766
18634SOL     OW60748   6.810   2.303   5.922 -0.6133  0.3634  0.2691
18634SOL    HW160749   6.796   2.220   5.968 -1.3611  1.1826  1.5351
18634SOL    HW260750   6.740   2.307   5.858  0.6818 -0.9853 -1.2909
18635SOL     OW60751   7.005   3.306   6.851  0.1161  0.2348 -0.2438
18635SOL    HW160752   6.986   3.394   6.820  1.7737  1.0465  0.9517
18635SOL    HW260753   7.050   3.264   6.777 -1.3756  0.1131 -1.0950
18636SOL     OW60754   8.457   3.873   8.250  0.2118  0.2076 -0.1510
18636SOL    HW160755   8.499   3.924   8.320 -0.8562  1.5077 -0.4403
18636SOL    HW260756   8.527   3.856   8.188  1.3083 -1.4243  1.4693
18637SOL     OW60757   5.837   1.616   8.216 -0.0620  0.0173  0.2837
18637SOL    HW160758   5.872   1.602   8.304 -1.1163  0.0572  0.7126
18637SOL    HW260759   5.854   1.709   8.198  2.3277 -0.5339 -0.5343
18638SOL     OW60760   7.943   3.489   4.902  0.2838 -0.1870  0.0392
18638SOL    HW160761   7.961   3.403   4.864 -1.5870 -1.2204  1.4012
18638SOL    HW260762   8.017   3.544   4.875  1.5533 -2.2544 -0.7527
18639SOL     OW60763   6.166   3.391   4.011 -0.4422  0.1185 -0.2111
18639SOL    HW160764   6.149   3.406   3.918 -3.4635  1.2333  0.4746
18639SOL    HW260765   6.179   3.296   4.018 -3.2020 -0.3866 -1.3461
18640SOL     OW60766   7.163   2.317   9.073  0.4050  0.6120 -0.2976
18640SOL    HW160767   7.181   2.275   8.988  2.3486  1.0474 -0.1183
18640SOL    HW260768   7.092   2.264   9.111  2.6991 -2.4745 -0.1252
18641SOL     OW60769   6.662   2.248   6.909  0.8116  0.5410  0.4688
18641SOL    HW160770   6.697   2.249   6.820  1.5793 -0.0473  0.7535
18641SOL    HW260771   6.704   2.322   6.952  0.7660  0.5725  0.4587
18642SOL     OW60772   6.200   1.606   5.430 -0.3225  0.1390  0.2930
18642SOL    HW160773   6.260   1.533   5.446 -3.0322 -1.4525  3.6460
18642SOL    HW260774   6.181   1.642   5.516 -4.0127  0.7244 -0.6830
18643SOL     OW60775   5.830   3.519   8.323 -0.2023  0.1458 -0.4217
18643SOL    HW160776   5.812   3.610   8.345 -0.5015  0.1669 -0.7477
18643SOL    HW260777   5.854   3.520   8.230 -0.2620 -0.1139 -0.4417
18644SOL     OW60778   6.763   2.815   4.415 -0.0551 -0.1524 -0.3106
18644SOL    HW160779   6.827   2.844   4.349 -0.7568 -1.0244 -1.3869
18644SOL    HW260780   6.816   2.798   4.493  1.0928 -1.2404 -1.3049
18645SOL     OW60781   9.557   1.067   7.017  0.3923  0.4456 -0.1152
18645SOL    HW160782   9.502   0.994   6.992  2.0760 -0.8070 -0.2750
18645SOL    HW260783   9.526   1.141   6.964 -1.2946 -0.1522  0.0309
18646SOL     OW60784   3.718   2.269   5.367  0.6863 -0.4064  0.3062
18646SOL    HW160785   3.729   2.175   5.353  1.2297 -0.4611  1.0704
18646SOL    HW260786   3.807   2.301   5.384  0.7432  0.5337 -1.6017
18647SOL     OW60787   4.932   1.904   6.024 -0.0085  0.5041  0.1791
18647SOL    HW160788   4.927   1.927   6.117 -1.9456 -1.8600  0.7104
18647SOL    HW260789   5.009   1.848   6.017 -1.1853 -1.2588  0.8594
18648SOL     OW60790   5.434   3.065   5.478 -0.3300 -0.0600 -0.5750
18648SOL    HW160791   5.528   3.052   5.471 -0.2583  0.7019 -1.0420
18648SOL    HW260792   5.407   3.006   5.549  0.3401 -0.9891 -1.0832
18649SOL     OW60793   7.711   2.731   5.784  0.0577 -0.0273  0.2794
18649SOL    HW160794   7.635   2.678   5.762  0.1826  0.4644 -1.4755
18649SOL    HW260795   7.719   2.792   5.710  2.3019 -0.2497  0.2961
18650SOL     OW60796   6.561   2.313   7.531 -0.0760 -0.6311  0.4838
18650SOL    HW160797   6.572   2.218   7.523 -1.9682 -0.7635 -0.6952
18650SOL    HW260798   6.604   2.348   7.453  1.1181 -0.4703  1.2043
18651SOL     OW60799   5.383   2.305   6.956 -0.2532 -0.0466 -0.3979
18651SOL    HW160800   5.338   2.331   6.876  0.1979  1.2915 -0.2245
18651SOL    HW260801   5.384   2.209   6.953 -2.5731 -0.0916 -0.6925
18652SOL     OW60802   6.222   2.890   7.298 -0.3682  0.3294  0.5497
18652SOL    HW160803   6.259   2.977   7.281  0.4022 -0.0067  0.4934
18652SOL    HW260804   6.130   2.907   7.318 -0.8232  0.9131 -1.9504
18653SOL     OW60805   6.048   3.062   6.595 -1.0221 -0.1611  0.6798
18653SOL    HW160806   6.042   3.157   6.609  0.7921 -0.0054  0.5424
18653SOL    HW260807   6.101   3.031   6.668 -1.1752 -0.9977  0.4322
18654SOL     OW60808   8.692   3.752   5.841  0.5549  0.1352  0.7759
18654SOL    HW160809   8.674   3.841   5.813  0.2996 -0.7064 -1.8999
18654SOL    HW260810   8.787   3.750   5.856  0.6081  0.7885  0.5442
18655SOL     OW60811   6.424   2.185   5.639  0.3583 -0.2496 -0.3885
18655SOL    HW160812   6.449   2.093   5.647  1.5114 -0.0818 -1.7566
18655SOL    HW260813   6.378   2.205   5.720 -0.8142 -2.3072 -0.5172
18656SOL     OW60814   7.710   2.212   6.344  0.6121 -0.3059  0.8859
18656SOL    HW160815   7.779   2.197   6.408  0.2950  1.1561  1.6034
18656SOL    HW260816   7.731   2.154   6.271  1.0007 -1.9548  2.2840
18657SOL     OW60817   7.218   4.938   8.461 -0.1788  0.0897 -0.4588
18657SOL    HW160818   7.278   4.863   8.454 -0.1403 -0.0259  1.0670
18657SOL    HW260819   7.234   4.974   8.548 -3.0259 -0.5736  0.4154
18658SOL     OW60820   5.456   1.607   5.848  0.1577  0.2064 -0.1327
18658SOL    HW160821   5.395   1.666   5.892  0.3488  0.4452 -0.1883
18658SOL    HW260822   5.422   1.519   5.867 -0.3904  0.3493 -0.4397
18659SOL     OW60823   7.726   5.187   3.557 -0.1593  0.5302  0.1665
18659SOL    HW160824   7.775   5.223   3.483  0.7017  0.4075  0.6755
18659SOL    HW260825   7.697   5.264   3.606  0.8700  0.5675  0.7287
18660SOL     OW60826   6.726   3.015   5.549 -0.9741  0.0763  0.1498
18660SOL    HW160827   6.812   3.024   5.591  0.1770 -0.1099 -2.0567
18660SOL    HW260828   6.729   3.078   5.477 -1.8330 -1.4814 -1.2793
18661SOL     OW60829   6.517   2.545   6.759 -0.9917 -0.2469 -0.6354
18661SOL    HW160830   6.510   2.466   6.706 -0.0729 -0.1490 -0.9258
18661SOL    HW260831   6.583   2.598   6.714 -1.9261  0.8919 -0.6931
18662SOL     OW60832   6.501   1.616   4.858 -0.1666 -0.0644  0.0765
18662SOL    HW160833   6.471   1.565   4.934 -2.3271  0.9835 -0.0233
18662SOL    HW260834   6.542   1.694   4.895 -3.3676  1.6473  0.2524
18663SOL     OW60835   6.695   3.807   4.061 -0.1926  0.0696  0.0000
18663SOL    HW160836   6.741   3.844   4.136  1.8854 -0.5697 -0.9167
18663SOL    HW260837   6.652   3.729   4.096  0.9240 -0.3308  0.5058
18664SOL     OW60838   6.012   3.236   8.092 -0.3453 -0.8744  0.4680
18664SOL    HW160839   5.953   3.170   8.128 -1.7050 -0.4617 -0.9519
18664SOL    HW260840   5.954   3.301   8.053  1.0372 -0.1522 -0.4173
18665SOL     OW60841   8.210   1.902   6.151  0.3676  0.1874  0.3854
18665SOL    HW160842   8.299   1.934   6.141  0.7312 -1.1267 -0.7446
18665SOL    HW260843   8.158   1.956   6.091  0.6141  0.0951  0.0882
18666SOL     OW60844   7.926   2.923   7.570  0.0432 -0.4900  0.0806
18666SOL    HW160845   7.986   2.870   7.623  0.4209 -0.2971 -0.1529
18666SOL    HW260846   7.926   3.008   7.612  0.1411 -0.4120 -0.0775
18667SOL     OW60847   8.710   1.783   8.828  0.0538 -0.2822  0.2753
18667SOL    HW160848   8.681   1.833   8.752  0.8958 -0.4161 -0.1356
18667SOL    HW260849   8.738   1.698   8.792 -1.9143 -1.2794  1.0361
18668SOL     OW60850   6.278   2.929   6.890 -0.6748 -0.1895 -0.5088
18668SOL    HW160851   6.233   3.009   6.865 -1.6156 -0.6786 -0.4175
18668SOL    HW260852   6.208   2.863   6.895 -0.3854 -0.3271  2.4330
18669SOL     OW60853   6.856   5.406   7.682  0.7221  0.3610  0.1927
18669SOL    HW160854   6.926   5.363   7.634  0.8074  2.0175 -1.1826
18669SOL    HW260855   6.886   5.405   7.773  0.2925 -3.3173  0.3813
18670SOL     OW60856   4.698   2.185   4.057  0.8565 -0.0878 -0.3317
18670SOL    HW160857   4.606   2.184   4.031  0.2482 -0.9536  1.7262
18670SOL    HW260858   4.697   2.158   4.149  3.0156  1.6006  0.2272
18671SOL     OW60859   6.805   3.277   5.770 -0.4215  0.2425 -0.0217
18671SOL    HW160860   6.900   3.264   5.771 -0.3595  0.6177 -0.5701
18671SOL    HW260861   6.794   3.372   5.774 -0.8243  0.1263  2.3312
18672SOL     OW60862   8.733   2.458   6.137  0.8209  0.2784  0.0527
18672SOL    HW160863   8.816   2.500   6.161  0.4148  0.7870  0.5825
18672SOL    HW260864   8.697   2.514   6.068 -0.1971  1.3761  1.4447
18673SOL     OW60865   7.765   3.231   6.106  0.1602  0.2691 -0.3869
18673SOL    HW160866   7.772   3.246   6.200 -1.2302  0.4996 -0.3121
18673SOL    HW260867   7.843   3.180   6.084  0.7206  0.5994  0.8063
18674SOL     OW60868   6.506   2.913   5.641  0.2741 -0.1240 -0.1221
18674SOL    HW160869   6.524   2.824   5.673  0.4906 -0.2761 -0.6692
18674SOL    HW260870   6.588   2.940   5.600 -0.2967 -0.2632 -1.3513
18675SOL     OW60871   7.080   3.598   7.917 -0.6774 -0.1441 -0.1008
18675SOL    HW160872   7.035   3.528   7.869 -1.5398  0.2812  0.0774
18675SOL    HW260873   7.023   3.615   7.992  1.1557 -1.4963  1.6272
18676SOL     OW60874   6.693   2.011   7.027  0.1879  0.0434 -0.6992
18676SOL    HW160875   6.716   2.076   6.961 -2.5012 -0.0483 -1.7900
18676SOL    HW260876   6.773   1.960   7.039  1.2944  1.3162 -2.4304
18677SOL     OW60877   9.486   2.962   6.637 -0.0153 -0.0683 -0.5820
18677SOL    HW160878   9.462   2.955   6.545 -0.2128 -1.8622 -0.4266
18677SOL    HW260879   9.415   2.918   6.684  1.3506 -1.4839  0.2188
18678SOL     OW60880   1.161   4.879   9.061 -0.4085  0.5715  0.5634
18678SOL    HW160881   1.097   4.902   8.993 -1.8734 -0.0009  1.7172
18678SOL    HW260882   1.129   4.921   9.140  0.7757  0.4616  1.1213
18679SOL     OW60883   6.264   1.980   6.208  0.0442  0.2530 -0.7843
18679SOL    HW160884   6.347   2.001   6.252 -1.3834  2.5565  0.9669
18679SOL    HW260885   6.282   1.995   6.115  2.1716 -1.4125 -0.7013
18680SOL     OW60886   7.343   4.648   5.830  0.3388 -0.1638  0.3318
18680SOL    HW160887   7.275   4.701   5.869  0.3305 -1.4061  2.0536
18680SOL    HW260888   7.416   4.652   5.892  1.1888 -0.2911 -0.6327
18681SOL     OW60889   6.388   3.734   8.334 -0.6043  0.0524 -0.1795
18681SOL    HW160890   6.460   3.771   8.283 -0.2213  1.5705  1.3947
18681SOL    HW260891   6.310   3.782   8.305 -0.3747  0.9677  0.6461
18682SOL     OW60892   6.756   2.215   4.308  0.1635 -0.0881 -0.1786
18682SOL    HW160893   6.805   2.140   4.276 -0.8254 -1.2732  1.0042
18682SOL    HW260894   6.808   2.247   4.382 -0.2763 -0.6673  0.3861
18683SOL     OW60895   7.807   3.231   4.615  0.2424 -0.2067  0.5344
18683SOL    HW160896   7.855   3.214   4.696  1.8712  2.5700  0.2214
18683SOL    HW260897   7.821   3.153   4.562  1.5979 -0.8390  1.7701
18684SOL     OW60898   4.885   2.651   5.486  0.2480  0.8812 -0.4596
18684SOL    HW160899   4.958   2.626   5.429 -0.4891  0.2677 -1.1439
18684SOL    HW260900   4.873   2.575   5.543  0.2074  1.0169 -0.2890
18685SOL     OW60901   6.193   1.737   6.280 -0.6154  0.1312 -0.0556
18685SOL    HW160902   6.224   1.730   6.370  0.3164 -0.0644 -0.3833
18685SOL    HW260903   6.190   1.831   6.263  0.6367  0.1386 -0.2925
18686SOL     OW60904   7.266   2.982   7.659  0.7631  0.9515  1.0044
18686SOL    HW160905   7.286   2.962   7.567 -0.3193  3.1097  0.2658
18686SOL    HW260906   7.328   3.051   7.682  0.0973  1.3956  1.4744
18687SOL     OW60907   6.930   2.825   7.509 -0.0049  0.2351 -1.3965
18687SOL    HW160908   6.929   2.827   7.604 -0.2567  0.3422 -1.4001
18687SOL    HW260909   6.864   2.759   7.486 -0.8616  1.1301 -1.5235
18688SOL     OW60910   7.722   2.394   6.690 -0.1323  0.5448  0.0312
18688SOL    HW160911   7.802   2.388   6.743  0.4705  0.6902 -0.8603
18688SOL    HW260912   7.742   2.347   6.609 -0.5285  1.6309 -0.7119
18689SOL     OW60913   9.172   3.072   5.257 -0.0791  0.0552  0.4226
18689SOL    HW160914   9.256   3.102   5.294  0.0792  0.4441 -0.2427
18689SOL    HW260915   9.191   2.984   5.224  0.5252  0.7854 -1.2415
18690SOL     OW60916   6.992   1.777   5.595 -0.7129 -0.1560  0.4615
18690SOL    HW160917   7.042   1.832   5.655 -0.7321 -1.3777  1.6088
18690SOL    HW260918   7.021   1.688   5.613 -3.9658 -1.0176  1.8867
18691SOL     OW60919   7.535   1.912   7.464 -0.0166 -0.1145 -0.0070
18691SOL    HW160920   7.593   1.862   7.406 -0.4933 -0.3756 -0.2545
18691SOL    HW260921   7.592   1.979   7.501  0.6149 -0.8185  0.3064
18692SOL     OW60922   6.980   1.939   6.937  0.9184  0.3661  0.0752
18692SOL    HW160923   7.043   1.948   6.865  2.8367 -1.6453  1.4206
18692SOL    HW260924   6.925   1.865   6.912  0.7527  0.5008  0.0484
18693SOL     OW60925   5.954   1.683   8.837  0.6203  0.1326  0.2401
18693SOL    HW160926   6.021   1.647   8.778 -0.1291  0.9198 -1.1144
18693SOL    HW260927   5.956   1.625   8.913  2.2618 -0.3461 -0.1434
18694SOL     OW60928   6.545   2.885   6.309  0.2019  0.4424 -0.2007
18694SOL    HW160929   6.603   2.949   6.351 -1.6562  1.9057  0.1808
18694SOL    HW260930   6.458   2.905   6.343 -1.0170  0.2341 -3.0120
18695SOL     OW60931   6.611   3.605   6.628  0.0759  0.1850 -0.2827
18695SOL    HW160932   6.676   3.568   6.569  1.9130  0.9213  1.2277
18695SOL    HW260933   6.579   3.531   6.679 -0.9493 -0.3217 -1.6119
18696SOL     OW60934   7.578   4.051   7.978  0.3094  0.0874  0.1889
18696SOL    HW160935   7.639   4.010   8.039  0.2541 -1.5025 -0.7997
18696SOL    HW260936   7.629   4.064   7.898 -0.5316 -0.8885 -0.5128
18697SOL     OW60937   6.658   3.848   3.352 -0.7742 -0.3501  0.1478
18697SOL    HW160938   6.657   3.759   3.387  2.8077 -0.0996  1.1221
18697SOL    HW260939   6.588   3.893   3.399  0.5144 -1.4497  3.2913
18698SOL     OW60940   7.254   2.365   6.125 -0.1360  0.2337  0.0236
18698SOL    HW160941   7.193   2.435   6.100  0.7047  1.1024  0.3757
18698SOL    HW260942   7.339   2.408   6.133  0.2307 -0.6567  1.1156
18699SOL     OW60943   8.691   1.528   5.335 -0.1780 -0.1985  0.3303
18699SOL    HW160944   8.656   1.458   5.279 -0.5459 -1.4071  2.0226
18699SOL    HW260945   8.614   1.576   5.365  0.0059  0.3256 -0.0298
18700SOL     OW60946   7.347   2.713   6.174 -0.5820  0.1439 -0.0514
18700SOL    HW160947   7.408   2.691   6.104 -1.2210  1.6207 -1.1009
18700SOL    HW260948   7.272   2.752   6.129 -0.1342  3.0293  1.5779
18701SOL     OW60949   6.087   1.669   5.821 -0.3744  0.1990 -0.3117
18701SOL    HW160950   6.044   1.680   5.905 -0.9105 -0.4057 -0.4997
18701SOL    HW260951   6.158   1.608   5.838 -0.6336 -0.1146 -0.3438
18702SOL     OW60952   7.558   2.579   3.279 -0.1536 -0.6135 -0.0352
18702SOL    HW160953   7.522   2.519   3.344  0.3467  2.1851  2.9405
18702SOL    HW260954   7.507   2.659   3.289  2.1210  0.9679 -0.7690
18703SOL     OW60955   6.574   1.712   6.538 -0.0995 -0.3531  0.2706
18703SOL    HW160956   6.515   1.639   6.518 -0.8945  0.2065  0.5969
18703SOL    HW260957   6.583   1.759   6.455 -1.7983  0.7918  0.7074
18704SOL     OW60958   6.015   1.910   7.005  0.4845  0.2321  0.1668
18704SOL    HW160959   6.072   1.874   7.073  1.4231 -0.5156 -1.0099
18704SOL    HW260960   6.075   1.945   6.939 -0.3855 -1.3344 -1.4976
18705SOL     OW60961   5.450   2.468   7.158  0.1212 -0.3867 -0.0845
18705SOL    HW160962   5.387   2.537   7.138  0.0610 -0.9531 -2.0241
18705SOL    HW260963   5.424   2.395   7.101  3.1301 -0.2659 -1.7549
18706SOL     OW60964   5.971   2.032   7.585 -0.5288 -0.0507 -0.5859
18706SOL    HW160965   5.915   1.977   7.639 -0.0642  1.1502  1.1660
18706SOL    HW260966   5.915   2.104   7.556 -0.4109  0.0858 -0.4805
18707SOL     OW60967   8.627   1.249   6.957  0.0974 -0.2745  0.2245
18707SOL    HW160968   8.721   1.244   6.940  0.0852  2.1465 -0.7022
18707SOL    HW260969   8.586   1.225   6.874 -0.0460  1.9133 -0.3671
18708SOL     OW60970   7.370   2.103   6.201 -0.1437  0.5412 -0.2525
18708SOL    HW160971   7.344   2.183   6.156  0.4624  0.9564  0.1234
18708SOL    HW260972   7.288   2.056   6.215 -0.4021  0.7122 -1.2073
18709SOL     OW60973   6.492   1.569   7.689 -0.6063 -0.4535  0.0289
18709SOL    HW160974   6.525   1.530   7.770 -0.0030  0.0383  0.0200
18709SOL    HW260975   6.511   1.504   7.622  0.3533 -0.1593  0.0195
18710SOL     OW60976   6.830   2.552   6.745  0.1750  0.0437  0.2233
18710SOL    HW160977   6.834   2.490   6.672 -1.1492  0.3995 -0.1667
18710SOL    HW260978   6.834   2.638   6.703  0.3302  0.2335  0.6328
18711SOL     OW60979   8.083   4.805   5.644 -0.6228 -0.1523 -0.1565
18711SOL    HW160980   8.148   4.864   5.681 -0.7992 -0.6773  0.9958
18711SOL    HW260981   8.116   4.785   5.556 -0.6154  1.7249 -0.6072
18712SOL     OW60982   9.468   3.212   8.348 -0.3804  0.4652  0.1711
18712SOL    HW160983   9.496   3.289   8.298  0.9972 -0.6238 -0.7741
18712SOL    HW260984   9.533   3.145   8.328 -0.6458 -0.4559  2.2906
18713SOL     OW60985   7.295   1.334   5.775 -0.1198 -0.8352  0.0336
18713SOL    HW160986   7.312   1.340   5.681  0.0960 -0.1169  0.1117
18713SOL    HW260987   7.201   1.349   5.784  0.2478  1.6437  0.1333
18714SOL     OW60988   6.192   2.067   5.911  0.6740 -0.3271 -0.0717
18714SOL    HW160989   6.234   2.022   5.838  0.1497 -0.8820 -0.0264
18714SOL    HW260990   6.128   2.005   5.945 -1.4015  1.1368 -1.2192
18715SOL     OW60991   7.498   4.509   8.163  0.1211  0.2174 -0.4923
18715SOL    HW160992   7.538   4.433   8.206  0.7775  2.0419  2.1939
18715SOL    HW260993   7.573   4.561   8.133 -0.3177  0.8089 -0.5582
18716SOL     OW60994   6.840   2.074   5.735  0.3982  0.1137 -0.0095
18716SOL    HW160995   6.759   2.023   5.730  0.4532 -0.0011  0.2958
18716SOL    HW260996   6.860   2.079   5.829  0.3458  0.7610 -0.0263
18717SOL     OW60997   7.969   3.973   8.277  0.7298 -0.3150  0.3549
18717SOL    HW160998   8.036   3.905   8.288 -0.6662 -1.6746  0.5026
18717SOL    HW260999   7.924   3.976   8.361 -1.5056 -1.6871 -0.7463
18718SOL     OW61000   6.717   2.185   6.644 -0.4759  0.1529 -0.1879
18718SOL    HW161001   6.734   2.246   6.572  0.3754  1.2928  0.9449
18718SOL    HW261002   6.798   2.134   6.651 -1.1231 -0.9967 -1.0206
18719SOL     OW61003   5.944   2.940   5.942 -0.3277  0.4690 -0.5394
18719SOL    HW161004   5.867   2.980   5.983 -0.6100 -0.7060  0.1035
18719SOL    HW261005   6.004   2.923   6.015  0.2050  0.6458 -0.9342
18720SOL     OW61006   5.936   2.399   8.398 -0.0173  0.6779  0.3167
18720SOL    HW161007   5.908   2.327   8.341  0.8546  1.3826 -1.0311
18720SOL    HW261008   5.871   2.467   8.384  0.3545  0.9575 -0.0465
18721SOL     OW61009   7.534   2.257   7.709  0.3925 -0.1957  0.2544
18721SOL    HW161010   7.534   2.321   7.638 -0.9868  1.2241  1.4764
18721SOL    HW261011   7.588   2.297   7.777 -0.0137 -0.5732  0.8064
18722SOL     OW61012   5.514   1.668   2.508  0.6958 -0.4380  0.9379
18722SOL    HW161013   5.429   1.701   2.479  1.4835  1.1747  0.4240
18722SOL    HW261014   5.575   1.739   2.491  2.5569 -2.3759 -0.8041
18723SOL     OW61015   5.997   2.206   5.363 -0.0026  0.3160 -0.0971
18723SOL    HW161016   5.928   2.270   5.379  1.4398  2.0231 -0.5609
18723SOL    HW261017   5.996   2.150   5.441 -1.7426  0.4366 -0.0058
18724SOL     OW61018   7.901   2.252   8.188 -0.4086 -0.0109  0.4728
18724SOL    HW161019   7.976   2.198   8.163  0.1754  0.3569  1.4169
18724SOL    HW261020   7.915   2.272   8.281  0.5525  3.6067 -0.3811
18725SOL     OW61021   6.320   2.455   8.347 -0.3333 -0.6663 -0.5569
18725SOL    HW161022   6.367   2.372   8.340 -0.5489 -0.7547 -0.9649
18725SOL    HW261023   6.266   2.445   8.425 -0.7861 -1.1277 -0.9306
18726SOL     OW61024   6.040   1.310   6.051 -0.0347 -0.1306 -0.5213
18726SOL    HW161025   5.996   1.251   6.112 -1.6640  2.5377  0.9735
18726SOL    HW261026   6.067   1.385   6.104  1.0918  0.9500 -2.5495
18727SOL     OW61027   7.193   0.420   7.950 -0.3150 -0.5008  0.0908
18727SOL    HW161028   7.258   0.453   8.011 -0.4086 -0.6845  0.2918
18727SOL    HW261029   7.199   0.324   7.958 -0.5079 -0.5209  0.0033
18728SOL     OW61030   7.560   2.908   6.206  0.3477 -0.1620  0.0283
18728SOL    HW161031   7.582   2.924   6.114 -0.2702 -0.0008 -0.0924
18728SOL    HW261032   7.494   2.838   6.203  2.8707 -2.6851  0.5336
18729SOL     OW61033   7.677   4.790   7.306 -0.4415 -0.4228 -0.2565
18729SOL    HW161034   7.699   4.819   7.394 -0.2578  0.3015 -0.5355
18729SOL    HW261035   7.697   4.865   7.250 -0.6603 -0.8361 -0.9011
18730SOL     OW61036   6.037   3.029   6.322 -0.0322  0.5639  0.3594
18730SOL    HW161037   6.047   3.022   6.417  1.7386  1.6962  0.2788
18730SOL    HW261038   5.943   3.026   6.307 -0.3062 -0.1545  2.0998
18731SOL     OW61039   5.157   2.791   5.139  0.0765 -0.1623 -0.1430
18731SOL    HW161040   5.153   2.719   5.203  2.4690 -0.3074 -0.1138
18731SOL    HW261041   5.250   2.804   5.124 -0.4337  0.3321 -3.1283
18732SOL     OW61042   7.462   2.137   8.410  0.0219  0.1939  0.0860
18732SOL    HW161043   7.461   2.184   8.327  2.1458  0.3431  0.1243
18732SOL    HW261044   7.423   2.052   8.390 -0.3929  0.5941 -0.8151
18733SOL     OW61045   7.442   2.821   6.496  0.4271 -0.2069 -0.2315
18733SOL    HW161046   7.433   2.842   6.589 -1.2210 -1.2582 -0.1220
18733SOL    HW261047   7.436   2.905   6.451  0.7359  0.2555  0.5789
18734SOL     OW61048   4.763   3.147   5.780 -0.2540  0.2896 -1.2283
18734SOL    HW161049   4.851   3.126   5.811 -1.1668 -1.5315  0.2465
18734SOL    HW261050   4.762   3.242   5.771  2.0624  0.2648 -1.8933
18735SOL     OW61051   5.873   1.071   7.771 -0.2774 -0.6051 -0.4028
18735SOL    HW161052   5.814   1.131   7.725 -0.7336 -0.3100  0.5437
18735SOL    HW261053   5.878   0.994   7.714 -2.1044 -0.8997 -0.2156
18736SOL     OW61054   6.783   3.306   8.573 -0.2383  0.4982 -0.0242
18736SOL    HW161055   6.740   3.234   8.619 -2.5373  0.5332 -2.0012
18736SOL    HW261056   6.874   3.277   8.562 -0.6237 -1.1755  1.0442
18737SOL     OW61057   7.319   2.096   5.911  0.5124 -0.3296 -0.3355
18737SOL    HW161058   7.315   2.014   5.961  2.1645  0.5856  1.3881
18737SOL    HW261059   7.233   2.136   5.923  1.3780  0.6439  3.2187
18738SOL     OW61060   6.420   1.383   6.955  0.0255 -0.0840  0.0135
18738SOL    HW161061   6.444   1.320   7.024  1.2852  0.6056  0.2201
18738SOL    HW261062   6.389   1.329   6.883  1.0708 -0.9447  0.2007
18739SOL     OW61063   5.354   2.662   3.092 -0.4942 -0.1348  0.2210
18739SOL    HW161064   5.337   2.724   3.163  0.7624 -0.6491  0.9845
18739SOL    HW261065   5.442   2.628   3.109 -1.1331 -2.1055 -0.2075
18740SOL     OW61066   7.390   2.180   6.968 -0.2388  0.6432 -0.1391
18740SOL    HW161067   7.307   2.168   6.923 -0.6897 -0.1104  0.8490
18740SOL    HW261068   7.456   2.178   6.899 -0.9436 -0.0994 -0.8011
18741SOL     OW61069   6.676   3.964   7.750  0.1326 -0.4016 -0.2207
18741SOL    HW161070   6.765   3.986   7.722  0.0378 -0.2935 -0.4357
18741SOL    HW261071   6.642   3.909   7.679 -0.3334  0.3959 -0.6252
18742SOL     OW61072   6.503   1.954   6.373 -0.1293  0.1481 -0.4172
18742SOL    HW161073   6.539   2.039   6.347  0.6826 -0.2732 -0.7043
18742SOL    HW261074   6.503   1.956   6.469 -3.8831  2.0239 -0.3652
18743SOL     OW61075   8.209   1.658   6.238 -0.4619  0.6059 -0.1144
18743SOL    HW161076   8.235   1.741   6.199 -0.6665  0.3685 -0.7721
18743SOL    HW261077   8.246   1.592   6.180 -2.1084  0.2558 -0.7934
18744SOL     OW61078   6.843   2.493   5.036  0.3139 -0.4208 -0.0662
18744SOL    HW161079   6.766   2.435   5.030 -0.4314  0.2817  2.1244
18744SOL    HW261080   6.917   2.433   5.046 -0.2389 -1.0692  0.2260
18745SOL     OW61081   7.484   3.667   8.130 -0.0571 -0.4912 -0.4654
18745SOL    HW161082   7.428   3.620   8.068 -1.1440  0.9818 -0.6215
18745SOL    HW261083   7.526   3.598   8.181  0.2449 -1.7154 -2.3046
18746SOL     OW61084   7.939   2.596   7.695  0.2079 -0.6311  0.1529
18746SOL    HW161085   8.006   2.646   7.741 -0.7285 -0.7195  1.6857
18746SOL    HW261086   7.964   2.504   7.709  0.2340 -0.6480 -0.0042
18747SOL     OW61087   7.331   2.537   9.033 -0.0945 -0.0050 -0.2014
18747SOL    HW161088   7.376   2.530   9.117  0.9601 -0.8616 -0.8018
18747SOL    HW261089   7.254   2.481   9.042  0.0272 -0.1102  0.1963
18748SOL     OW61090   7.200   0.919   5.505 -0.0938 -0.4201 -0.3860
18748SOL    HW161091   7.216   0.911   5.411  2.0344 -2.6744  0.1256
18748SOL    HW261092   7.107   0.900   5.516 -0.2265 -0.7028 -1.9618
18749SOL     OW61093   6.730   1.376   5.449 -0.1356 -0.0625  0.1071
18749SOL    HW161094   6.753   1.299   5.397  0.1286  0.2929 -0.3076
18749SOL    HW261095   6.782   1.367   5.529  1.1742  0.5187 -0.6447
18750SOL     OW61096   7.423   3.263   6.822 -0.1122 -0.6940  0.5660
18750SOL    HW161097   7.420   3.222   6.735 -0.6452  1.1805 -0.3374
18750SOL    HW261098   7.376   3.203   6.879 -0.9519 -1.3002 -0.7441
18751SOL     OW61099   7.050   1.318   6.170 -0.0796 -0.1747  0.1963
18751SOL    HW161100   7.099   1.246   6.132  1.1631  1.0774 -0.6407
18751SOL    HW261101   6.992   1.278   6.234  0.9741 -1.8316  0.1157
18752SOL     OW61102   5.191   2.153   6.396 -0.0247 -0.3589 -0.1349
18752SOL    HW161103   5.267   2.210   6.408 -0.1079 -0.6784  2.0729
18752SOL    HW261104   5.221   2.086   6.335  1.0612  0.2619 -0.3001
18753SOL     OW61105   8.373   2.136   8.034 -0.3129  0.0197  0.3316
18753SOL    HW161106   8.356   2.159   7.943  0.4005 -1.2389 -0.1288
18753SOL    HW261107   8.316   2.060   8.050 -1.4272  1.0518  1.3323
18754SOL     OW61108   7.429   1.736   7.631 -0.0816 -0.0007  0.4269
18754SOL    HW161109   7.469   1.803   7.687 -3.5697  0.7847  2.0923
18754SOL    HW261110   7.465   1.754   7.543  1.6609  1.8663  1.4691
18755SOL     OW61111   6.474   3.082   6.062 -0.3636  0.5574  0.4570
18755SOL    HW161112   6.397   3.027   6.076 -0.6814  1.1716  1.1325
18755SOL    HW261113   6.544   3.037   6.109 -0.3241  0.0374 -0.0957
18756SOL     OW61114   7.514   3.243   4.706  0.2683 -0.0812  0.1266
18756SOL    HW161115   7.608   3.253   4.717  0.1064  2.5933 -0.5818
18756SOL    HW261116   7.476   3.292   4.780 -0.5837 -1.0854  0.3745
18757SOL     OW61117   7.735   4.673   8.103 -0.1648 -0.2294  0.6280
18757SOL    HW161118   7.735   4.639   8.013 -0.0345  0.1512  0.4818
18757SOL    HW261119   7.825   4.660   8.132 -0.2811 -0.6254  0.8059
18758SOL     OW61120   6.794   1.445   6.685 -0.1290  0.2939 -0.0705
18758SOL    HW161121   6.882   1.431   6.721 -0.5083  0.0856  0.7885
18758SOL    HW261122   6.736   1.398   6.745 -0.6643 -1.1343 -1.6673
18759SOL     OW61123   5.803   2.706   7.573 -0.2280  0.2708 -0.0577
18759SOL    HW161124   5.772   2.781   7.622 -0.0084  1.0499 -1.1012
18759SOL    HW261125   5.724   2.663   7.541 -0.3266  0.5486 -0.1840
18760SOL     OW61126   6.892   1.723   6.547 -0.1568  0.3321 -0.1323
18760SOL    HW161127   6.956   1.769   6.603  0.5666 -1.3329  0.4251
18760SOL    HW261128   6.918   1.746   6.458 -0.9304  2.4897  0.1539
18761SOL     OW61129   7.514   1.457   8.705 -0.0680  1.0935  0.3945
18761SOL    HW161130   7.465   1.539   8.705 -2.6130 -0.3926 -0.1329
18761SOL    HW261131   7.484   1.410   8.783 -1.7727 -1.1067 -1.5107
18762SOL     OW61132   6.319   3.535   7.159  0.0909  0.4692 -0.4235
18762SOL    HW161133   6.351   3.604   7.101  0.0018 -0.0115 -1.0434
18762SOL    HW261134   6.344   3.564   7.247  1.7001  0.3807 -0.8462
18763SOL     OW61135   7.180   1.524   6.317  0.4062  0.2062 -0.0340
18763SOL    HW161136   7.132   1.607   6.323  0.4255  0.1949  0.3005
18763SOL    HW261137   7.122   1.466   6.268  0.4408  0.4525 -0.3650
18764SOL     OW61138   6.157   2.367   8.591 -0.0536 -0.3904 -0.1589
18764SOL    HW161139   6.136   2.419   8.669  0.6237 -0.6750  0.2141
18764SOL    HW261140   6.074   2.361   8.544  0.2735  2.8001 -1.2876
18765SOL     OW61141   5.153   1.979   7.395 -0.2644  0.1954 -0.3106
18765SOL    HW161142   5.213   2.018   7.331  0.7226 -1.8880 -0.6922
18765SOL    HW261143   5.066   1.988   7.355  0.3315 -0.9585 -1.9168
18766SOL     OW61144   7.099   3.489   8.339  0.3346 -0.8021  1.5337
18766SOL    HW161145   7.048   3.548   8.283  1.0179 -0.6687  1.0398
18766SOL    HW261146   7.173   3.541   8.369  0.6496 -1.2443  1.5408
18767SOL     OW61147   6.085   2.960   8.070 -0.2110 -0.0735  0.2005
18767SOL    HW161148   6.079   3.053   8.047  1.1250  0.5146  2.1087
18767SOL    HW261149   6.064   2.957   8.163  1.9117 -1.3657  0.6854
18768SOL     OW61150   7.995   3.661   6.144 -0.4180 -0.1324  0.1314
18768SOL    HW161151   8.031   3.582   6.103  0.4975  1.1182 -1.5130
18768SOL    HW261152   7.900   3.648   6.139 -0.2903 -0.7492 -0.8819
18769SOL     OW61153   7.017   3.915   5.839 -0.7178 -0.7655 -0.4728
18769SOL    HW161154   7.072   3.854   5.789  0.9508 -1.1726  1.7375
18769SOL    HW261155   7.075   3.989   5.858 -1.1387 -0.8401  1.2123
18770SOL     OW61156   8.172   2.815   6.856  0.3591 -0.0368  0.3703
18770SOL    HW161157   8.267   2.825   6.856  0.4285  0.0448 -3.3765
18770SOL    HW261158   8.155   2.740   6.799 -1.9257  2.1230 -1.9602
18771SOL     OW61159   8.663   2.419   7.117 -0.1975  0.5041 -0.3941
18771SOL    HW161160   8.719   2.367   7.059  1.0320  1.2992  0.0467
18771SOL    HW261161   8.683   2.510   7.094  0.0921  0.8242  1.0489
18772SOL     OW61162   5.267   3.223   7.707  0.5335 -0.1466  0.4734
18772SOL    HW161163   5.206   3.295   7.721 -0.9838 -1.3328  0.1964
18772SOL    HW261164   5.262   3.171   7.787  0.6422 -0.6442  0.1604
18773SOL     OW61165   7.933   2.141   5.682 -0.2993 -0.2164  0.2158
18773SOL    HW161166   7.908   2.050   5.696  0.7367 -0.2159  2.2192
18773SOL    HW261167   8.013   2.153   5.733  1.2634  1.0316 -2.3811
18774SOL     OW61168   7.154   2.972   4.903 -0.5362  0.6123 -0.3404
18774SOL    HW161169   7.070   2.997   4.942 -1.3895  0.7521 -2.1903
18774SOL    HW261170   7.158   3.022   4.821  0.4364 -0.9137 -1.2485
18775SOL     OW61171   7.399   2.598   8.736  0.2407 -0.1742 -0.5948
18775SOL    HW161172   7.394   2.584   8.831 -0.0936 -0.8938 -0.7190
18775SOL    HW261173   7.457   2.530   8.704  0.2420 -0.0180 -0.9266
18776SOL     OW61174   8.977   2.965   5.558 -0.1786  0.1963 -0.5051
18776SOL    HW161175   9.069   2.994   5.562 -0.2911  0.5473 -0.4706
18776SOL    HW261176   8.976   2.899   5.488  0.2171 -0.2379 -0.1067
18777SOL     OW61177   7.221   2.602   6.420  0.2423  0.2343 -0.1792
18777SOL    HW161178   7.196   2.601   6.512  0.5071 -0.7501 -0.1142
18777SOL    HW261179   7.158   2.660   6.378  0.4542  1.1105  0.7153
18778SOL     OW61180   5.728   2.415   6.269 -0.4573  0.2144 -0.2842
18778SOL    HW161181   5.707   2.368   6.350 -1.4149  0.9263 -0.1070
18778SOL    HW261182   5.805   2.369   6.234 -0.3336 -0.4093  0.7656
18779SOL     OW61183   6.468   1.368   9.020  0.3028  0.4933  0.2369
18779SOL    HW161184   6.528   1.294   9.021  1.2240  1.2334 -0.3001
18779SOL    HW261185   6.402   1.344   8.955 -0.1488 -0.4388  1.0226
18780SOL     OW61186   6.888   2.257   4.563 -0.3658 -0.5635  0.4006
18780SOL    HW161187   6.910   2.202   4.638 -0.9585  0.3926  1.2937
18780SOL    HW261188   6.831   2.325   4.599 -0.3866  0.1017 -0.8531
18781SOL     OW61189   6.874   4.192   5.800  0.1096 -0.3939  0.0174
18781SOL    HW161190   6.854   4.251   5.727  1.2676  0.5848  0.4636
18781SOL    HW261191   6.956   4.150   5.775  1.1842  0.8912  1.2927
18782SOL     OW61192   8.604   1.425   4.520  0.4591 -0.0288  0.0253
18782SOL    HW161193   8.516   1.397   4.494  0.1651  0.8976 -0.0127
18782SOL    HW261194   8.619   1.506   4.471  1.7098 -0.6770 -0.6588
18783SOL     OW61195   6.625   4.962   7.991 -0.1436 -0.0778 -0.0086
18783SOL    HW161196   6.613   4.987   8.082  0.2475  0.0372  0.0129
18783SOL    HW261197   6.607   5.042   7.942 -2.9923 -0.7814 -0.2200
18784SOL     OW61198   7.874   3.770   2.938  0.6510 -0.1791  0.2220
18784SOL    HW161199   7.863   3.782   2.844  0.2873  0.0967  0.2989
18784SOL    HW261200   7.809   3.704   2.962 -0.6038  1.1505  0.6039
18785SOL     OW61201   7.097   4.578   7.906 -0.3529  0.1040 -0.5281
18785SOL    HW161202   7.065   4.491   7.883 -1.5442  0.8975 -1.9701
18785SOL    HW261203   7.020   4.635   7.898  0.1858  1.1569  1.2749
18786SOL     OW61204   8.951   1.955   7.120 -0.0496 -0.6145 -0.5694
18786SOL    HW161205   8.929   1.903   7.043  0.9379  0.1391 -1.3804
18786SOL    HW261206   8.900   1.917   7.191 -0.6334 -1.5946 -1.5111
18787SOL     OW61207   6.288   1.878   5.734 -0.3206  0.4830  0.1579
18787SOL    HW161208   6.249   1.799   5.772  2.6733  0.0270  2.4683
18787SOL    HW261209   6.289   1.860   5.640 -1.7198 -1.2682  0.4435
18788SOL     OW61210   6.191   1.962   7.848  0.4621  0.0897 -0.2038
18788SOL    HW161211   6.186   1.867   7.837 -1.5760  0.3365 -1.5693
18788SOL    HW261212   6.151   1.978   7.933  0.6243 -0.2466 -0.0618
18789SOL     OW61213   6.922   3.729   7.302 -0.0768  0.1933 -0.7215
18789SOL    HW161214   7.001   3.708   7.253  0.2128  0.8823 -0.5557
18789SOL    HW261215   6.871   3.648   7.300  1.2549 -0.6895  0.3739
18790SOL     OW61216   8.798   3.371   6.757 -0.3486  1.0844  0.1098
18790SOL    HW161217   8.891   3.389   6.763 -0.1856  0.0745  0.7718
18790SOL    HW261218   8.759   3.454   6.730  0.9685  0.9041 -2.4131
18791SOL     OW61219   6.962   3.581   2.681 -0.1561  0.9124  0.9597
18791SOL    HW161220   6.950   3.505   2.624  1.4072 -0.1719  2.0355
18791SOL    HW261221   6.990   3.651   2.621 -1.5640  0.6465 -0.0217
18792SOL     OW61222   5.723   2.010   8.323 -0.0206 -0.1870  0.5568
18792SOL    HW161223   5.782   2.063   8.269 -1.5252 -1.0506 -2.0404
18792SOL    HW261224   5.735   1.921   8.291 -1.7720 -0.5595  0.8732
18793SOL     OW61225   7.152   2.613   6.685 -0.1654 -0.4873  0.6248
18793SOL    HW161226   7.087   2.639   6.750  0.1727  1.8000  0.0885
18793SOL    HW261227   7.230   2.663   6.708 -0.4648  1.4680 -2.3659
18794SOL     OW61228   5.542   2.141   4.455  0.4532 -0.2770  0.0710
18794SOL    HW161229   5.458   2.141   4.409  1.7809  0.4354 -2.4351
18794SOL    HW261230   5.597   2.081   4.404  1.5245 -0.6381  1.6087
18795SOL     OW61231   7.462   1.776   8.667 -0.0272 -0.2149 -0.5228
18795SOL    HW161232   7.398   1.749   8.600 -0.3461  1.6444 -1.0026
18795SOL    HW261233   7.477   1.869   8.649  0.4611  0.1203  1.5358
18796SOL     OW61234   4.632   1.545   5.512  0.0161  0.0494  0.2850
18796SOL    HW161235   4.643   1.601   5.588  2.8265  2.1783 -1.5648
18796SOL    HW261236   4.719   1.507   5.497 -1.2734 -3.0152  0.0950
18797SOL     OW61237   4.256   4.452   3.700 -0.3478  0.0041 -0.3488
18797SOL    HW161238   4.161   4.439   3.704 -0.0285 -2.5313 -0.3822
18797SOL    HW261239   4.289   4.418   3.783  0.3466  3.0556  0.7035
18798SOL     OW61240   7.223   1.293   7.813  0.0333  0.6462  0.4013
18798SOL    HW161241   7.178   1.331   7.737  2.5942  2.7097 -0.1745
18798SOL    HW261242   7.214   1.198   7.801 -2.9794  0.9720 -0.3520
18799SOL     OW61243   7.949   3.981   7.768  0.4272  0.2790 -0.3583
18799SOL    HW161244   8.043   3.973   7.755  0.0991 -3.5486 -1.0766
18799SOL    HW261245   7.939   4.043   7.840  3.5353  0.0846  0.2897
18800SOL     OW61246   6.941   1.706   8.888  0.4278 -0.0054 -0.6408
18800SOL    HW161247   6.997   1.634   8.860 -0.5101 -1.5781  1.3836
18800SOL    HW261248   6.852   1.672   8.879  0.0345  0.3021  1.7936
18801SOL     OW61249   8.585   3.533   7.948 -0.5136  0.2731  0.0545
18801SOL    HW161250   8.644   3.562   8.018 -1.9072 -1.1516  1.8655
18801SOL    HW261251   8.641   3.480   7.890  0.0969 -0.7617  1.5583
18802SOL     OW61252   5.777   2.964   6.617 -0.3697 -0.4615 -0.8823
18802SOL    HW161253   5.870   2.983   6.620 -0.5177 -0.0231  2.1218
18802SOL    HW261254   5.772   2.868   6.612  0.2378 -0.5448  0.0134
18803SOL     OW61255   6.520   1.513   5.125 -0.2199 -0.0218 -0.4039
18803SOL    HW161256   6.606   1.472   5.113  0.0442  0.4937 -0.2688
18803SOL    HW261257   6.463   1.441   5.150  0.4513 -0.1504  0.7751
18804SOL     OW61258   7.317   3.812   5.062 -0.0287 -0.2662 -0.5077
18804SOL    HW161259   7.363   3.805   5.146  0.3643  2.8636 -0.4148
18804SOL    HW261260   7.233   3.852   5.084  0.9047  2.5247 -1.8233
18805SOL     OW61261   6.271   3.471   8.016 -0.5370 -0.0710 -0.0398
18805SOL    HW161262   6.263   3.407   7.945  1.3026 -0.4702  0.0940
18805SOL    HW261263   6.350   3.521   7.994 -0.2134  0.0982  1.4938
18806SOL     OW61264   7.940   2.524   8.174  0.2365  0.4185  0.3085
18806SOL    HW161265   7.917   2.440   8.133 -0.1383  1.2052 -1.1156
18806SOL    HW261266   8.030   2.541   8.146 -0.6916  1.9332 -1.8930
18807SOL     OW61267   7.346   3.853   6.172 -0.9980  0.0047 -0.2937
18807SOL    HW161268   7.374   3.926   6.117  0.5169  1.1107  1.8892
18807SOL    HW261269   7.390   3.777   6.134 -0.9244  0.5404 -1.3150
18808SOL     OW61270   5.922   1.732   5.613 -0.4098  0.1722  0.0048
18808SOL    HW161271   5.925   1.643   5.577 -0.0595  0.2939 -0.2687
18808SOL    HW261272   5.962   1.723   5.700 -1.2585 -0.1200  0.3691
18809SOL     OW61273   7.609   2.902   5.314  0.7074 -0.8368 -0.3751
18809SOL    HW161274   7.642   2.857   5.392 -0.2204  0.4599  0.8051
18809SOL    HW261275   7.683   2.903   5.254  1.8155 -0.8348  0.9544
18810SOL     OW61276   5.591   2.561   3.146  0.5880  0.3003 -0.6585
18810SOL    HW161277   5.560   2.488   3.199  1.8593 -1.0069 -1.6824
18810SOL    HW261278   5.668   2.527   3.100 -0.3554  1.4595 -3.1814
18811SOL     OW61279   6.711   3.498   7.890  0.0580  0.2231  0.5527
18811SOL    HW161280   6.664   3.497   7.807  1.2731 -1.0826 -0.1352
18811SOL    HW261281   6.791   3.448   7.873  0.3589  0.0147  2.4784
18812SOL     OW61282   6.170   2.506   7.679 -0.7581  0.3307 -0.0761
18812SOL    HW161283   6.081   2.471   7.670 -1.2742  1.8303 -0.9463
18812SOL    HW261284   6.193   2.536   7.591  0.9060 -0.6947 -0.0240
18813SOL     OW61285   5.823   2.628   6.832 -0.3492 -0.4307 -0.5817
18813SOL    HW161286   5.881   2.577   6.775 -0.6313  0.6232 -1.8382
18813SOL    HW261287   5.784   2.564   6.890 -0.4715 -1.6162 -1.9508
18814SOL     OW61288   5.288   2.648   7.496 -0.4902  0.4984 -0.6889
18814SOL    HW161289   5.246   2.568   7.464  1.0990  0.4644 -2.8195
18814SOL    HW261290   5.246   2.719   7.446 -1.4762  0.9532  0.7621
18815SOL     OW61291   8.450   0.723   5.146  0.2812 -0.5940 -0.3485
18815SOL    HW161292   8.437   0.817   5.154  1.7986 -0.4990  1.1942
18815SOL    HW261293   8.365   0.685   5.167 -0.7084  0.4446 -2.2578
18816SOL     OW61294   6.535   2.595   7.512 -0.2598  0.2331 -0.0050
18816SOL    HW161295   6.590   2.559   7.442 -0.4898 -1.0518  0.4633
18816SOL    HW261296   6.490   2.519   7.548 -0.4353  0.9422  1.2866
18817SOL     OW61297   8.036   4.247   8.249 -0.0497 -0.1780  0.1531
18817SOL    HW161298   8.009   4.159   8.224 -0.5257 -0.2727  0.9872
18817SOL    HW261299   8.067   4.287   8.167 -0.3516 -0.9285 -0.3281
18818SOL     OW61300   6.056   1.121   7.486 -0.1776  0.5046 -0.4303
18818SOL    HW161301   6.052   1.056   7.556  0.4509  0.1186 -0.7511
18818SOL    HW261302   6.080   1.202   7.531 -2.3379  0.8319  0.1707
18819SOL     OW61303   7.738   3.569   5.056 -0.5379  0.0589  0.4505
18819SOL    HW161304   7.814   3.534   5.009  0.5300  0.8500  1.5527
18819SOL    HW261305   7.756   3.663   5.064 -2.1324  0.4353 -0.1906
18820SOL     OW61306   6.492   1.488   5.486 -0.1862 -0.0263  0.4410
18820SOL    HW161307   6.574   1.445   5.461 -1.3902 -1.7468 -0.6042
18820SOL    HW261308   6.433   1.416   5.508 -1.7326  1.1730  0.2682
18821SOL     OW61309   6.979   4.150   6.950 -0.2104  0.2545  0.1764
18821SOL    HW161310   6.986   4.091   7.026  0.1459  0.4882  0.3256
18821SOL    HW261311   6.985   4.092   6.874  0.6450  0.1523  0.3182
18822SOL     OW61312   4.653   2.293   4.957 -0.2634 -0.5223  0.4022
18822SOL    HW161313   4.689   2.343   5.030  0.8676  1.2028 -1.3039
18822SOL    HW261314   4.728   2.245   4.922 -0.3252  0.3614 -0.9749
18823SOL     OW61315   7.532   2.244   5.285  0.1772  0.1458 -0.1833
18823SOL    HW161316   7.549   2.209   5.198 -1.6112  2.4866 -1.5533
18823SOL    HW261317   7.596   2.202   5.341  1.4596 -1.3203 -2.6582
18824SOL     OW61318   6.146   3.330   7.166  0.2918 -0.4092  0.6174
18824SOL    HW161319   6.194   3.412   7.170 -0.7914  0.4371 -2.3178
18824SOL    HW261320   6.069   3.344   7.222  1.6698 -0.5743  2.5973
18825SOL     OW61321   4.771   3.191   4.468  0.4905 -0.7391 -0.0514
18825SOL    HW161322   4.788   3.132   4.541 -0.2518  0.1106  0.8100
18825SOL    HW261323   4.850   3.243   4.461  0.1635 -0.1137  0.8220
18826SOL     OW61324   8.152   2.962   5.882 -0.0321  0.0576  0.3863
18826SOL    HW161325   8.162   2.868   5.899 -0.1863  0.2280  1.4154
18826SOL    HW261326   8.140   2.967   5.787  1.1116 -0.8697  0.1791
18827SOL     OW61327   8.150   1.898   8.127 -0.0915  0.5667  0.2927
18827SOL    HW161328   8.120   1.818   8.171 -0.0835  0.4134  0.0143
18827SOL    HW261329   8.115   1.969   8.181 -0.4681  0.3814  0.2928
18828SOL     OW61330   3.858   2.872   7.210  0.6400  0.3998  0.1021
18828SOL    HW161331   3.925   2.856   7.143  0.6651 -1.9352  0.6446
18828SOL    HW261332   3.835   2.785   7.242 -0.0944  1.4115  2.4279
18829SOL     OW61333   6.870   2.712   8.386  0.2505  0.0069 -0.0997
18829SOL    HW161334   6.788   2.724   8.338  0.2258 -0.2611 -0.1253
18829SOL    HW261335   6.937   2.705   8.318  0.3803  0.8838 -0.0600
18830SOL     OW61336   3.905   4.421   8.876 -0.1295 -0.4641 -0.4960
18830SOL    HW161337   3.888   4.370   8.797  0.3302  0.1273 -0.9829
18830SOL    HW261338   3.838   4.489   8.876 -0.3328 -0.6599 -0.1950
18831SOL     OW61339   6.479   2.906   7.911  0.2095  0.3277  0.3311
18831SOL    HW161340   6.455   2.934   7.999  0.4996 -0.5320  0.6870
18831SOL    HW261341   6.428   2.826   7.896  1.8067 -0.7634  0.5765
18832SOL     OW61342   4.675   1.678   8.018 -0.0114  0.1334  0.1638
18832SOL    HW161343   4.590   1.720   8.002  0.1881 -0.2092 -2.0155
18832SOL    HW261344   4.680   1.668   8.113 -1.7896  1.4409  0.4193
18833SOL     OW61345   6.960   0.696   7.470  0.4477 -0.4330 -0.6450
18833SOL    HW161346   6.942   0.706   7.377  1.5551  1.3660 -0.6836
18833SOL    HW261347   6.987   0.604   7.480 -0.2528 -0.7868 -1.9886
18834SOL     OW61348   4.638   2.731   8.753  0.2955  0.3294  0.0323
18834SOL    HW161349   4.679   2.817   8.756 -0.2580  0.6426 -1.2242
18834SOL    HW261350   4.671   2.686   8.831  0.2232  1.8323  0.9519
18835SOL     OW61351   5.466   1.943   9.049  0.1772  0.4077  0.0401
18835SOL    HW161352   5.434   1.957   8.959  0.8320  1.9910  0.0315
18835SOL    HW261353   5.491   1.851   9.051 -0.0476  0.2945 -1.3402
18836SOL     OW61354   6.194   2.084   9.997 -0.4232  0.3165 -0.3240
18836SOL    HW161355   6.113   2.130   9.976  0.5446  1.6759 -1.2209
18836SOL    HW261356   6.172   2.030  10.072 -2.5569 -0.4909 -1.4856
18837SOL     OW61357   7.857   2.002   7.839 -0.5748 -0.1321  0.2192
18837SOL    HW161358   7.815   2.037   7.759  0.6708  0.4765 -0.1853
18837SOL    HW261359   7.939   1.964   7.808  0.3275  0.8772  1.3142
18838SOL     OW61360   6.979   4.071   9.962 -0.4211 -0.0110 -0.1820
18838SOL    HW161361   6.929   4.151   9.946 -1.7548 -0.9540 -0.8408
18838SOL    HW261362   7.009   4.080  10.052 -3.3378 -0.2054  0.8765
18839SOL     OW61363   6.586   2.552   9.438 -0.5280  0.5175 -0.0757
18839SOL    HW161364   6.492   2.563   9.418 -0.6522  0.8751  0.6943
18839SOL    HW261365   6.590   2.555   9.533  0.4204  1.7364 -0.1438
18840SOL     OW61366   6.488   1.945   9.434  0.3462 -0.0310 -0.4411
18840SOL    HW161367   6.580   1.972   9.440  0.2594  0.2465 -0.3239
18840SOL    HW261368   6.490   1.861   9.389  0.6549 -0.0034 -0.4789
18841SOL     OW61369   4.766   2.691   9.460  0.0917 -0.1965 -0.1773
18841SOL    HW161370   4.763   2.598   9.437 -2.3006 -0.1823 -0.0853
18841SOL    HW261371   4.854   2.705   9.493  1.0116 -2.0692 -1.7313
18842SOL     OW61372   6.188   4.800   9.312 -0.2034 -0.2784 -0.3683
18842SOL    HW161373   6.155   4.850   9.387 -0.4850  0.1366 -0.7707
18842SOL    HW261374   6.156   4.847   9.235 -0.3968 -1.0302 -0.7473
18843SOL     OW61375   6.945   2.706   5.209  0.2124  0.4916 -0.5883
18843SOL    HW161376   6.896   2.637   5.163 -0.4106  0.6847 -0.2288
18843SOL    HW261377   7.035   2.697   5.178 -0.0590  0.1413 -1.2795
18844SOL     OW61378   4.014   2.705   0.576  0.1669 -0.2798 -0.1201
18844SOL    HW161379   4.102   2.726   0.547  0.0044 -1.1946 -1.3337
18844SOL    HW261380   3.958   2.767   0.530  0.1045 -0.2340  0.0165
18845SOL     OW61381   6.989   3.001   8.227  0.0873  0.1731  0.2637
18845SOL    HW161382   7.016   2.922   8.274  1.2660  1.3207  1.5492
18845SOL    HW261383   7.046   3.070   8.260 -0.1717  1.3566 -1.6692
18846SOL     OW61384   7.905   5.490   9.239  0.3229  0.3903 -0.0149
18846SOL    HW161385   7.977   5.540   9.200  0.8965 -0.3255  0.1223
18846SOL    HW261386   7.829   5.548   9.231  0.3833  0.1931 -2.3576
18847SOL     OW61387   5.964   1.181   9.182 -0.3316 -0.4691 -0.0607
18847SOL    HW161388   6.050   1.143   9.200  0.1247 -0.2549 -1.7250
18847SOL    HW261389   5.945   1.235   9.258 -0.3178 -2.8301  1.6843
18848SOL     OW61390   5.073   1.386   8.060  0.1037  0.1615 -0.0573
18848SOL    HW161391   5.000   1.345   8.107  0.7088 -0.1465  0.6225
18848SOL    HW261392   5.134   1.413   8.129  0.6716  0.3438 -0.6248
18849SOL     OW61393   8.371   3.043   8.771  0.1446 -0.5782 -0.0678
18849SOL    HW161394   8.376   3.136   8.746  0.8323 -0.3030  1.0460
18849SOL    HW261395   8.291   3.011   8.728  0.6903  0.1418 -1.6777
18850SOL     OW61396   7.436   2.616   7.163  0.3960  0.8142  0.2882
18850SOL    HW161397   7.508   2.564   7.197  1.2999  1.8971  0.0570
18850SOL    HW261398   7.455   2.705   7.191 -1.2472  1.0065  0.8729
18851SOL     OW61399   7.154   2.864   8.418 -0.3872  0.1749 -0.3400
18851SOL    HW161400   7.144   2.770   8.434 -0.3301  0.0946 -0.7664
18851SOL    HW261401   7.133   2.905   8.502 -1.0089 -0.1843 -0.3130
18852SOL     OW61402   5.569   0.960   9.870 -0.5420  0.1154  0.3382
18852SOL    HW161403   5.486   0.919   9.848  0.5884 -1.4324 -1.1873
18852SOL    HW261404   5.597   1.002   9.789  1.0749 -1.0333  0.2742
18853SOL     OW61405   5.917   3.064   0.044 -0.0854  0.6296  0.2928
18853SOL    HW161406   5.965   3.125   0.100 -1.0965  1.6862  0.0144
18853SOL    HW261407   5.825   3.079   0.066 -0.3672 -0.5606 -0.0257
18854SOL     OW61408   6.079   2.098   9.655  0.1617 -0.8365 -0.3518
18854SOL    HW161409   6.081   2.185   9.694 -0.5671 -0.9854  0.0143
18854SOL    HW261410   6.153   2.098   9.594  0.3664 -0.0782 -0.1114
18855SOL     OW61411   7.246   2.226   7.816  0.6683 -0.2499 -0.4181
18855SOL    HW161412   7.246   2.322   7.815  2.1661 -0.2393 -0.1561
18855SOL    HW261413   7.191   2.203   7.891 -0.6425  0.3803 -1.1661
18856SOL     OW61414   6.651   2.623   8.842  0.2984  0.2628 -0.4227
18856SOL    HW161415   6.588   2.694   8.853  0.4879  0.3439  0.1260
18856SOL    HW261416   6.618   2.553   8.897  0.4498  0.1437 -0.4833
18857SOL     OW61417   7.528   3.237   8.916 -0.1970  0.3097  0.5189
18857SOL    HW161418   7.573   3.322   8.918 -0.2852  0.3774 -0.1305
18857SOL    HW261419   7.458   3.245   8.980 -0.1627  0.7082  0.5101
18858SOL     OW61420   6.539   2.073   9.692 -0.1688 -0.3270  0.4244
18858SOL    HW161421   6.568   2.059   9.602  0.1174  1.0296  0.2893
18858SOL    HW261422   6.598   2.020   9.745  0.6402  0.0659 -0.0755
18859SOL     OW61423   5.026   1.304   9.352  0.3164 -0.0693  0.3505
18859SOL    HW161424   5.042   1.276   9.442  0.8233 -1.8359 -0.2655
18859SOL    HW261425   5.101   1.272   9.302 -0.2562  0.3340 -0.8113
18860SOL     OW61426   7.085   3.319   9.222  0.0538 -0.3627  0.3322
18860SOL    HW161427   7.001   3.274   9.216 -0.9576  1.5588 -0.3312
18860SOL    HW261428   7.101   3.326   9.316 -1.3237  0.6919  0.5021
18861SOL     OW61429   5.872   2.799   7.945 -0.3208 -0.2377  0.2008
18861SOL    HW161430   5.803   2.837   7.999  0.0178  0.4848  0.1321
18861SOL    HW261431   5.946   2.859   7.954 -0.0473 -0.4472 -0.5588
18862SOL     OW61432   7.245   1.773   0.517 -0.5818  0.0150  0.3708
18862SOL    HW161433   7.192   1.727   0.452  0.8344  1.4532 -1.8679
18862SOL    HW261434   7.207   1.860   0.521  0.5834  0.5569 -0.0654
18863SOL     OW61435   8.521   1.878   9.443  0.1635  0.5472  0.2090
18863SOL    HW161436   8.583   1.949   9.427  1.1082  0.0728  1.7209
18863SOL    HW261437   8.467   1.876   9.364  0.0995  2.9605  0.1499
18864SOL     OW61438   6.776   0.985   9.263 -0.1521  0.9076 -0.2036
18864SOL    HW161439   6.846   1.021   9.318 -0.4903  2.2622 -0.6284
18864SOL    HW261440   6.823   0.941   9.192  0.2780 -0.3706  0.8379
18865SOL     OW61441   7.585   1.829   8.911 -0.3999  0.0690  1.1092
18865SOL    HW161442   7.543   1.809   8.827 -1.8771 -0.5175  1.9772
18865SOL    HW261443   7.525   1.889   8.954  1.4329  2.1900  0.8167
18866SOL     OW61444   5.005   3.627   8.161  0.1152  0.3471  0.5381
18866SOL    HW161445   4.912   3.612   8.179 -0.4055  3.7530  0.8586
18866SOL    HW261446   5.006   3.667   8.074  1.1726  1.4517  1.0491
18867SOL     OW61447   5.588   2.446   9.667  0.2211 -0.1197 -0.1970
18867SOL    HW161448   5.499   2.473   9.647  0.6130  0.8334 -0.6972
18867SOL    HW261449   5.617   2.397   9.589  0.6565  0.8851 -0.6771
18868SOL     OW61450   7.467   2.115   8.097  0.0594 -0.2709 -0.0244
18868SOL    HW161451   7.547   2.063   8.093  0.0652 -0.2496 -0.2215
18868SOL    HW261452   7.479   2.183   8.030 -0.4649 -0.7592 -0.6260
18869SOL     OW61453   5.655   1.913   6.645 -0.2361 -0.3452 -0.3564
18869SOL    HW161454   5.716   1.980   6.615  1.2776 -1.1985  0.8027
18869SOL    HW261455   5.686   1.832   6.605  0.2426 -1.0325  1.3706
18870SOL     OW61456   4.938   3.984   1.904  0.1088  0.1632  0.0824
18870SOL    HW161457   4.987   3.906   1.931 -0.9925 -0.0300  1.6051
18870SOL    HW261458   4.993   4.057   1.932 -0.3951 -0.0525  1.7082
18871SOL     OW61459   6.833   2.223   8.306 -0.1097  0.5281 -0.3686
18871SOL    HW161460   6.819   2.244   8.214  1.4239 -0.5770 -0.8840
18871SOL    HW261461   6.891   2.147   8.304  0.9593  1.2756  1.5312
18872SOL     OW61462   6.876   2.888   9.706  0.7812  0.7609  0.2519
18872SOL    HW161463   6.864   2.972   9.750  1.3765 -0.2102  2.3382
18872SOL    HW261464   6.788   2.855   9.692  0.5054  2.0998 -1.3710
18873SOL     OW61465   7.662   3.156   8.262 -0.3604  0.0423  0.3097
18873SOL    HW161466   7.613   3.210   8.200 -1.7835 -0.2940  1.1381
18873SOL    HW261467   7.752   3.189   8.256 -0.7979  1.0757 -0.7552
18874SOL     OW61468   5.564   2.046   7.482  0.5104  0.0723 -0.0010
18874SOL    HW161469   5.610   2.004   7.409  0.8366  1.0753 -0.3762
18874SOL    HW261470   5.477   2.007   7.482  0.2741  0.5854 -1.3728
18875SOL     OW61471   8.135   2.139   8.313  0.9605 -0.3180 -0.0328
18875SOL    HW161472   8.114   2.106   8.400 -1.7912  1.0284 -0.1283
18875SOL    HW261473   8.212   2.195   8.326  1.6781 -1.5527  1.1890
18876SOL     OW61474   6.280   2.092   7.144  0.8391  0.4224  0.1201
18876SOL    HW161475   6.288   2.149   7.068 -1.0012 -0.9109 -1.1144
18876SOL    HW261476   6.309   2.007   7.113 -0.7733 -0.3323  0.6493
18877SOL     OW61477   7.722   1.693   8.615 -0.1897  0.5692 -0.1583
18877SOL    HW161478   7.711   1.624   8.550 -1.1052  1.0799 -0.5484
18877SOL    HW261479   7.634   1.724   8.632  0.0157  0.2646  1.5301
18878SOL     OW61480   5.089   2.889   8.012  0.2796  0.0332  0.0505
18878SOL    HW161481   5.173   2.847   8.029  0.5852  0.3399 -0.6479
18878SOL    HW261482   5.034   2.819   7.976  1.3606  0.5812 -2.8549
18879SOL     OW61483   5.901   2.325   7.397  0.3933  0.2262 -0.0577
18879SOL    HW161484   5.809   2.321   7.369  0.7636  0.1437 -1.2690
18879SOL    HW261485   5.947   2.268   7.336  1.5105  1.5910 -0.4904
18880SOL     OW61486   7.848   1.517   8.362  0.0344 -0.2807 -0.2378
18880SOL    HW161487   7.755   1.499   8.345  0.2614 -0.3787 -1.4317
18880SOL    HW261488   7.868   1.468   8.441 -1.6390  1.9313  1.6471
18881SOL     OW61489   5.506   4.899   9.050  0.2621  0.3979 -0.0170
18881SOL    HW161490   5.479   4.967   9.112  0.0730  1.9412 -1.7463
18881SOL    HW261491   5.601   4.906   9.046  0.3019  0.0772  0.3434
18882SOL     OW61492   7.779   3.884   8.074  0.3005 -0.6077 -0.0550
18882SOL    HW161493   7.782   3.808   8.132 -0.5293 -0.4549  0.1862
18882SOL    HW261494   7.854   3.937   8.101 -0.1054 -0.5161  0.9181
18883SOL     OW61495   5.680   1.586   9.288 -0.7428  0.0860 -0.2819
18883SOL    HW161496   5.672   1.621   9.199 -1.8444  0.5036 -0.0290
18883SOL    HW261497   5.713   1.498   9.276 -1.4506 -0.0746 -1.1567
18884SOL     OW61498   9.369   2.399   7.472  0.2364  0.2904 -0.1658
18884SOL    HW161499   9.424   2.372   7.398  0.0436  0.1397 -0.2543
18884SOL    HW261500   9.324   2.320   7.498  2.7052 -0.4011  2.1925
18885SOL     OW61501   7.533   4.003   8.435  0.1109 -0.4329  0.2631
18885SOL    HW161502   7.510   3.933   8.497  0.4040 -1.1508 -0.4255
18885SOL    HW261503   7.483   3.983   8.356 -0.8013  0.8793  0.4974
18886SOL     OW61504   7.739   2.710   7.207 -0.0314  0.2583  0.0766
18886SOL    HW161505   7.738   2.738   7.116 -0.1366  1.3441  0.4134
18886SOL    HW261506   7.761   2.616   7.203 -0.1136  0.2859 -1.0591
18887SOL     OW61507   4.560   4.588   8.710 -0.4754 -0.2846 -0.3697
18887SOL    HW161508   4.639   4.632   8.677 -0.2388  0.0070  0.5667
18887SOL    HW261509   4.577   4.577   8.804 -1.0461 -1.2911 -0.3766
18888SOL     OW61510   6.943   2.444   9.585  0.2765 -0.2342  0.2845
18888SOL    HW161511   6.908   2.355   9.594 -1.5079  0.5616  1.3899
18888SOL    HW261512   6.890   2.497   9.644  2.4687  1.2702  0.9892
18889SOL     OW61513   8.512   2.699   7.573  0.4361 -0.6700 -0.0502
18889SOL    HW161514   8.427   2.668   7.605  0.3367 -0.4366 -0.0874
18889SOL    HW261515   8.536   2.636   7.506  0.5254 -1.0186  0.3049
18890SOL     OW61516   6.678   0.307   9.147  0.3950 -0.6130 -0.0357
18890SOL    HW161517   6.670   0.221   9.107 -0.4553 -1.2057  1.3946
18890SOL    HW261518   6.709   0.290   9.235 -0.1861  0.5176  0.3931
18891SOL     OW61519   4.611   1.896   7.612  0.1403 -0.1226  0.6748
18891SOL    HW161520   4.606   1.820   7.669  0.6979  0.4662  1.5338
18891SOL    HW261521   4.559   1.873   7.535 -0.6565 -0.9064  1.4457
18892SOL     OW61522   6.819   1.723   9.403  0.0411 -0.0284 -0.0566
18892SOL    HW161523   6.868   1.641   9.408  0.8074  0.4091 -0.4017
18892SOL    HW261524   6.797   1.744   9.494  1.6697  0.4883  0.2297
18893SOL     OW61525   7.191   4.444   8.856 -0.7254  0.3166  0.6008
18893SOL    HW161526   7.203   4.443   8.951 -0.8682 -0.1527  0.6139
18893SOL    HW261527   7.147   4.527   8.838  0.7048  1.1382  0.7731
18894SOL     OW61528   6.964   1.991   8.902  0.3681 -0.1602 -0.2141
18894SOL    HW161529   6.961   1.896   8.889 -1.4619 -0.1573  0.0930
18894SOL    HW261530   7.051   2.007   8.939  0.9250 -1.6368 -0.8416
18895SOL     OW61531   6.239   3.555   8.749  0.2491  0.4876  0.0952
18895SOL    HW161532   6.154   3.535   8.789  0.3759 -1.3972 -0.5234
18895SOL    HW261533   6.296   3.572   8.824 -0.4024  0.6448  0.5628
18896SOL     OW61534   6.388   1.860   9.893  0.0906  0.4353  1.1128
18896SOL    HW161535   6.325   1.789   9.887 -1.2963  1.7188  0.1991
18896SOL    HW261536   6.345   1.926   9.947  0.2040  1.7482 -0.3548
18897SOL     OW61537   5.625   2.362   7.378  0.0878 -0.4040  0.2481
18897SOL    HW161538   5.576   2.408   7.310  0.3926 -0.6421 -0.1350
18897SOL    HW261539   5.564   2.356   7.452 -0.2842 -0.2550 -0.0451
18898SOL     OW61540   7.444   3.437   7.693 -0.4916 -0.7611  0.4070
18898SOL    HW161541   7.398   3.359   7.662 -0.2520 -0.4370 -0.7761
18898SOL    HW261542   7.526   3.403   7.730  1.1059 -0.8258 -3.0252
18899SOL     OW61543   7.137   0.777   6.212  0.4752 -0.0297  0.1991
18899SOL    HW161544   7.098   0.852   6.258  1.5162  0.3906  0.4054
18899SOL    HW261545   7.128   0.798   6.119 -1.7250 -0.9233  0.1759
18900SOL     OW61546   5.027   3.072   5.832  0.4821  0.4759 -0.5041
18900SOL    HW161547   5.060   3.065   5.743  0.3311 -0.1080 -0.5185
18900SOL    HW261548   5.105   3.083   5.886  0.7972 -1.8330 -0.4409
18901SOL     OW61549   6.760   2.558   9.763 -0.0127 -0.2966  0.3325
18901SOL    HW161550   6.680   2.580   9.716 -0.1576 -1.8655 -0.1614
18901SOL    HW261551   6.733   2.493   9.829  0.5020  0.5839  1.4406
18902SOL     OW61552   6.114   1.132   8.596 -0.4428  0.3557  0.2091
18902SOL    HW161553   6.139   1.107   8.685  2.4081  2.2355  0.0162
18902SOL    HW261554   6.082   1.052   8.556  1.8117 -1.3695  1.7577
18903SOL     OW61555   6.829   3.674   9.072 -0.1604 -0.4537  0.0581
18903SOL    HW161556   6.764   3.658   9.003  1.1849  1.5652 -1.7312
18903SOL    HW261557   6.780   3.664   9.154 -2.2747 -0.8240 -1.2222
18904SOL     OW61558   7.649   1.723   7.299 -0.3566  0.3867 -0.3736
18904SOL    HW161559   7.662   1.639   7.257 -1.4958  0.8618 -1.7326
18904SOL    HW261560   7.703   1.784   7.249  0.0374  0.5547  0.2574
18905SOL     OW61561   7.278   3.949   6.809 -0.1223 -0.0393 -0.1285
18905SOL    HW161562   7.195   3.977   6.771  0.0947  0.6322 -0.1348
18905SOL    HW261563   7.340   4.018   6.783 -0.0457  0.6320  1.7402
18906SOL     OW61564   6.677   2.439   8.423  0.8543 -0.1336 -0.4166
18906SOL    HW161565   6.647   2.462   8.334 -0.1929 -0.7186 -0.2223
18906SOL    HW261566   6.754   2.385   8.408  1.1539  0.4302 -0.9586
18907SOL     OW61567   7.240   2.228   8.584 -0.2020 -0.0012  0.4229
18907SOL    HW161568   7.331   2.226   8.554 -1.2668 -0.7707 -2.9393
18907SOL    HW261569   7.228   2.144   8.630  1.0884  0.6489  2.0133
18908SOL     OW61570   6.470   1.701   9.588  0.3301 -0.7866  0.4769
18908SOL    HW161571   6.561   1.725   9.606  0.3587 -1.3191  1.0706
18908SOL    HW261572   6.424   1.785   9.582  0.9590 -0.4942 -0.4014
18909SOL     OW61573   7.237   1.583   8.229 -0.2453  0.0948 -0.2498
18909SOL    HW161574   7.288   1.628   8.297 -1.3156  1.6912 -0.4929
18909SOL    HW261575   7.249   1.490   8.249  0.4121  0.5088  1.4281
18910SOL     OW61576   7.190   3.812   8.378 -0.3808  0.4393 -0.1072
18910SOL    HW161577   7.270   3.775   8.414 -0.2459  0.5584 -0.2898
18910SOL    HW261578   7.217   3.861   8.301 -1.0762 -2.6049 -2.3805
18911SOL     OW61579   6.177   2.948   9.058  0.2431  0.7376 -0.4083
18911SOL    HW161580   6.247   3.008   9.087  0.2991  0.8107 -0.6815
18911SOL    HW261581   6.220   2.863   9.053  0.1865  0.6925 -0.0991
18912SOL     OW61582   8.307   2.135   9.200 -0.1210 -0.9535 -0.5832
18912SOL    HW161583   8.373   2.089   9.148  0.3654 -1.9961  0.9525
18912SOL    HW261584   8.252   2.066   9.237 -0.1740 -0.2494  0.6829
18913SOL     OW61585   6.783   2.184   9.007  0.0225 -0.2294 -0.1991
18913SOL    HW161586   6.822   2.107   8.966 -0.2151  0.2422 -1.3392
18913SOL    HW261587   6.849   2.214   9.070 -0.3311 -1.9783  1.0349
18914SOL     OW61588   8.806   3.110   8.780  0.1275  0.5262 -0.9937
18914SOL    HW161589   8.897   3.134   8.765  0.2567  0.3482 -0.5018
18914SOL    HW261590   8.788   3.136   8.870 -0.1026 -0.0577 -0.8641
18915SOL     OW61591   7.674   0.637   8.303  0.4824 -0.7941 -0.1580
18915SOL    HW161592   7.696   0.623   8.211  1.6943 -1.1360  0.1703
18915SOL    HW261593   7.701   0.555   8.346  1.0944 -0.1572  0.6831
18916SOL     OW61594   7.548   3.296   7.432 -0.5607  0.8833  0.0764
18916SOL    HW161595   7.538   3.373   7.487  1.0004  0.3110  1.1801
18916SOL    HW261596   7.640   3.297   7.405 -0.6263 -0.3641 -0.2287
18917SOL     OW61597   7.579   2.410   8.692 -0.1749 -0.2581  0.0323
18917SOL    HW161598   7.545   2.324   8.666  1.9628 -0.9436 -0.5887
18917SOL    HW261599   7.659   2.390   8.741  1.7081  1.4330 -2.2611
18918SOL     OW61600   5.637   3.038   9.064  0.0716 -0.0873 -0.1656
18918SOL    HW161601   5.620   3.126   9.029  0.3625 -0.2736 -0.7949
18918SOL    HW261602   5.732   3.036   9.077 -0.1320  0.2687  1.4477
18919SOL     OW61603   7.215   3.616   9.691  0.3832  0.2441  0.7679
18919SOL    HW161604   7.254   3.557   9.756  0.9852 -0.9452 -0.6536
18919SOL    HW261605   7.128   3.580   9.676  0.9691 -0.6655 -0.5467
18920SOL     OW61606   5.782   3.529   9.366 -0.2660 -0.2094  0.0009
18920SOL    HW161607   5.695   3.565   9.350  1.0915  2.3719 -1.9879
18920SOL    HW261608   5.809   3.567   9.450 -1.3985 -1.7515  1.0801
18921SOL     OW61609   8.754   3.973   9.607 -0.0240  0.3591 -0.2646
18921SOL    HW161610   8.785   4.063   9.594  0.3983  0.2327 -0.1585
18921SOL    HW261611   8.703   3.977   9.688 -0.1630  0.5436 -0.3599
18922SOL     OW61612   6.907   1.426   0.023 -0.3642 -0.0890 -0.1921
18922SOL    HW161613   6.850   1.351   0.009 -0.0699 -0.1418 -1.1653
18922SOL    HW261614   6.887   1.486  -0.049 -1.2396  1.1799  1.0773
18923SOL     OW61615   5.941   3.851   8.859  0.4512 -0.3297 -0.2234
18923SOL    HW161616   6.001   3.857   8.934 -0.0125  0.8673  0.0649
18923SOL    HW261617   5.991   3.885   8.785  0.5940 -0.6238 -0.2607
18924SOL     OW61618   6.113   2.716   6.915  0.6244  0.1497  0.2874
18924SOL    HW161619   6.032   2.708   6.865  1.4200  1.4627 -1.2627
18924SOL    HW261620   6.091   2.684   7.003 -1.6778  0.8998  0.0105
18925SOL     OW61621   4.720   2.007   8.088 -0.2015 -0.3454  0.0424
18925SOL    HW161622   4.747   1.998   8.179  0.6709  1.2629 -0.0415
18925SOL    HW261623   4.788   1.961   8.038 -0.8614 -1.5223  0.2125
18926SOL     OW61624   6.220   0.257   9.529 -0.0968 -0.2043 -0.0866
18926SOL    HW161625   6.251   0.195   9.595 -0.8562 -0.0099  0.4460
18926SOL    HW261626   6.233   0.343   9.568  1.0806 -0.0100 -0.8817
18927SOL     OW61627   6.307   3.169   8.161 -0.1488 -0.4685 -0.3767
18927SOL    HW161628   6.317   3.078   8.134  0.9899  0.0721 -1.8714
18927SOL    HW261629   6.243   3.205   8.100  1.0772  0.2888 -1.2506
18928SOL     OW61630   6.851   1.379   8.965  0.4841  0.5208 -0.0599
18928SOL    HW161631   6.942   1.389   8.936  1.2079 -0.5413  1.7969
18928SOL    HW261632   6.822   1.297   8.925  0.5269  0.5425 -0.1376
18929SOL     OW61633   4.979   2.526   7.630 -0.3478  0.4924  0.2636
18929SOL    HW161634   4.949   2.435   7.640 -0.0044  0.2702 -0.6753
18929SOL    HW261635   4.964   2.546   7.538  0.0086  1.2395  0.3627
18930SOL     OW61636   7.130   2.409   6.953 -0.2860  0.3176 -0.4342
18930SOL    HW161637   7.119   2.314   6.955  0.4520  0.2096 -1.2422
18930SOL    HW261638   7.215   2.423   6.912 -0.6504  1.3391 -0.8743
18931SOL     OW61639   6.867   2.431   9.302  0.6917  0.6801 -0.1789
18931SOL    HW161640   6.876   2.460   9.392 -0.1255 -1.4097  0.6095
18931SOL    HW261641   6.784   2.383   9.300  1.1021 -0.0105 -1.8385
18932SOL     OW61642   8.288   2.633   8.400  0.0587 -0.0335  0.2840
18932SOL    HW161643   8.229   2.599   8.467 -0.5373  0.5544  0.0571
18932SOL    HW261644   8.339   2.701   8.444  0.4491 -0.4160  0.4304
18933SOL     OW61645   6.507   4.484   8.735  0.0008 -0.1889 -0.1919
18933SOL    HW161646   6.412   4.484   8.747  0.3330  0.5523  2.9463
18933SOL    HW261647   6.540   4.541   8.805  2.8793 -2.0238  0.0366
18934SOL     OW61648   4.951   5.135   9.170 -0.2618 -0.2232  0.2647
18934SOL    HW161649   5.019   5.186   9.126  0.5843  0.7599  2.5877
18934SOL    HW261650   4.999   5.064   9.213 -0.7667  0.0946  1.3643
18935SOL     OW61651   7.013   1.968   9.373 -0.1609  0.3875  0.0929
18935SOL    HW161652   7.066   1.897   9.338 -0.1437  1.0608 -1.2904
18935SOL    HW261653   7.072   2.044   9.375 -0.9726  1.0665 -1.1870
18936SOL     OW61654   6.501   3.182   0.844  0.7179  0.1130 -0.3210
18936SOL    HW161655   6.455   3.266   0.837  0.6001 -0.0421 -1.5627
18936SOL    HW261656   6.526   3.161   0.754  0.0801 -1.5563 -0.1374
18937SOL     OW61657   7.290   1.917   9.955 -0.1822 -0.0554 -0.1957
18937SOL    HW161658   7.252   1.855  10.017 -1.6248  1.8020  0.8712
18937SOL    HW261659   7.377   1.936   9.991 -0.6031  0.2057  0.7284
18938SOL     OW61660   6.720   1.752   9.669 -0.0387 -0.0442  0.3907
18938SOL    HW161661   6.736   1.671   9.716  0.2942  0.3332  0.9244
18938SOL    HW261662   6.715   1.820   9.736 -0.8442  0.3066 -0.0035
18939SOL     OW61663   4.794   2.182   9.182  0.0681  0.1147 -0.1040
18939SOL    HW161664   4.757   2.132   9.108 -1.1267  2.4585 -1.1276
18939SOL    HW261665   4.718   2.213   9.230  0.8391 -0.3810  1.4723
18940SOL     OW61666   6.863   1.288   0.449 -0.4313 -0.1310 -0.2337
18940SOL    HW161667   6.775   1.262   0.476 -1.0111  1.3480 -0.6347
18940SOL    HW261668   6.849   1.367   0.397  0.9382 -1.1026 -2.1492
18941SOL     OW61669   6.458   0.518   8.418 -0.4454  0.2012 -0.2202
18941SOL    HW161670   6.429   0.433   8.386 -1.0103  0.1650  0.3663
18941SOL    HW261671   6.518   0.497   8.490  1.4000  0.2709 -1.7092
18942SOL     OW61672   6.074   1.362   8.915 -0.4740  0.3672  0.6282
18942SOL    HW161673   6.047   1.354   8.823 -0.5116 -2.1312  0.8216
18942SOL    HW261674   6.012   1.424   8.953 -3.1188 -1.7687 -0.0619
18943SOL     OW61675   4.956   2.643   8.474  0.1083 -0.0826  0.3215
18943SOL    HW161676   5.000   2.570   8.517  0.3214 -1.0769 -1.5470
18943SOL    HW261677   4.868   2.609   8.454 -0.4550  0.8359  1.2231
18944SOL     OW61678   6.588   2.866   9.713 -0.0447  0.0891 -0.7452
18944SOL    HW161679   6.558   2.927   9.647 -1.5232 -0.4060 -0.5432
18944SOL    HW261680   6.552   2.781   9.686  1.0668 -0.4997 -0.4268
18945SOL     OW61681   5.113   2.007   7.681 -0.5735 -0.4360  0.4986
18945SOL    HW161682   5.197   1.989   7.723 -0.7715 -0.6706  0.8026
18945SOL    HW261683   5.122   1.971   7.593  0.3030  1.2323 -0.1036
18946SOL     OW61684   6.972   2.046   6.593 -0.2892 -0.1601  0.8126
18946SOL    HW161685   6.985   2.033   6.499 -0.2162  0.7026  0.6991
18946SOL    HW261686   7.037   1.990   6.634  0.6574  0.5738  0.3221
18947SOL     OW61687   5.398   2.782   9.448 -0.3869  0.1721  0.2765
18947SOL    HW161688   5.359   2.701   9.479 -0.3424 -0.9794 -2.5474
18947SOL    HW261689   5.365   2.849   9.508 -0.5431 -1.8787  2.5453
18948SOL     OW61690   6.505   3.229   8.395  0.4964 -0.4834  0.3898
18948SOL    HW161691   6.581   3.175   8.370  0.4369  0.3984 -1.8165
18948SOL    HW261692   6.537   3.319   8.389 -0.9814 -0.0501 -1.6701
18949SOL     OW61693   5.510   3.874   0.742  0.3035 -0.0404  0.5021
18949SOL    HW161694   5.534   3.823   0.819 -2.3330 -2.3106 -0.0827
18949SOL    HW261695   5.487   3.960   0.777 -1.2346 -1.1483  2.3558
18950SOL     OW61696   4.253   3.414   9.276  0.6713 -0.4917 -0.1943
18950SOL    HW161697   4.223   3.502   9.252 -0.1696 -0.5364  0.6297
18950SOL    HW261698   4.325   3.429   9.338 -0.4341 -0.3626  1.0933
18951SOL     OW61699   6.566   2.106   6.004 -0.0131  0.1358  0.6357
18951SOL    HW161700   6.581   2.024   6.051 -0.3489  0.1661  0.7971
18951SOL    HW261701   6.561   2.081   5.912  1.4137  0.1753  0.5347
18952SOL     OW61702   6.319   4.063   7.992  0.6473 -0.5480  0.5143
18952SOL    HW161703   6.411   4.080   8.013  0.6875 -1.2747  0.9643
18952SOL    HW261704   6.317   3.971   7.965 -0.0121 -0.6487  0.8878
18953SOL     OW61705   8.337   2.203   7.752 -0.5059  0.2233 -0.2587
18953SOL    HW161706   8.275   2.205   7.679 -0.4616  0.5390 -0.2861
18953SOL    HW261707   8.380   2.118   7.743  2.2694  1.8187 -2.9153
18954SOL     OW61708   5.743   2.232   9.910  0.0300 -0.4942  0.0637
18954SOL    HW161709   5.767   2.150   9.867 -0.3886 -1.4826  1.6527
18954SOL    HW261710   5.647   2.232   9.907  0.0298 -0.0826  0.1211
18955SOL     OW61711   6.330   2.675   7.850  0.0295 -0.3242  0.1998
18955SOL    HW161712   6.270   2.619   7.801 -1.0027  0.7109  0.2560
18955SOL    HW261713   6.303   2.665   7.941 -0.4245  0.5746  0.1657
18956SOL     OW61714   6.655   2.251   9.321 -0.3202 -0.0175  0.0983
18956SOL    HW161715   6.586   2.217   9.264 -1.0953  0.1483  0.9309
18956SOL    HW261716   6.699   2.173   9.354 -1.1555 -0.1765  0.8469
18957SOL     OW61717   6.231   2.714   8.762 -0.2624  1.3902 -0.0865
18957SOL    HW161718   6.141   2.684   8.749 -0.3172  1.9961 -1.2321
18957SOL    HW261719   6.246   2.709   8.856 -1.3065  0.7472  0.0452
18958SOL     OW61720   6.499   2.413   5.320 -0.2751  0.3437 -0.6394
18958SOL    HW161721   6.490   2.507   5.336 -0.1677  0.1863  0.4098
18958SOL    HW261722   6.413   2.385   5.288 -0.3993  0.7388 -0.6518
18959SOL     OW61723   5.525   2.422   8.361 -0.4924  0.1637  0.4813
18959SOL    HW161724   5.448   2.421   8.417 -1.0366 -0.1494 -0.2634
18959SOL    HW261725   5.491   2.441   8.273  0.3823  0.9446  0.3033
18960SOL     OW61726   6.579   4.073   8.005  0.3445  0.1975  0.1570
18960SOL    HW161727   6.642   4.145   7.999 -2.1172  2.2620 -2.1387
18960SOL    HW261728   6.601   4.017   7.931  0.4176  0.1360  0.2258
18961SOL     OW61729   6.788   0.975   8.631 -0.0305  0.0637 -0.2957
18961SOL    HW161730   6.768   0.933   8.715  0.4216  1.6210  0.6025
18961SOL    HW261731   6.715   0.951   8.574  0.4792 -2.3946  0.0303
18962SOL     OW61732   6.202   2.872   0.275  0.3325 -0.3591 -0.2092
18962SOL    HW161733   6.116   2.892   0.312  0.8293  1.8988 -0.2272
18962SOL    HW261734   6.217   2.780   0.299 -2.7166 -1.2742 -1.5032
18963SOL     OW61735   7.641   2.981   9.425 -0.1104  0.2101 -0.1125
18963SOL    HW161736   7.607   3.020   9.344  1.3355 -2.0074 -1.8539
18963SOL    HW261737   7.719   3.032   9.445  1.0247 -0.8624 -1.6462
18964SOL     OW61738   7.506   2.734   0.236 -0.5513 -0.0294  0.0157
18964SOL    HW161739   7.592   2.733   0.279 -1.1097 -0.2883  1.1496
18964SOL    HW261740   7.493   2.826   0.213 -0.2772  0.1347  0.4903
18965SOL     OW61741   7.033   3.711   9.418 -0.5844 -0.3865 -0.0161
18965SOL    HW161742   7.076   3.626   9.429 -1.4586 -0.8843 -0.4542
18965SOL    HW261743   6.967   3.696   9.350 -0.8130  0.6142 -0.0172
18966SOL     OW61744   8.185   2.203   8.963 -0.1716  0.0669  0.1139
18966SOL    HW161745   8.228   2.182   9.046 -0.3908  0.3889  0.3076
18966SOL    HW261746   8.258   2.213   8.901 -0.0933 -1.7721 -0.1008
18967SOL     OW61747   3.961   2.267   8.775  0.3122  0.0956 -0.3879
18967SOL    HW161748   3.981   2.180   8.810  1.0885 -0.2740 -1.6967
18967SOL    HW261749   3.979   2.259   8.681  3.2670  2.4743 -0.0907
18968SOL     OW61750   5.011   2.314   8.135  0.4590  0.2813  0.3598
18968SOL    HW161751   5.025   2.297   8.042  0.3854 -3.0255  0.8991
18968SOL    HW261752   5.034   2.407   8.146  1.1513  0.5399 -2.7909
18969SOL     OW61753   3.903   2.488   9.618 -0.2895  0.1150 -0.0449
18969SOL    HW161754   3.810   2.487   9.595 -0.6251  0.4006  1.2664
18969SOL    HW261755   3.914   2.411   9.675  0.6180 -0.8295 -1.4439
18970SOL     OW61756   7.308   4.009   9.367  0.4872 -0.2844  0.6356
18970SOL    HW161757   7.324   3.947   9.438  1.2944 -0.8639 -0.0453
18970SOL    HW261758   7.389   4.059   9.361  0.9788 -1.2453 -0.8670
18971SOL     OW61759   7.890   1.337   8.990 -0.0699  0.1597  0.1583
18971SOL    HW161760   7.890   1.426   8.956 -0.6400  0.1829  0.2210
18971SOL    HW261761   7.797   1.313   8.995  0.0725 -0.3499  0.3632
18972SOL     OW61762   7.086   3.581   9.090  0.2319  0.3852 -0.1098
18972SOL    HW161763   7.054   3.493   9.108  0.0980  0.0117 -2.1488
18972SOL    HW261764   7.011   3.638   9.106 -0.3055 -0.0857 -0.9635
18973SOL     OW61765   7.440   3.970   8.888 -0.2004  0.1702 -0.3095
18973SOL    HW161766   7.462   3.926   8.806  0.0193  0.9813 -0.6924
18973SOL    HW261767   7.353   3.936   8.911  0.7986 -1.9584  0.4532
18974SOL     OW61768   3.956   1.748   7.174 -0.2141  0.1180 -0.1623
18974SOL    HW161769   3.962   1.658   7.208  0.8691  0.2703  0.0767
18974SOL    HW261770   3.865   1.758   7.147 -0.1192 -1.3935 -1.1065
18975SOL     OW61771   5.172   3.208   8.909  0.1726 -0.0944 -0.0534
18975SOL    HW161772   5.140   3.269   8.843  0.3034  0.3021  0.2482
18975SOL    HW261773   5.159   3.122   8.870 -0.1534  0.1180 -0.4178
18976SOL     OW61774   7.631   9.985   7.620 -0.1221  0.0555 -0.4891
18976SOL    HW161775   7.553  10.036   7.641  0.3541  1.0736 -1.1581
18976SOL    HW261776   7.601   9.895   7.617 -0.7803  0.1639  1.7637
18977SOL     OW61777   7.529   3.313   8.055  0.1735  0.2488 -0.5592
18977SOL    HW161778   7.499   3.245   7.995  0.2353 -1.0720  0.8804
18977SOL    HW261779   7.480   3.391   8.029  0.2040 -0.3022 -2.3094
18978SOL     OW61780   6.334   3.432   9.712  0.4610  0.0048 -0.2113
18978SOL    HW161781   6.374   3.455   9.628 -1.9828  0.1822 -1.3993
18978SOL    HW261782   6.373   3.348   9.735  0.0178 -0.8321 -2.3649
18979SOL     OW61783   5.597   2.205   8.545  0.0954 -0.4532  0.2475
18979SOL    HW161784   5.627   2.272   8.483 -0.2859  0.0921  0.6430
18979SOL    HW261785   5.626   2.237   8.631  3.2855 -2.7168  0.0631
18980SOL     OW61786   7.079   3.733   8.752 -0.4198  0.8558 -0.1952
18980SOL    HW161787   7.133   3.755   8.828 -1.2901  1.4033  0.2883
18980SOL    HW261788   7.050   3.818   8.719 -0.1247  0.6130 -1.0836
18981SOL     OW61789   4.203   2.528   7.098  0.0469  0.3179  0.6578
18981SOL    HW161790   4.179   2.497   7.010  1.3672 -0.1178  0.4407
18981SOL    HW261791   4.264   2.600   7.082  1.0232 -0.3600  1.2039
18982SOL     OW61792   5.048   3.380   8.709 -0.2556 -0.2107  0.1366
18982SOL    HW161793   5.134   3.365   8.670  0.3498 -0.7810  1.6350
18982SOL    HW261794   5.024   3.468   8.682  2.2216  1.1806  2.2375
18983SOL     OW61795   7.600   1.020   7.472  0.6442  0.3460  0.0626
18983SOL    HW161796   7.588   1.012   7.567  0.1878  0.1270 -0.0157
18983SOL    HW261797   7.511   1.027   7.437  0.7443 -1.0045 -0.4868
18984SOL     OW61798   5.901   3.289   7.341 -0.2829  0.0586  0.0687
18984SOL    HW161799   5.810   3.262   7.351 -0.0628 -1.6777 -2.0708
18984SOL    HW261800   5.948   3.207   7.325  1.2696  1.1750 -1.2553
18985SOL     OW61801   7.923   3.206   7.618 -0.4017  0.4495  0.7094
18985SOL    HW161802   7.871   3.218   7.698 -1.5898 -3.1756  0.5920
18985SOL    HW261803   7.874   3.253   7.551 -0.9770  1.0806  1.5561
18986SOL     OW61804   7.120   2.746   9.297  0.2033  0.3400 -0.4099
18986SOL    HW161805   7.031   2.772   9.320  1.4697  1.6049  3.5421
18986SOL    HW261806   7.150   2.813   9.236  0.0060  2.6162  1.9045
18987SOL     OW61807   6.374   1.141   8.500 -0.1464  0.0366  0.6273
18987SOL    HW161808   6.391   1.228   8.464  1.9779 -0.4794  0.3167
18987SOL    HW261809   6.284   1.146   8.532  0.0182  2.4097  0.8302
18988SOL     OW61810   5.748   1.603   5.873 -0.1768 -0.3579 -0.8082
18988SOL    HW161811   5.767   1.517   5.836  0.7854 -0.5250  0.0363
18988SOL    HW261812   5.672   1.635   5.824 -1.4641 -2.3169 -0.1448
18989SOL     OW61813   6.308   2.664   9.015 -0.0776 -0.2817 -0.1474
18989SOL    HW161814   6.305   2.678   9.109  1.2067 -0.1195 -0.1165
18989SOL    HW261815   6.371   2.592   9.004 -1.4867 -1.4424 -0.7668
18990SOL     OW61816   5.285   2.775   8.695  0.6111 -0.0647 -0.0991
18990SOL    HW161817   5.193   2.753   8.683  0.1610  1.3338  0.7571
18990SOL    HW261818   5.293   2.798   8.787  1.4159  1.7112 -0.5820
18991SOL     OW61819   6.949   3.377   7.798 -0.5909  0.3146  0.7986
18991SOL    HW161820   6.926   3.416   7.714  3.0847  0.9624  0.0104
18991SOL    HW261821   6.944   3.282   7.783  3.8891  0.2948 -1.4669
18992SOL     OW61822   6.274   2.627   0.374 -0.1042  0.5344 -0.1899
18992SOL    HW161823   6.301   2.582   0.454  0.4266 -1.4514 -1.4333
18992SOL    HW261824   6.202   2.573   0.340 -1.7680  2.5462  0.0488
18993SOL     OW61825   5.580   1.618   6.692  0.1004 -0.2995 -0.2335
18993SOL    HW161826   5.661   1.637   6.644 -0.3002  0.2849 -0.6878
18993SOL    HW261827   5.551   1.534   6.656  1.1671 -1.1506  0.8309
18994SOL     OW61828   6.726   3.025   8.423  0.1713  0.5426  0.3385
18994SOL    HW161829   6.702   2.939   8.388  1.7967  1.0474 -2.1590
18994SOL    HW261830   6.818   3.017   8.445  0.7790  2.1303 -1.5444
18995SOL     OW61831   4.682   2.360   0.191  0.0096  0.1226  0.6528
18995SOL    HW161832   4.624   2.338   0.263  0.8048  1.2272  1.6474
18995SOL    HW261833   4.651   2.306   0.118 -0.8420 -0.9546  1.7846
18996SOL     OW61834   5.958   1.725   0.033  0.6673  0.1086 -0.1906
18996SOL    HW161835   5.918   1.704  -0.051  0.9773  0.1817 -0.3576
18996SOL    HW261836   5.965   1.640   0.078 -0.9257  0.2875  0.4004
18997SOL     OW61837   5.218   2.318   7.509  0.7599  0.4590 -0.6185
18997SOL    HW161838   5.124   2.312   7.528  1.0117  0.0628  0.5992
18997SOL    HW261839   5.225   2.299   7.416 -0.1601 -1.8946 -0.2616
18998SOL     OW61840   8.474   2.411   9.156 -0.4186 -0.1348 -0.6396
18998SOL    HW161841   8.509   2.351   9.090 -1.9386 -1.1277 -0.5481
18998SOL    HW261842   8.429   2.478   9.106  0.9414  0.7417 -0.7217
18999SOL     OW61843   5.881   2.660   7.256 -0.0286  0.3521 -0.0246
18999SOL    HW161844   5.959   2.648   7.202 -0.6085 -1.0340 -0.5758
18999SOL    HW261845   5.905   2.625   7.341 -0.0145  0.0377 -0.1593
19000SOL     OW61846   6.712   3.460   8.167 -0.3541  0.2035  0.3236
19000SOL    HW161847   6.735   3.368   8.182  0.2617  0.2952 -0.0521
19000SOL    HW261848   6.697   3.466   8.073  0.4651  0.6760  0.2142
19001SOL     OW61849   5.831   1.916   5.430 -0.4936  0.2453 -0.0351
19001SOL    HW161850   5.865   1.864   5.503 -0.8272  1.9589  1.3846
19001SOL    HW261851   5.796   1.851   5.369  0.2083 -1.2498  1.1046
19002SOL     OW61852   7.992   3.405   7.209 -0.1564 -0.1797 -0.1270
19002SOL    HW161853   8.059   3.461   7.171 -1.1316  1.7059  0.8270
19002SOL    HW261854   7.915   3.420   7.153 -0.6259  0.0118  0.5641
19003SOL     OW61855   6.417   1.759   8.390 -0.2096 -0.6537 -0.6093
19003SOL    HW161856   6.482   1.815   8.432 -1.0272  1.2786 -1.8734
19003SOL    HW261857   6.381   1.707   8.462  0.5412  0.4453  0.5916
19004SOL     OW61858   7.876   2.498   8.448 -0.1986 -0.1805 -0.6789
19004SOL    HW161859   7.849   2.413   8.482  0.4927 -0.6380 -1.2618
19004SOL    HW261860   7.845   2.498   8.357 -0.7491  0.4436 -0.4928
19005SOL     OW61861   6.135   3.201   9.886  0.2350  0.1494 -0.0559
19005SOL    HW161862   6.115   3.127   9.942  0.0187 -0.1505 -0.5239
19005SOL    HW261863   6.229   3.193   9.869  0.5070  0.8268  1.0935
19006SOL     OW61864   7.013   2.377   8.549  0.5897 -0.9155  0.0033
19006SOL    HW161865   6.998   2.342   8.461  0.6504 -0.2386 -0.2722
19006SOL    HW261866   7.071   2.312   8.590  1.1781 -0.8438 -0.7114
19007SOL     OW61867   5.685   1.685   7.568 -0.6907 -0.1032 -0.6671
19007SOL    HW161868   5.654   1.728   7.488 -1.5980 -0.9658 -0.7908
19007SOL    HW261869   5.612   1.694   7.629 -0.9117 -1.5269 -0.7172
19008SOL     OW61870   5.878   3.390   8.628 -0.0592  0.1706  0.2135
19008SOL    HW161871   5.935   3.396   8.705  1.4961 -1.9119 -0.7296
19008SOL    HW261872   5.839   3.477   8.620  2.5207  1.4719  1.2614
19009SOL     OW61873   6.404   1.675   9.258  0.6746 -0.1971  0.3728
19009SOL    HW161874   6.380   1.721   9.178  2.3286  0.0265 -0.0119
19009SOL    HW261875   6.330   1.690   9.317 -1.3762 -1.8237 -1.6853
19010SOL     OW61876   7.806   2.345   8.828  0.4983  0.2531  0.1289
19010SOL    HW161877   7.757   2.346   8.911 -2.4289 -1.1269 -1.4897
19010SOL    HW261878   7.867   2.272   8.838  1.7885  1.5268  1.9028
19011SOL     OW61879   5.609   2.539   8.018  0.3425 -0.2105 -0.1177
19011SOL    HW161880   5.630   2.631   8.029 -0.2759 -0.2033  1.1557
19011SOL    HW261881   5.688   2.500   7.981  1.2364  0.5059  0.9884
19012SOL     OW61882   7.635   3.480   8.843  0.3568  0.4394  0.4173
19012SOL    HW161883   7.567   3.482   8.775 -0.2176  0.7679  0.9929
19012SOL    HW261884   7.711   3.521   8.801  0.9339 -1.9844 -0.9908
19013SOL     OW61885   7.809   1.744   8.136  0.9637 -0.1500 -0.1045
19013SOL    HW161886   7.903   1.735   8.154  0.7849 -1.6459  0.1227
19013SOL    HW261887   7.783   1.660   8.099 -0.8023 -0.6187  2.1127
19014SOL     OW61888   7.320   1.911   8.303  0.2497  0.2752  0.4157
19014SOL    HW161889   7.397   1.856   8.289 -0.2580 -0.4141  0.2822
19014SOL    HW261890   7.269   1.864   8.370  0.0385  0.8138  0.6333
19015SOL     OW61891   8.217   2.973   9.162 -0.5366 -0.7816 -0.1308
19015SOL    HW161892   8.258   3.049   9.203 -0.9851 -0.5634 -0.0712
19015SOL    HW261893   8.256   2.897   9.205  0.7894 -0.6110 -1.0344
19016SOL     OW61894   6.156   3.646   9.229  0.0228 -0.4327 -0.2092
19016SOL    HW161895   6.136   3.577   9.292 -2.0855 -0.5576 -0.9587
19016SOL    HW261896   6.223   3.608   9.172  1.0988 -0.7287  1.2256
19017SOL     OW61897   5.891   1.874   8.105  0.2718  0.2937  0.0713
19017SOL    HW161898   5.979   1.912   8.109  0.5876 -0.2769 -1.3463
19017SOL    HW261899   5.849   1.918   8.031 -0.8379  0.9329  1.0468
19018SOL     OW61900   7.379   3.574   8.721 -0.2276  0.2273 -0.3506
19018SOL    HW161901   7.355   3.595   8.811  0.2326  0.1916 -0.2163
19018SOL    HW261902   7.311   3.514   8.691  0.1429 -0.5230  0.2934
19019SOL     OW61903   7.870   0.988   9.038  0.1059 -0.3303  0.1507
19019SOL    HW161904   7.906   0.989   9.127 -0.1694  2.2279  0.2794
19019SOL    HW261905   7.927   0.929   8.990 -0.9530 -3.4276  2.4837
19020SOL     OW61906   4.716   1.351   6.387 -0.5723  0.3455 -0.2320
19020SOL    HW161907   4.795   1.397   6.360  1.3676 -3.0161 -0.4947
19020SOL    HW261908   4.707   1.370   6.480  0.1904  1.1852 -0.3249
19021SOL     OW61909   6.435   2.609   8.619  0.5991  0.1414 -0.0740
19021SOL    HW161910   6.376   2.662   8.673 -1.9961 -1.0520 -1.6802
19021SOL    HW261911   6.390   2.599   8.536  1.5181 -3.6674 -0.2044
19022SOL     OW61912   5.541   1.805   8.413  0.0229  0.3884 -0.0649
19022SOL    HW161913   5.586   1.744   8.472  0.0886 -0.5676 -1.0897
19022SOL    HW261914   5.454   1.766   8.401  0.3574  0.0352 -1.4114
19023SOL     OW61915   6.859   2.205   9.698  0.3676  0.4019 -0.0503
19023SOL    HW161916   6.812   2.255   9.764  1.5660  2.7581 -0.9241
19023SOL    HW261917   6.929   2.160   9.745 -0.6432 -0.3939  0.7171
19024SOL     OW61918   6.209   1.602   8.869 -0.1181  0.0873  0.2945
19024SOL    HW161919   6.281   1.639   8.921 -0.6383  0.0871  1.0203
19024SOL    HW261920   6.233   1.509   8.860  0.9798  0.4832 -1.1847
19025SOL     OW61921   6.415   1.200   9.777 -0.7222 -0.2645  1.2690
19025SOL    HW161922   6.358   1.141   9.726 -0.6415  1.9940 -1.5539
19025SOL    HW261923   6.360   1.275   9.797  0.4865  0.7499  0.8309
19026SOL     OW61924   8.156   2.427   0.067 -0.4101  0.1727 -0.0513
19026SOL    HW161925   8.112   2.485   0.130 -0.6356 -0.1074  0.0527
19026SOL    HW261926   8.133   2.462  -0.019  0.0633  0.6743  0.0276
19027SOL     OW61927   7.128   0.603   8.300  0.0843  0.1218  0.1647
19027SOL    HW161928   7.043   0.613   8.342 -0.8156  0.8648 -1.7997
19027SOL    HW261929   7.125   0.515   8.260  0.0297  0.3641 -0.3681
19028SOL     OW61930   7.530   2.151   9.458  0.1525 -0.0429  0.5876
19028SOL    HW161931   7.578   2.232   9.474  0.8427 -0.3291 -0.0164
19028SOL    HW261932   7.571   2.087   9.515 -1.6608  0.4757  2.5159
19029SOL     OW61933   6.129   2.012   8.285 -0.2436  0.2091 -0.1424
19029SOL    HW161934   6.156   1.945   8.222 -1.9124  0.2937 -0.9706
19029SOL    HW261935   6.107   1.963   8.364 -0.8103 -0.1516 -0.5253
19030SOL     OW61936   7.033   2.032   9.806  0.0986  0.3863 -0.2547
19030SOL    HW161937   7.025   2.042   9.901  3.0787 -0.7165  0.1629
19030SOL    HW261938   6.994   1.946   9.788  0.1972  0.2673  0.0888
19031SOL     OW61939   6.149   1.754   9.360  0.2139 -0.7589 -0.0580
19031SOL    HW161940   6.086   1.700   9.313 -0.8627  0.5428 -0.1589
19031SOL    HW261941   6.125   1.745   9.452  1.8671 -2.7358  0.2005
19032SOL     OW61942   6.349   1.819   9.040  0.4614 -0.0690 -0.1812
19032SOL    HW161943   6.435   1.860   9.028  0.5564 -0.1708  0.1369
19032SOL    HW261944   6.294   1.858   8.972  0.5393  0.6090  0.1462
19033SOL     OW61945   8.240   2.267   8.564  0.7415  0.5106  0.2217
19033SOL    HW161946   8.155   2.224   8.568  0.3162  1.4084  0.9801
19033SOL    HW261947   8.303   2.196   8.567  0.0324 -0.0956  0.8448
19034SOL     OW61948   4.083   3.320   9.477  0.3708  0.0970  0.2007
19034SOL    HW161949   4.129   3.342   9.396  0.6057  0.1255  0.3397
19034SOL    HW261950   4.132   3.247   9.513  0.2599  0.0769  0.3122
19035SOL     OW61951   4.378   3.921   9.654 -0.9918  0.2443  0.0937
19035SOL    HW161952   4.409   3.957   9.571  0.2401  1.0930  0.9030
19035SOL    HW261953   4.292   3.959   9.666 -1.2729 -0.0487 -0.8914
19036SOL     OW61954   6.374   1.739   0.249 -0.3494  0.2659  0.2100
19036SOL    HW161955   6.322   1.800   0.197  1.3947 -0.6495 -2.7455
19036SOL    HW261956   6.357   1.653   0.209  0.4252 -0.5953  1.6731
19037SOL     OW61957   7.705   3.766   0.195 -0.0745  0.7035  0.0610
19037SOL    HW161958   7.625   3.767   0.248 -1.0493  0.0565 -1.3934
19037SOL    HW261959   7.694   3.838   0.134 -0.4894 -0.6639 -1.5051
19038SOL     OW61960   5.905   3.080   9.081 -0.6552  0.0121 -0.1609
19038SOL    HW161961   5.982   3.023   9.080 -0.2977  0.4465  1.1032
19038SOL    HW261962   5.913   3.133   9.002  1.6646  1.7700  1.2112
19039SOL     OW61963   7.610   2.342   0.009  0.1097 -0.2932  0.0375
19039SOL    HW161964   7.550   2.400   0.057  0.7884 -1.5390  2.4737
19039SOL    HW261965   7.665   2.401  -0.042 -2.0347  0.9647 -0.8857
19040SOL     OW61966   5.711   2.553   1.427 -0.1464 -0.4843  0.3412
19040SOL    HW161967   5.707   2.519   1.517 -2.1039 -1.2624 -0.0090
19040SOL    HW261968   5.701   2.475   1.372 -3.6137  0.4891 -0.4991
19041SOL     OW61969   6.118   3.218   0.657  0.0838 -0.1883 -0.3775
19041SOL    HW161970   6.079   3.189   0.574 -1.3183 -1.9456  0.8624
19041SOL    HW261971   6.181   3.150   0.679 -0.3767 -0.3236  0.5621
19042SOL     OW61972   5.753   0.448   8.877 -0.0591 -1.0063 -0.5240
19042SOL    HW161973   5.766   0.374   8.936  0.4954 -1.3636 -1.0908
19042SOL    HW261974   5.841   0.479   8.856 -0.2577 -0.7894 -1.0547
19043SOL     OW61975   7.185   3.944   9.790  0.0269  0.1663  0.2458
19043SOL    HW161976   7.134   4.000   9.849  0.4604  1.0659 -0.2349
19043SOL    HW261977   7.118   3.897   9.739 -0.3438 -0.2676  1.1044
19044SOL     OW61978   8.969   5.551   0.006  0.1315 -0.6071 -0.3121
19044SOL    HW161979   8.962   5.456   0.019  1.8010 -0.8489 -1.1093
19044SOL    HW261980   9.024   5.581   0.078  0.6438 -0.4243 -0.7801
19045SOL     OW61981   6.348   2.216   0.864 -0.0619  0.9887  0.1498
19045SOL    HW161982   6.346   2.160   0.786 -2.0572 -0.2930  1.0718
19045SOL    HW261983   6.286   2.286   0.845 -2.5333 -0.7278  1.5268
19046SOL     OW61984   7.594   1.593   9.497 -0.1535  0.1640 -0.0120
19046SOL    HW161985   7.600   1.541   9.417  0.0363 -2.1738  1.4710
19046SOL    HW261986   7.505   1.627   9.498  0.3170  1.5256 -1.9775
19047SOL     OW61987   5.725   3.218   0.730 -0.2023 -0.6253  0.3265
19047SOL    HW161988   5.656   3.152   0.729 -2.5757  1.7747 -0.6491
19047SOL    HW261989   5.718   3.261   0.645  2.4314 -0.2420  0.2687
19048SOL     OW61990   6.097   4.027   9.759 -0.4198  0.3012 -0.1921
19048SOL    HW161991   6.012   3.995   9.789 -0.6060  3.1728  2.6043
19048SOL    HW261992   6.154   4.021   9.836  2.0788 -2.0225 -2.1485
19049SOL     OW61993   7.713   4.284   8.837 -0.8357 -0.5164  0.4949
19049SOL    HW161994   7.676   4.352   8.781  0.5459 -0.7469 -0.7213
19049SOL    HW261995   7.776   4.238   8.781  1.9443  0.4378  2.7145
19050SOL     OW61996   7.237   2.178   8.859  0.1544 -0.7423  0.2035
19050SOL    HW161997   7.269   2.089   8.843 -1.1022 -1.1666 -0.0632
19050SOL    HW261998   7.257   2.226   8.778  1.7471 -0.4929  0.7260
19051SOL     OW61999   6.323   4.965   8.290 -0.0790  0.0658  0.6045
19051SOL    HW162000   6.328   4.907   8.214 -1.1598  0.1671  0.4511
19051SOL    HW262001   6.382   5.037   8.269 -0.2403  0.0083 -0.0614
19052SOL     OW62002   7.870   2.973   9.632 -0.1083  0.3117  0.1729
19052SOL    HW162003   7.817   2.904   9.671  0.4697 -0.2051  0.0630
19052SOL    HW262004   7.830   3.055   9.662 -1.1253 -0.0640 -0.1334
19053SOL     OW62005   6.172   2.302   9.039  0.1581  0.1112 -0.1048
19053SOL    HW162006   6.182   2.331   9.130  0.1225 -1.0105  0.2602
19053SOL    HW262007   6.109   2.231   9.044  0.0102  0.1774 -1.0443
19054SOL     OW62008   4.762   2.247   8.246 -0.1048 -1.0915 -0.4946
19054SOL    HW162009   4.837   2.266   8.190 -0.3562 -1.2226 -0.8780
19054SOL    HW262010   4.791   2.172   8.300  0.4799 -0.3594  0.2326
19055SOL     OW62011   4.349   1.397   0.117  0.7665  0.2055 -0.1043
19055SOL    HW162012   4.325   1.319   0.066  0.2230  1.4410 -1.8181
19055SOL    HW262013   4.422   1.369   0.171 -0.9150 -2.1362  1.0569
19056SOL     OW62014   6.283   3.427   0.367 -0.5134 -0.2359 -0.2199
19056SOL    HW162015   6.267   3.336   0.344 -0.3504 -0.2195 -0.3970
19056SOL    HW262016   6.352   3.423   0.434 -1.3417 -0.3144  0.6439
19057SOL     OW62017   5.660   1.103   9.671 -0.5495 -0.0462 -0.0898
19057SOL    HW162018   5.754   1.108   9.657 -0.6268  2.4504  0.0427
19057SOL    HW262019   5.621   1.140   9.592 -1.3606  0.8619  0.7198
19058SOL     OW62020   6.204   2.859   1.175  0.4451  0.0547 -0.1817
19058SOL    HW162021   6.193   2.894   1.087 -1.1312 -0.2743 -0.1248
19058SOL    HW262022   6.115   2.853   1.210  0.7531 -2.8515  0.2591
19059SOL     OW62023   6.897   2.610   8.642 -0.0031 -0.1973 -0.0147
19059SOL    HW162024   6.935   2.526   8.616  0.3885 -0.0310  0.0060
19059SOL    HW262025   6.886   2.658   8.560  1.5105  0.4421  0.1394
19060SOL     OW62026   7.462   1.851   1.769  0.5026  0.2875  0.9916
19060SOL    HW162027   7.556   1.871   1.764  0.6100 -0.1780  1.1381
19060SOL    HW262028   7.421   1.913   1.708  0.9773  0.0155  0.3952
19061SOL     OW62029   4.942   1.908   9.894 -0.0098 -0.6097  0.5697
19061SOL    HW162030   4.857   1.895   9.935 -1.4831 -0.4534 -2.2830
19061SOL    HW262031   4.984   1.822   9.896 -0.6093 -0.8908  1.1632
19062SOL     OW62032   7.701   2.612   9.077 -0.2469  0.7195  0.2396
19062SOL    HW162033   7.663   2.622   9.164 -0.7144  2.3996 -0.1380
19062SOL    HW262034   7.673   2.525   9.049 -0.9675  0.5825  1.3454
19063SOL     OW62035   6.793   1.818   9.132 -0.3006 -0.2302  0.4158
19063SOL    HW162036   6.822   1.806   9.223 -0.3187  0.8801  0.5734
19063SOL    HW262037   6.869   1.795   9.079 -0.5034 -1.5625  0.6802
19064SOL     OW62038   6.249   4.064   0.019  0.3898 -0.0798  0.6675
19064SOL    HW162039   6.317   4.130   0.006 -0.0383  0.1892 -0.2410
19064SOL    HW262040   6.184   4.107   0.076  0.4046  0.0698  0.5700
19065SOL     OW62041   6.963   3.062   9.161 -0.0194  0.5676  0.0865
19065SOL    HW162042   6.937   3.059   9.253  1.1694 -1.1050  0.3933
19065SOL    HW262043   7.026   2.991   9.152 -0.5442  0.3605 -2.1693
19066SOL     OW62044   6.269   1.106   7.781 -0.6200 -0.0306 -0.2864
19066SOL    HW162045   6.228   1.020   7.791 -2.9870  1.1489  0.5347
19066SOL    HW262046   6.196   1.167   7.782  1.1072  2.0782  0.1384
19067SOL     OW62047   5.452   2.732   8.266 -0.6084  0.3698 -0.1956
19067SOL    HW162048   5.363   2.759   8.291 -0.8703  0.4104 -1.1778
19067SOL    HW262049   5.439   2.669   8.195  0.0726 -1.0506  0.9028
19068SOL     OW62050   5.178   2.074   9.834  0.3281 -0.3104 -0.1832
19068SOL    HW162051   5.249   2.021   9.871 -0.5238 -3.1431 -2.4275
19068SOL    HW262052   5.101   2.018   9.841 -1.5773  2.4002  1.4368
19069SOL     OW62053   8.895   5.241   9.417 -0.3739  0.2860  0.0926
19069SOL    HW162054   8.835   5.189   9.363  0.7335  1.8386 -2.7495
19069SOL    HW262055   8.855   5.327   9.420  0.0879  0.4709  0.9399
19070SOL     OW62056   7.765   4.673   8.541  0.0165  0.1559 -0.1316
19070SOL    HW162057   7.745   4.674   8.448  1.1574 -2.1598 -0.4385
19070SOL    HW262058   7.861   4.676   8.545  0.0728 -1.8058  0.8658
19071SOL     OW62059   7.026   2.715   8.124 -0.7230 -0.1805 -0.0032
19071SOL    HW162060   6.943   2.703   8.077 -0.3391  0.1848 -0.7722
19071SOL    HW262061   7.076   2.776   8.070 -0.6824  1.0389  1.4008
19072SOL     OW62062   5.312   4.244   9.111  0.2780 -0.0410  0.1388
19072SOL    HW162063   5.340   4.312   9.050  3.7772  0.1788  1.8253
19072SOL    HW262064   5.259   4.289   9.176 -1.5307  0.1300 -1.4032
19073SOL     OW62065   7.119   1.696   9.311 -0.3034 -0.3104 -0.0409
19073SOL    HW162066   7.112   1.674   9.218  0.9174 -1.6931  0.1737
19073SOL    HW262067   7.064   1.631   9.355  1.7227 -1.7746  0.4344
19074SOL     OW62068   8.441   1.250   8.667  0.3683  0.5607  0.2530
19074SOL    HW162069   8.407   1.184   8.605 -0.3253 -0.3484  1.5822
19074SOL    HW262070   8.420   1.334   8.625 -1.1482 -0.0240 -0.2187
19075SOL     OW62071   5.546   1.668   9.039 -0.7392 -0.4650  0.2510
19075SOL    HW162072   5.615   1.690   8.976 -0.5420 -0.7016  0.3846
19075SOL    HW262073   5.521   1.579   9.017  0.5645 -1.1943  1.6365
19076SOL     OW62074   6.487   3.631   7.953 -0.3665 -0.4068  0.2058
19076SOL    HW162075   6.568   3.587   7.928 -0.3467  0.2185 -0.8713
19076SOL    HW262076   6.509   3.681   8.032  0.0226 -1.0753  0.5150
19077SOL     OW62077   6.003   3.458   8.884 -0.0705  0.1192 -0.0790
19077SOL    HW162078   5.958   3.531   8.927 -1.8710 -1.2054  0.3450
19077SOL    HW262079   6.034   3.403   8.955  1.0026  0.2877 -0.4044
19078SOL     OW62080   6.029   3.135   0.423  0.0839  0.7513  0.1201
19078SOL    HW162081   6.051   3.140   0.330 -0.3829 -0.0312 -0.0375
19078SOL    HW262082   5.941   3.096   0.424  0.1562  0.6136  0.8937
19079SOL     OW62083   5.883   2.800   0.089  0.7931 -0.4929 -0.2203
19079SOL    HW162084   5.929   2.864   0.035 -0.4743  0.6501  0.0280
19079SOL    HW262085   5.924   2.807   0.175  0.8024 -0.1722 -0.2500
19080SOL     OW62086   6.169   1.007   9.371  0.4043  0.1790  0.0809
19080SOL    HW162087   6.105   1.039   9.433  0.2769  0.3137 -0.1174
19080SOL    HW262088   6.241   0.974   9.425 -0.1247 -0.6091  0.3224
19081SOL     OW62089   5.563   1.603   9.943 -0.2722 -0.3141 -0.2307
19081SOL    HW162090   5.579   1.511   9.922 -0.1874 -0.1843 -0.7426
19081SOL    HW262091   5.644   1.648   9.917 -0.7272  0.0625 -1.0118
19082SOL     OW62092   6.568   3.946   9.682 -0.3225  0.1223  0.2506
19082SOL    HW162093   6.526   4.027   9.711 -1.6570 -0.0158 -1.2229
19082SOL    HW262094   6.655   3.974   9.651 -1.5732  1.3609 -2.2920
19083SOL     OW62095   6.821   2.656   0.139 -0.1126  0.1293 -0.2953
19083SOL    HW162096   6.725   2.658   0.145 -0.0952  1.0321 -0.1837
19083SOL    HW262097   6.842   2.724   0.075  0.3847 -1.0372 -1.3791
19084SOL     OW62098   4.861   3.213   8.633  0.7346  0.5991  0.0120
19084SOL    HW162099   4.919   3.274   8.678  1.7294  0.2581 -0.8011
19084SOL    HW262100   4.857   3.244   8.543  1.6333 -0.7975 -0.5210
19085SOL     OW62101   5.904   1.386   8.054  0.1318 -0.1816  0.2183
19085SOL    HW162102   5.873   1.465   8.099 -1.6557 -0.0484 -1.1839
19085SOL    HW262103   5.979   1.415   8.003  0.1977  0.3584  0.6167
19086SOL     OW62104   5.039   2.712   9.483  0.3090  0.1767 -0.2542
19086SOL    HW162105   5.083   2.627   9.470  0.9968  0.5262 -0.2451
19086SOL    HW262106   5.068   2.740   9.570  0.0907  0.4304 -0.2630
19087SOL     OW62107   6.301   2.116   9.509  0.4569  0.2410  0.1805
19087SOL    HW162108   6.361   2.053   9.469 -0.2992 -0.5955  0.3242
19087SOL    HW262109   6.257   2.157   9.434  0.6708  0.3161  0.0961
19088SOL     OW62110   6.567   0.784   9.602 -0.5923 -0.1140 -0.0404
19088SOL    HW162111   6.603   0.862   9.645 -0.7469  0.1307 -0.3515
19088SOL    HW262112   6.644   0.732   9.578 -0.5373 -0.6943  1.3492
19089SOL     OW62113   6.657   1.969   0.189  0.1022 -0.1181  0.0389
19089SOL    HW162114   6.621   2.012   0.266 -1.4126 -1.1192 -0.0835
19089SOL    HW262115   6.734   1.923   0.221 -0.1523 -0.0046  0.8280
19090SOL     OW62116   6.380   2.799   9.921 -0.0344 -0.6947  0.6544
19090SOL    HW162117   6.329   2.718   9.927 -1.3184  0.0760  0.2464
19090SOL    HW262118   6.434   2.787   9.843 -1.6240 -0.3798 -0.5126
19091SOL     OW62119   4.753   4.674   2.102 -0.9727 -0.0773 -0.2039
19091SOL    HW162120   4.800   4.753   2.128 -0.5412 -0.7848  1.2010
19091SOL    HW262121   4.784   4.657   2.013  3.7614 -2.1424  1.6367
19092SOL     OW62122   5.902   4.679   1.366 -0.0342 -0.1281 -0.1090
19092SOL    HW162123   5.816   4.637   1.356  0.9030 -1.8648 -1.1214
19092SOL    HW262124   5.892   4.765   1.326 -0.9276 -0.8472 -1.4850
19093SOL     OW62125   5.417   4.310   9.834 -0.0605  0.0026  0.3005
19093SOL    HW162126   5.357   4.365   9.784 -0.7978  0.4915  1.6858
19093SOL    HW262127   5.449   4.245   9.771  0.0573  1.4003 -1.1228
19094SOL     OW62128   4.391   4.662   1.585 -0.0187 -0.1567  0.5982
19094SOL    HW162129   4.321   4.696   1.530 -0.7424 -1.7921  0.4708
19094SOL    HW262130   4.412   4.734   1.645 -1.1421  0.6760  0.0143
19095SOL     OW62131   6.698   3.966   0.712 -0.0335  0.1996 -0.2525
19095SOL    HW162132   6.790   3.944   0.724  0.4731  1.9344 -0.7810
19095SOL    HW262133   6.681   3.948   0.620  0.2945  1.5814 -0.6062
19096SOL     OW62134   6.539   4.722   8.361  0.5088 -0.3924 -0.3498
19096SOL    HW162135   6.504   4.798   8.314  0.1662  0.2968  0.9821
19096SOL    HW262136   6.476   4.652   8.344  0.4984 -0.2093 -1.0798
19097SOL     OW62137   7.292   4.991   8.717 -0.1944 -0.2345 -0.2952
19097SOL    HW162138   7.303   4.902   8.752 -0.4712 -0.1633 -0.0351
19097SOL    HW262139   7.372   5.037   8.745 -0.3673 -0.2059  0.1598
19098SOL     OW62140   6.263   3.787   9.467  0.2168 -0.5099 -0.3647
19098SOL    HW162141   6.241   3.703   9.426 -1.3599  1.4967 -3.8589
19098SOL    HW262142   6.357   3.797   9.450 -0.2399 -0.1148 -2.8817
19099SOL     OW62143   5.287   4.886   1.222  0.4940  0.7587 -0.5526
19099SOL    HW162144   5.322   4.971   1.197 -1.7469  1.4962 -1.3011
19099SOL    HW262145   5.226   4.862   1.152  1.6673 -1.8484 -0.7573
19100SOL     OW62146   7.250   6.370   0.192  0.1691  0.4797  0.5300
19100SOL    HW162147   7.263   6.440   0.256  1.3872  1.0631 -0.3430
19100SOL    HW262148   7.337   6.354   0.155  0.3222 -2.8449  2.0976
19101SOL     OW62149   6.118   3.213   1.122  0.2439 -0.1733  0.0071
19101SOL    HW162150   6.044   3.217   1.060 -0.6272 -0.3020  1.0233
19101SOL    HW262151   6.187   3.167   1.074 -0.1228  0.4692 -1.1741
19102SOL     OW62152   7.149   4.726   0.122 -0.6001 -0.2298  0.0381
19102SOL    HW162153   7.171   4.689   0.036 -2.1123 -1.4264  0.1440
19102SOL    HW262154   7.164   4.654   0.183  1.0889  0.8021  0.8950
19103SOL     OW62155   6.149   7.783   1.619 -0.1384 -0.0314 -0.1619
19103SOL    HW162156   6.155   7.818   1.530 -0.3040  0.3215 -0.0341
19103SOL    HW262157   6.071   7.728   1.618 -0.5056  0.4875 -0.0555
19104SOL     OW62158   6.030   4.580   1.596 -0.8450 -0.3058 -0.7059
19104SOL    HW162159   5.998   4.599   1.508 -1.9109 -0.6911 -0.4001
19104SOL    HW262160   6.040   4.666   1.636 -3.4594 -0.2334 -0.1132
19105SOL     OW62161   6.617   4.199   2.193  0.0036  1.0195  0.2024
19105SOL    HW162162   6.538   4.153   2.221  1.9821 -4.7753 -3.0049
19105SOL    HW262163   6.605   4.213   2.099  1.5531  2.7848  0.2402
19106SOL     OW62164   8.031   4.152   2.741  0.3536  0.4189 -0.0370
19106SOL    HW162165   8.038   4.247   2.747 -2.3310  0.7290 -0.8198
19106SOL    HW262166   8.096   4.127   2.676  1.6335  1.6154  0.7442
19107SOL     OW62167   4.347   3.763   0.658 -0.2608 -0.2146 -0.0706
19107SOL    HW162168   4.284   3.695   0.683  0.3750 -1.1019 -0.8391
19107SOL    HW262169   4.407   3.719   0.598  0.7267  0.7881  0.1615
19108SOL     OW62170   4.836   4.838   1.451 -0.4424  0.1531 -0.7280
19108SOL    HW162171   4.789   4.896   1.512 -0.5411 -2.3641  1.6970
19108SOL    HW262172   4.922   4.878   1.441 -0.6094  0.9071  0.6908
19109SOL     OW62173   6.026   4.815   9.948  0.0295  0.2902 -0.5449
19109SOL    HW162174   5.977   4.874   9.891  2.0279  2.3884 -0.1498
19109SOL    HW262175   5.977   4.814  10.030 -1.1243 -0.2571 -1.2171
19110SOL     OW62176   4.305   4.482   0.691 -0.5430  0.0204  0.2826
19110SOL    HW162177   4.390   4.460   0.653 -0.1714  0.0267  1.1068
19110SOL    HW262178   4.292   4.574   0.668 -0.2871  0.0461  0.2340
19111SOL     OW62179   8.799   2.124   1.773  0.7086  0.4552 -0.0906
19111SOL    HW162180   8.847   2.181   1.833  0.2002 -0.0551  0.8104
19111SOL    HW262181   8.847   2.131   1.690  0.7503  2.0322  0.0653
19112SOL     OW62182   5.678   4.380   1.063 -0.3068  0.0086  0.6846
19112SOL    HW162183   5.715   4.316   1.001 -1.2124  0.2613 -0.1280
19112SOL    HW262184   5.741   4.453   1.061  0.4541 -0.6196  1.2158
19113SOL     OW62185   8.312   4.514   0.975 -0.1355 -0.2112 -0.5713
19113SOL    HW162186   8.222   4.496   0.950 -0.3628  2.3336 -1.8266
19113SOL    HW262187   8.313   4.608   0.993  1.8894 -0.5233  1.1247
19114SOL     OW62188   5.595   5.737   0.381 -0.1881  0.4694  0.2639
19114SOL    HW162189   5.540   5.741   0.303 -2.2272  1.6826  1.7365
19114SOL    HW262190   5.635   5.824   0.387  1.1898 -0.1068 -0.2634
19115SOL     OW62191   7.045   3.999   0.826  0.2382  0.7508  0.0563
19115SOL    HW162192   7.044   3.947   0.746  0.4162  0.1345  0.4504
19115SOL    HW262193   7.123   3.969   0.873 -1.1332 -0.5754  1.5528
19116SOL     OW62194   8.493   3.650   0.811 -0.3342 -1.0937  0.2602
19116SOL    HW162195   8.410   3.698   0.814 -1.0593 -2.1678 -1.5809
19116SOL    HW262196   8.482   3.579   0.875 -0.0701 -0.0917  1.4363
19117SOL     OW62197   4.928   2.443   0.044  0.0939 -0.2250 -0.9843
19117SOL    HW162198   4.959   2.511   0.104  1.9013 -0.5108 -1.5523
19117SOL    HW262199   4.848   2.410   0.085 -1.4795  2.9936 -1.2548
19118SOL     OW62200   6.618   4.804   9.190  0.1565 -0.0075 -0.4175
19118SOL    HW162201   6.688   4.869   9.196 -1.0827  1.1775  1.5559
19118SOL    HW262202   6.664   4.720   9.194  1.5308  0.7487  0.1501
19119SOL     OW62203   3.812   6.060   3.344  0.1268 -0.0994  0.2912
19119SOL    HW162204   3.816   6.026   3.255  0.5598 -1.4725  0.8140
19119SOL    HW262205   3.751   6.002   3.389 -0.1524  0.6328  0.8748
19120SOL     OW62206   6.551   5.679   0.010 -0.7799  0.2868  0.1323
19120SOL    HW162207   6.563   5.646   0.099  1.0291  1.5918  0.3970
19120SOL    HW262208   6.554   5.775   0.019  0.5083  0.4105 -1.4665
19121SOL     OW62209   7.652   2.107   1.189 -0.2598  0.7385  0.1097
19121SOL    HW162210   7.661   2.020   1.150 -1.8794 -0.3382  2.0114
19121SOL    HW262211   7.742   2.131   1.213 -0.0079 -1.4235  1.5846
19122SOL     OW62212   4.697   6.133   8.679 -0.2117  0.2987  0.1561
19122SOL    HW162213   4.631   6.076   8.718 -0.5048  1.7451  1.8712
19122SOL    HW262214   4.769   6.132   8.742  0.2039  0.9891 -0.3016
19123SOL     OW62215   5.734   6.144   1.923 -0.7861 -0.2753  0.2849
19123SOL    HW162216   5.737   6.058   1.883 -1.2720 -0.3233  0.3463
19123SOL    HW262217   5.683   6.132   2.003 -0.0688 -0.1240  0.7748
19124SOL     OW62218   5.205   2.989   0.570  0.0226 -0.0341 -0.1977
19124SOL    HW162219   5.208   2.896   0.546 -1.8457 -0.2276  0.2701
19124SOL    HW262220   5.166   3.032   0.494 -0.9062  0.1030  0.3597
19125SOL     OW62221   6.556   3.848   0.500 -0.2243  0.1436  0.2945
19125SOL    HW162222   6.641   3.807   0.518  0.3104  0.7785 -0.7687
19125SOL    HW262223   6.509   3.782   0.449  0.7056  0.9047 -1.5765
19126SOL     OW62224   4.322   7.205   0.097 -0.2267 -0.2414  0.5274
19126SOL    HW162225   4.235   7.165   0.105  0.3396 -1.4668  0.5657
19126SOL    HW262226   4.304   7.300   0.095 -1.7779 -0.5335 -2.0340
19127SOL     OW62227   5.097   3.961   9.853  0.1776 -0.4714 -0.5364
19127SOL    HW162228   5.083   3.963   9.759 -0.9417 -0.0210 -0.3613
19127SOL    HW262229   5.170   3.901   9.865  0.6397 -0.1535 -1.7264
19128SOL     OW62230   7.029   2.837   0.670 -0.1819  0.3090 -0.2124
19128SOL    HW162231   6.960   2.842   0.604  1.1139 -2.0941 -1.8346
19128SOL    HW262232   7.104   2.801   0.623  1.3684  0.3448  2.1578
19129SOL     OW62233   6.359   5.219   2.905  0.2487 -0.3054 -0.8656
19129SOL    HW162234   6.368   5.140   2.851 -0.6594 -0.0795 -1.3501
19129SOL    HW262235   6.378   5.189   2.994 -1.9593 -1.4982 -0.7615
19130SOL     OW62236   7.233   6.068   9.222 -0.1379  0.4289 -0.2910
19130SOL    HW162237   7.165   6.045   9.285  0.6671 -2.0800 -0.2775
19130SOL    HW262238   7.287   6.133   9.267 -0.1691 -0.5914  1.2533
19131SOL     OW62239   7.137   2.094   1.377 -0.1544 -0.1591 -0.2149
19131SOL    HW162240   7.080   2.126   1.308 -1.2267 -1.4918  0.0323
19131SOL    HW262241   7.223   2.132   1.357 -0.6048  0.0017 -1.8833
19132SOL     OW62242   4.965   6.141   1.196 -0.4203  0.2611 -0.2310
19132SOL    HW162243   5.022   6.105   1.264 -1.9588  0.1780  1.0625
19132SOL    HW262244   5.020   6.202   1.147  0.6246  0.6044  1.3409
19133SOL     OW62245   5.673   3.769   1.608  0.3371  0.2495  0.0115
19133SOL    HW162246   5.715   3.804   1.530 -1.5977 -0.2194 -1.2515
19133SOL    HW262247   5.695   3.675   1.607 -0.9228 -0.0499 -0.7968
19134SOL     OW62248   7.296   4.312   0.380  0.1484 -0.0140 -0.1375
19134SOL    HW162249   7.290   4.277   0.469 -1.0249 -0.6944 -0.4651
19134SOL    HW262250   7.272   4.404   0.389 -0.4498 -0.1941  0.1888
19135SOL     OW62251   6.098   3.849   0.315 -0.1643 -0.8335 -0.3749
19135SOL    HW162252   6.192   3.850   0.296  0.3954 -0.9282  2.2370
19135SOL    HW262253   6.058   3.892   0.239  2.2718  2.0453 -0.1182
19136SOL     OW62254   5.781   6.175   0.979 -0.1669 -0.0620 -0.2288
19136SOL    HW162255   5.828   6.157   1.061  2.0651  1.6068 -1.0731
19136SOL    HW262256   5.724   6.099   0.967  0.3538 -0.9010  2.2421
19137SOL     OW62257   5.884   5.041   0.743  0.4026  0.5371 -0.3457
19137SOL    HW162258   5.961   5.067   0.693  0.5989  0.9355  0.1750
19137SOL    HW262259   5.839   5.123   0.763 -0.2399  0.3012 -0.7701
19138SOL     OW62260   4.702   5.176   1.853 -0.3801  0.1820  0.2044
19138SOL    HW162261   4.716   5.081   1.847  0.1929  0.2683  0.1881
19138SOL    HW262262   4.641   5.186   1.925 -1.2078 -0.2744 -0.4239
19139SOL     OW62263   7.665   3.645   1.221  0.2975  0.0684 -0.3552
19139SOL    HW162264   7.583   3.647   1.271 -0.4563  2.2307 -1.6180
19139SOL    HW262265   7.733   3.662   1.285 -0.3020 -0.8203  0.5459
19140SOL     OW62266   7.395   5.580   0.413  0.5723  0.1790 -0.5676
19140SOL    HW162267   7.315   5.529   0.427 -0.3680  1.7928  0.2246
19140SOL    HW262268   7.466   5.518   0.422 -0.5607 -1.0627 -0.0910
19141SOL     OW62269   6.748   5.290   0.208  0.5451 -0.1412  0.3566
19141SOL    HW162270   6.659   5.275   0.239 -0.4758  1.4005 -1.6528
19141SOL    HW262271   6.755   5.240   0.127  0.6280  1.6716 -0.8061
19142SOL     OW62272   8.632   6.570   1.772  0.3975  0.1076 -0.1340
19142SOL    HW162273   8.721   6.548   1.746  0.9929  1.7778  0.4260
19142SOL    HW262274   8.616   6.519   1.851  0.1357 -1.6782 -1.3113
19143SOL     OW62275   6.629   4.270   0.381 -0.7544  0.2937  0.3195
19143SOL    HW162276   6.690   4.199   0.399  0.7472  0.7677 -2.5388
19143SOL    HW262277   6.555   4.254   0.439  0.3000 -2.6368  0.9371
19144SOL     OW62278   8.275   4.398   0.696 -0.1657  0.2824 -0.8005
19144SOL    HW162279   8.276   4.322   0.755  1.0542  1.3345  0.5845
19144SOL    HW262280   8.188   4.435   0.707 -0.5447 -0.5368 -0.9934
19145SOL     OW62281   6.164   4.177   1.426 -0.1255  0.3211  0.1286
19145SOL    HW162282   6.205   4.255   1.390 -1.6567  0.8499 -0.4935
19145SOL    HW262283   6.103   4.210   1.493  0.7501 -0.4758  1.3382
19146SOL     OW62284   6.296   5.541   8.947  0.0243  0.1005 -0.0037
19146SOL    HW162285   6.369   5.488   8.914  0.2795  0.4625 -0.0161
19146SOL    HW262286   6.258   5.487   9.017  1.0700  0.4453  0.8379
19147SOL     OW62287   6.533   5.847   1.435  0.1556 -0.7484 -0.3923
19147SOL    HW162288   6.442   5.821   1.419 -0.5966  1.3061  0.3953
19147SOL    HW262289   6.565   5.877   1.350 -0.6419  0.6826 -0.1944
19148SOL     OW62290   9.126   4.548   0.367 -0.4430 -0.2560  0.0452
19148SOL    HW162291   9.150   4.627   0.416 -0.6385 -0.6985  0.8646
19148SOL    HW262292   9.206   4.496   0.365 -1.2421 -1.7193  2.7549
19149SOL     OW62293   5.567   5.349   0.511 -0.0729  0.4013 -0.7327
19149SOL    HW162294   5.646   5.311   0.549 -0.5231  0.3018  0.1128
19149SOL    HW262295   5.566   5.316   0.421  0.7542  0.2653 -0.6954
19150SOL     OW62296   7.333   3.905   1.578 -0.8786  0.3586 -0.6288
19150SOL    HW162297   7.379   3.852   1.642 -0.1940  1.8543  0.1310
19150SOL    HW262298   7.376   3.885   1.495  0.7456  1.2572 -0.0280
19151SOL     OW62299   6.079   6.287   0.545 -0.0969 -0.4603  0.1803
19151SOL    HW162300   6.018   6.305   0.473  0.1244 -0.9614 -0.1407
19151SOL    HW262301   6.033   6.225   0.601 -0.1977 -0.2109  0.3730
19152SOL     OW62302   7.073   6.055   0.672 -0.1035 -0.2537 -0.7168
19152SOL    HW162303   6.978   6.059   0.677  0.0372  2.5118  0.5055
19152SOL    HW262304   7.098   5.992   0.740 -0.9095  1.3456  1.1055
19153SOL     OW62305   5.942   3.882   1.377 -0.3401 -0.0773 -0.1384
19153SOL    HW162306   5.853   3.888   1.344  0.2591  1.0396 -1.5607
19153SOL    HW262307   5.956   3.963   1.427 -0.4678 -0.7236  0.9691
19154SOL     OW62308   7.306   4.285   3.017 -0.0211 -0.0512  0.4320
19154SOL    HW162309   7.372   4.336   3.063 -1.0028  0.2680  1.5115
19154SOL    HW262310   7.267   4.346   2.955 -1.2929  0.5750  1.8212
19155SOL     OW62311   5.442   3.091   7.558  0.2581  0.6223  0.1823
19155SOL    HW162312   5.382   3.161   7.583  0.7354  1.1796 -0.2023
19155SOL    HW262313   5.442   3.031   7.632 -1.9249 -0.1589 -0.4316
19156SOL     OW62314   5.975   4.309   1.606  0.9840  0.1967 -0.2872
19156SOL    HW162315   5.904   4.315   1.670 -0.1003 -0.6750 -1.3776
19156SOL    HW262316   5.997   4.400   1.586  0.4310  0.4730  0.3590
19157SOL     OW62317   6.272   6.419   2.034  0.3547 -0.2735 -0.2606
19157SOL    HW162318   6.218   6.364   2.090 -0.4789  0.5724 -0.2108
19157SOL    HW262319   6.333   6.462   2.094  1.1525 -1.3019 -0.3277
19158SOL     OW62320   7.342   4.693   1.945  0.5131  0.4055 -0.0236
19158SOL    HW162321   7.418   4.635   1.953  0.4927 -0.2132 -3.5709
19158SOL    HW262322   7.365   4.754   1.875 -1.5669  1.3347  0.0568
19159SOL     OW62323   6.326   6.911   1.753  0.2070  0.7371  0.3680
19159SOL    HW162324   6.276   6.924   1.833 -2.8334 -1.0845 -1.1391
19159SOL    HW262325   6.296   6.981   1.695 -0.4698 -0.1989 -0.4421
19160SOL     OW62326   6.976   4.857   9.859 -0.5962  0.6496  0.2816
19160SOL    HW162327   7.061   4.870   9.817 -0.1301  0.1251  1.0501
19160SOL    HW262328   6.950   4.769   9.835  0.6789 -0.4605  2.8213
19161SOL     OW62329   8.007   4.113   0.431  0.4829 -0.1883 -0.1531
19161SOL    HW162330   8.053   4.033   0.407 -1.1726 -1.8911  2.1401
19161SOL    HW262331   8.031   4.175   0.363  1.0040 -2.9183 -2.5685
19162SOL     OW62332   6.054   5.555   9.569  0.5745  0.4654 -0.7598
19162SOL    HW162333   5.980   5.613   9.554 -1.7475 -2.1602  0.0667
19162SOL    HW262334   6.059   5.545   9.664  0.9898 -0.6080 -0.8861
19163SOL     OW62335   7.157   3.593   1.395  0.0080  0.6984  0.4534
19163SOL    HW162336   7.135   3.551   1.311  1.0799 -0.5279  0.7737
19163SOL    HW262337   7.091   3.662   1.405 -0.6551  0.2951 -0.9815
19164SOL     OW62338   5.865   4.831   0.177  0.8070  0.0162  0.0166
19164SOL    HW162339   5.816   4.783   0.244  0.9903 -0.8397 -0.4462
19164SOL    HW262340   5.835   4.921   0.185  0.3598 -0.1961  0.8257
19165SOL     OW62341   7.136   6.666   7.997  0.5548 -0.2139 -0.1414
19165SOL    HW162342   7.050   6.707   8.002  0.5003 -0.2188 -0.9680
19165SOL    HW262343   7.161   6.652   8.089  0.1244  0.7110  0.1297
19166SOL     OW62344   5.672   5.080   1.402  0.0118  0.3972  0.0094
19166SOL    HW162345   5.680   5.138   1.326 -0.9735 -0.1765 -0.5418
19166SOL    HW262346   5.716   4.999   1.376 -1.1725 -0.1536 -0.3334
19167SOL     OW62347   6.375   6.139   0.050  0.3096 -0.1565  0.2365
19167SOL    HW162348   6.453   6.191   0.068 -0.7722  1.1530  1.3064
19167SOL    HW262349   6.392   6.053   0.089  0.6738  0.5537  1.6756
19168SOL     OW62350   6.385   3.609   8.983  0.3050 -0.1542 -0.1984
19168SOL    HW162351   6.451   3.662   8.940 -1.3317  0.0806 -2.5515
19168SOL    HW262352   6.433   3.537   9.023  2.0528  0.5025 -1.0890
19169SOL     OW62353   5.380   4.942   0.589  1.0272 -0.1033 -0.0903
19169SOL    HW162354   5.351   4.950   0.498 -2.3906 -0.2210  0.9059
19169SOL    HW262355   5.470   4.974   0.588  1.3377 -0.7818 -3.6253
19170SOL     OW62356   5.012   4.486   9.483  0.0661 -0.2994  0.1839
19170SOL    HW162357   5.029   4.573   9.519  0.5175 -0.4232  0.2790
19170SOL    HW262358   4.923   4.465   9.511  0.4058 -0.3869  1.2227
19171SOL     OW62359   6.509   3.625   0.341 -0.0692 -0.0901 -0.4149
19171SOL    HW162360   6.603   3.622   0.324  0.0536  0.1580  0.2294
19171SOL    HW262361   6.494   3.556   0.405 -0.2382  0.2659 -0.0759
19172SOL     OW62362   6.767   4.926   0.765 -0.6795 -0.4778 -0.0473
19172SOL    HW162363   6.803   4.998   0.713 -2.7365 -1.0342 -2.3187
19172SOL    HW262364   6.843   4.876   0.794  0.6712  1.7176  0.2425
19173SOL     OW62365   6.791   5.999   0.707 -0.0092  0.4531  0.9465
19173SOL    HW162366   6.702   6.018   0.736 -0.2105 -0.5491  1.0256
19173SOL    HW262367   6.793   5.903   0.699  0.1649  0.6547 -1.9295
19174SOL     OW62368   6.936   3.980   1.917 -0.3005  0.3916  0.1101
19174SOL    HW162369   6.984   3.973   1.835  0.4831  1.1906  0.4971
19174SOL    HW262370   6.899   3.893   1.930 -0.9992  0.4416 -1.4310
19175SOL     OW62371   7.619   5.269   1.056 -0.8880  0.3308 -0.4711
19175SOL    HW162372   7.592   5.265   0.965 -2.0244 -1.6436 -0.0806
19175SOL    HW262373   7.571   5.198   1.099  1.9560 -0.8039  1.0279
19176SOL     OW62374   6.053   5.471   9.840 -0.4673 -0.0669  0.6289
19176SOL    HW162375   6.020   5.393   9.884 -0.7023 -0.5203 -0.3439
19176SOL    HW262376   6.099   5.519   9.908 -0.0904 -1.1831  1.1695
19177SOL     OW62377   6.473   5.386   9.981  0.4933  0.2924  0.2566
19177SOL    HW162378   6.489   5.480   9.968 -3.9855  1.1299  0.0428
19177SOL    HW262379   6.464   5.376  10.075  0.8214  0.1333  0.2694
19178SOL     OW62380   7.802   4.998   1.239 -0.1316  0.4345  0.4340
19178SOL    HW162381   7.782   4.973   1.149 -3.0512 -1.1974  1.4892
19178SOL    HW262382   7.866   5.069   1.230  0.3132 -0.3109 -2.8786
19179SOL     OW62383   6.162   4.881   8.752  0.0046  0.3104  0.3205
19179SOL    HW162384   6.169   4.815   8.683 -1.0273 -0.7171  1.1869
19179SOL    HW262385   6.253   4.901   8.775  0.3249 -0.8965  0.1358
19180SOL     OW62386   6.866   5.597   1.359 -0.1706  0.0145 -0.2619
19180SOL    HW162387   6.847   5.522   1.303 -3.7646  2.9864 -3.3539
19180SOL    HW262388   6.790   5.604   1.417  0.6440  0.5927  0.7503
19181SOL     OW62389   6.710   4.444   0.887 -0.6046 -0.2895 -0.0763
19181SOL    HW162390   6.732   4.471   0.798  0.4626 -1.1606 -0.0801
19181SOL    HW262391   6.732   4.351   0.890 -1.3401 -0.4434  0.8790
19182SOL     OW62392   8.439   5.033   1.588  0.0550 -0.9389 -0.1617
19182SOL    HW162393   8.432   5.127   1.603 -2.1237 -0.9936 -0.6202
19182SOL    HW262394   8.484   5.025   1.504  0.7757 -0.3306  0.1659
19183SOL     OW62395   7.647   7.232   1.023  0.6737 -0.5029 -0.3664
19183SOL    HW162396   7.657   7.312   1.074 -1.3818  0.5981 -1.6351
19183SOL    HW262397   7.729   7.225   0.973  1.6116 -0.1942  1.1169
19184SOL     OW62398   5.684   4.385   0.473  0.1221 -0.3999 -0.4206
19184SOL    HW162399   5.775   4.396   0.502 -0.4709  0.1695  1.2220
19184SOL    HW262400   5.692   4.341   0.388  1.9523  0.0129 -0.4821
19185SOL     OW62401   8.287   3.163   2.207  0.3655  0.2303 -0.1837
19185SOL    HW162402   8.314   3.215   2.282 -1.8601  0.1972  0.6737
19185SOL    HW262403   8.249   3.227   2.146 -2.3419 -0.2983  0.8550
19186SOL     OW62404   6.780   5.132   2.070 -0.0314 -0.2867 -0.3256
19186SOL    HW162405   6.741   5.212   2.103 -0.4135 -0.4355 -0.4103
19186SOL    HW262406   6.712   5.093   2.014  0.7352  0.1602 -1.6037
19187SOL     OW62407   4.888   3.748   1.311  0.2106 -0.1891 -0.5600
19187SOL    HW162408   4.909   3.683   1.378 -0.6089  0.1101 -0.0015
19187SOL    HW262409   4.928   3.714   1.231  2.5378  0.2292  0.3962
19188SOL     OW62410   6.323   3.796   1.258 -0.3481  0.2683  0.4713
19188SOL    HW162411   6.339   3.871   1.315  0.0320  0.5695 -0.0323
19188SOL    HW262412   6.383   3.728   1.291 -0.2505  0.3849  0.5335
19189SOL     OW62413   5.497   3.495   0.675  0.1025 -0.3042  0.1979
19189SOL    HW162414   5.424   3.433   0.670 -1.3486  1.5274 -3.2199
19189SOL    HW262415   5.573   3.446   0.646 -0.6872 -0.9664 -0.7644
19190SOL     OW62416   5.014   5.299   1.074  0.0318 -0.0126  0.1018
19190SOL    HW162417   5.104   5.312   1.043 -0.1802  0.3543 -0.3559
19190SOL    HW262418   5.009   5.204   1.091  0.7634  0.0933  0.9470
19191SOL     OW62419   6.313   3.519   0.077  0.3161 -0.1268  0.6334
19191SOL    HW162420   6.346   3.561   0.156  0.4916  0.0233  0.4824
19191SOL    HW262421   6.364   3.438   0.070  1.8745  0.9321 -0.5310
19192SOL     OW62422   6.896   4.196   9.270 -0.0260 -0.0933 -0.1093
19192SOL    HW162423   6.820   4.158   9.314  0.6660 -1.6734 -0.2290
19192SOL    HW262424   6.959   4.123   9.264  1.8949  1.4285  0.9221
19193SOL     OW62425   8.468   4.269   2.263 -0.0460  0.0847 -0.6293
19193SOL    HW162426   8.491   4.197   2.204 -0.5016  0.7869 -1.6776
19193SOL    HW262427   8.438   4.225   2.342 -1.7455 -0.9168 -1.7954
19194SOL     OW62428   8.309   2.211   2.216  0.1508 -0.2354  0.0155
19194SOL    HW162429   8.378   2.215   2.282  0.0122 -0.1668  0.1560
19194SOL    HW262430   8.335   2.274   2.150  0.2684 -0.2735  0.0244
19195SOL     OW62431   5.649   4.518   1.336 -0.2165 -0.7543 -0.3360
19195SOL    HW162432   5.664   4.455   1.265  0.6407  0.1362 -0.9644
19195SOL    HW262433   5.594   4.585   1.297  1.5172  0.5250 -0.6279
19196SOL     OW62434   8.041   4.589   0.953  0.2989 -0.2444 -0.3938
19196SOL    HW162435   8.035   4.640   1.034  2.4204 -0.2721 -0.2050
19196SOL    HW262436   8.078   4.649   0.889 -1.5143 -0.1759 -1.4312
19197SOL     OW62437   4.343   2.996   1.035 -0.5820 -0.1744  0.1135
19197SOL    HW162438   4.384   3.079   1.060  1.8257 -1.4086  0.4112
19197SOL    HW262439   4.398   2.963   0.964 -0.8741 -2.0331  0.7362
19198SOL     OW62440   7.692   4.452   0.587 -0.0949  0.2689  0.4423
19198SOL    HW162441   7.640   4.474   0.664 -0.7014  0.8266 -0.1185
19198SOL    HW262442   7.656   4.369   0.557 -0.3769  0.4371  0.3116
19199SOL     OW62443   5.374   4.856   1.559  0.4616  0.4430 -0.0802
19199SOL    HW162444   5.442   4.801   1.520 -0.4263  0.7484 -2.0837
19199SOL    HW262445   5.380   4.838   1.653  3.1220  0.2774 -0.2682
19200SOL     OW62446   6.549   5.918   0.173 -0.7207 -0.4832 -0.2313
19200SOL    HW162447   6.630   5.952   0.137 -0.0220 -1.8590  0.0164
19200SOL    HW262448   6.562   5.920   0.268 -1.2796  0.0327 -0.1620
19201SOL     OW62449   6.437   4.470   0.858 -0.3313 -0.3653 -0.2460
19201SOL    HW162450   6.529   4.456   0.879 -0.6696 -1.4122  0.5600
19201SOL    HW262451   6.390   4.401   0.905 -1.5877  0.5430 -0.1363
19202SOL     OW62452   6.452   4.621   9.880 -0.0942  0.7094  0.5196
19202SOL    HW162453   6.487   4.628   9.969 -2.5341 -0.0226  1.5765
19202SOL    HW262454   6.424   4.711   9.859  0.0678  0.7933  0.6586
19203SOL     OW62455   4.470   4.092   2.616 -0.2063  0.2240 -0.6170
19203SOL    HW162456   4.518   4.046   2.685  0.7259  1.1599 -0.6309
19203SOL    HW262457   4.527   4.084   2.539 -0.5788  0.4179 -0.9124
19204SOL     OW62458   6.367   5.633   0.831  0.0220  0.1656 -0.3980
19204SOL    HW162459   6.295   5.577   0.861  0.9541 -1.1934 -0.6295
19204SOL    HW262460   6.359   5.632   0.735 -1.2289  2.1578 -0.3208
19205SOL     OW62461   5.259   5.106   1.599  0.2040  0.0620 -0.3357
19205SOL    HW162462   5.266   5.014   1.576  1.0490  0.2598 -0.9072
19205SOL    HW262463   5.210   5.145   1.527  0.1997  0.1265 -0.2981
19206SOL     OW62464   7.951   3.058   2.000 -0.5807 -0.6004  0.0133
19206SOL    HW162465   7.998   3.070   1.918 -1.0205  1.1327  0.0017
19206SOL    HW262466   7.908   2.973   1.990  0.7006 -1.1558 -0.8782
19207SOL     OW62467   5.691   2.282   1.263 -0.4936 -0.4744 -0.0603
19207SOL    HW162468   5.761   2.294   1.198  0.1225 -0.1482  0.6552
19207SOL    HW262469   5.610   2.284   1.212  0.0007 -0.5211 -0.8593
19208SOL     OW62470   7.954   3.900   0.077 -0.0450  0.1480  0.5746
19208SOL    HW162471   7.881   3.961   0.088  1.0318  1.3435  1.3613
19208SOL    HW262472   7.964   3.859   0.162 -0.8992 -1.3262 -0.0118
19209SOL     OW62473   6.885   4.718   0.222 -0.2467  0.7653  0.1398
19209SOL    HW162474   6.876   4.635   0.268 -1.2666  1.6289  1.5308
19209SOL    HW262475   6.954   4.703   0.157 -0.4408 -1.1579  0.3682
19210SOL     OW62476   7.006   4.577   0.611  0.3345  0.0583 -0.4715
19210SOL    HW162477   6.998   4.539   0.524 -0.2557 -0.8694 -0.0141
19210SOL    HW262478   7.100   4.594   0.621  0.5418 -0.8066 -0.8791
19211SOL     OW62479   6.238   4.187   0.515  0.8493 -0.3531  0.2374
19211SOL    HW162480   6.331   4.183   0.538  0.6736  0.8390  1.2361
19211SOL    HW262481   6.228   4.269   0.467  1.0989 -2.5377 -3.7850
19212SOL     OW62482   6.871   5.114   0.372  0.0540 -0.7171 -0.0357
19212SOL    HW162483   6.858   5.196   0.324  0.7932 -0.5995 -0.0379
19212SOL    HW262484   6.901   5.052   0.305  2.6681 -0.1332  0.5399
19213SOL     OW62485   6.364   3.855   9.133 -0.7543  0.0310  0.0496
19213SOL    HW162486   6.308   3.893   9.065  0.0111  1.0488 -0.0234
19213SOL    HW262487   6.370   3.762   9.109  0.4739  0.5914 -1.9605
19214SOL     OW62488   8.289   3.432   9.465 -0.1709 -0.0693 -0.4380
19214SOL    HW162489   8.306   3.341   9.490 -1.3417  0.6598  3.2783
19214SOL    HW262490   8.215   3.427   9.405 -1.7622 -1.4365  1.5747
19215SOL     OW62491   6.754   4.586   1.279 -0.1249 -0.0139 -0.1901
19215SOL    HW162492   6.775   4.651   1.212  1.5809  0.1708  0.5004
19215SOL    HW262493   6.683   4.534   1.240 -0.7930  1.5782 -1.1688
19216SOL     OW62494   4.347   4.183   1.308  0.1405  0.1884  0.1805
19216SOL    HW162495   4.435   4.196   1.343 -0.2918 -0.7353  1.6319
19216SOL    HW262496   4.331   4.261   1.254  1.3961  0.9110  0.8377
19217SOL     OW62497   7.538   4.714   9.571 -0.3757  0.1597  0.4466
19217SOL    HW162498   7.555   4.648   9.638 -1.4674  1.2346  1.8267
19217SOL    HW262499   7.561   4.797   9.613  2.2566  0.5939 -1.6966
19218SOL     OW62500   6.345   3.465   1.266 -0.2754  0.1874 -0.6387
19218SOL    HW162501   6.411   3.519   1.224  1.6740 -1.1312  0.6885
19218SOL    HW262502   6.389   3.383   1.285 -1.4747  0.2927  2.8707
19219SOL     OW62503   7.366   3.634   1.097 -0.0230 -0.8706 -0.0039
19219SOL    HW162504   7.405   3.712   1.135  1.6986 -0.9677 -1.4862
19219SOL    HW262505   7.350   3.576   1.171 -0.5368  0.5557  1.0082
19220SOL     OW62506   5.667   4.706   8.794  0.1194  0.0306 -0.2255
19220SOL    HW162507   5.656   4.668   8.881 -0.9198  2.0441  0.5702
19220SOL    HW262508   5.744   4.763   8.802 -1.3476  2.0102  0.0497
19221SOL     OW62509   4.803   4.579   1.518  0.2252 -0.3973  0.0823
19221SOL    HW162510   4.810   4.674   1.511  0.3253 -0.3210  1.1386
19221SOL    HW262511   4.890   4.547   1.493  0.5748 -0.1327  0.9280
19222SOL     OW62512   5.513   4.092   9.649  0.5501  0.5938 -0.3911
19222SOL    HW162513   5.592   4.067   9.602 -0.4526 -0.9833 -1.3055
19222SOL    HW262514   5.450   4.023   9.627 -0.1321  0.1141  2.7649
19223SOL     OW62515   4.761   3.261   1.756  0.1994  0.2582  0.0353
19223SOL    HW162516   4.836   3.313   1.783  0.1027 -0.0981  1.0387
19223SOL    HW262517   4.687   3.322   1.757  0.1195  0.1616  1.0391
19224SOL     OW62518   4.738   1.739   2.957  0.1530 -0.7919 -0.6254
19224SOL    HW162519   4.826   1.776   2.953 -0.3018  0.3170 -0.5390
19224SOL    HW262520   4.682   1.806   2.918 -0.6085 -1.6496 -1.0287
19225SOL     OW62521   7.323   5.702   0.635 -0.1542 -0.0783  0.1789
19225SOL    HW162522   7.294   5.639   0.701 -1.2470  0.7723  0.5368
19225SOL    HW262523   7.326   5.653   0.553 -0.5029 -0.7150  0.5465
19226SOL     OW62524   6.664   5.091   1.808  1.2262  0.0020  0.3818
19226SOL    HW162525   6.675   5.086   1.713  1.4995 -1.4501  0.4685
19226SOL    HW262526   6.655   4.999   1.836  2.0579  0.3461  1.8530
19227SOL     OW62527   4.407   7.853   1.769 -0.3985  0.0479  0.7427
19227SOL    HW162528   4.498   7.881   1.784 -0.4229  1.8445 -2.1098
19227SOL    HW262529   4.415   7.765   1.732  0.2344  0.5406 -0.3133
19228SOL     OW62530   6.314   5.198   9.394  0.0944 -0.0868 -0.3980
19228SOL    HW162531   6.339   5.111   9.366  0.0051 -0.5199  0.8421
19228SOL    HW262532   6.333   5.200   9.488 -1.7075  0.5520 -0.0083
19229SOL     OW62533   4.432   4.890   1.769 -0.1842 -0.2215  0.2183
19229SOL    HW162534   4.527   4.878   1.769 -0.0497  0.3078 -2.9243
19229SOL    HW262535   4.420   4.984   1.781 -0.2811 -0.2159  0.0835
19230SOL     OW62536   6.628   2.959   9.968  1.2551  0.2132  0.5200
19230SOL    HW162537   6.691   3.025   9.939  0.7069 -0.1400 -1.5665
19230SOL    HW262538   6.598   2.918   9.887 -1.0966 -0.1273  1.5339
19231SOL     OW62539   4.504   4.029   1.638 -0.7780  0.2268 -0.7956
19231SOL    HW162540   4.543   4.109   1.673 -0.9733  0.0962 -0.2743
19231SOL    HW262541   4.579   3.970   1.625 -0.6210  0.5407 -1.3093
19232SOL     OW62542   8.560   6.051   1.429 -0.3983  0.4015  0.4116
19232SOL    HW162543   8.609   6.003   1.362 -3.9994 -0.2123 -1.8818
19232SOL    HW262544   8.606   6.135   1.436  1.2323 -0.3125 -1.3719
19233SOL     OW62545   7.650   3.869   1.542 -0.1906 -0.2738  0.0749
19233SOL    HW162546   7.687   3.859   1.629 -0.3582  0.4000  0.2197
19233SOL    HW262547   7.681   3.792   1.494 -0.2119 -0.7148  0.7663
19234SOL     OW62548   8.161   7.003   1.251 -0.0328  0.1141 -0.0687
19234SOL    HW162549   8.216   6.964   1.183 -3.0032 -2.1720 -1.2929
19234SOL    HW262550   8.141   7.090   1.219 -0.9731 -0.7610 -1.9448
19235SOL     OW62551   7.032   6.167   1.531  0.4921  0.0857  0.4919
19235SOL    HW162552   7.077   6.133   1.453 -0.3438  0.6965 -0.2665
19235SOL    HW262553   7.036   6.095   1.594 -1.1375 -1.3887 -1.0486
19236SOL     OW62554   4.398   5.716   1.440  0.6375 -0.2295  0.4101
19236SOL    HW162555   4.448   5.790   1.404  1.4934 -1.3652 -0.7664
19236SOL    HW262556   4.311   5.725   1.401  1.3776 -1.0816 -1.4815
19237SOL     OW62557   5.860   6.775   1.814  0.4815 -0.4194  0.1976
19237SOL    HW162558   5.854   6.736   1.726  0.2946 -0.2893  0.1512
19237SOL    HW262559   5.860   6.870   1.798  0.9674 -0.4019  0.3080
19238SOL     OW62560   6.482   4.548   1.158  0.8385 -0.7221 -0.4368
19238SOL    HW162561   6.471   4.642   1.144  0.5911 -0.8068 -0.8240
19238SOL    HW262562   6.468   4.509   1.071 -1.8681 -1.3715  0.2300
19239SOL     OW62563   7.579   3.324   0.790  0.1913  0.1126 -0.1761
19239SOL    HW162564   7.620   3.410   0.798  0.4983 -0.0188 -0.3242
19239SOL    HW262565   7.485   3.343   0.782  0.0786  0.3445  1.5923
19240SOL     OW62566   7.274   5.300   9.698  0.0952 -0.2647  0.6700
19240SOL    HW162567   7.182   5.284   9.722  0.3939  1.5505  3.2445
19240SOL    HW262568   7.305   5.215   9.665 -1.8368 -1.5872  2.1039
19241SOL     OW62569   5.528   4.739   1.272 -0.1735  0.1481  0.3285
19241SOL    HW162570   5.596   4.797   1.239  1.2449 -0.2071  2.5824
19241SOL    HW262571   5.448   4.791   1.269 -0.1479  0.1415 -3.6319
19242SOL     OW62572   7.816   6.593   3.170 -0.3595 -0.5914  0.1342
19242SOL    HW162573   7.808   6.676   3.216  0.4931 -0.3837 -0.0853
19242SOL    HW262574   7.885   6.546   3.217  0.5891 -0.3345 -0.9866
19243SOL     OW62575   5.398   3.176   1.199  0.8003  0.2941  0.4460
19243SOL    HW162576   5.353   3.115   1.141  1.6481  0.2059 -0.1323
19243SOL    HW262577   5.485   3.186   1.160  0.1188  3.2122 -0.4461
19244SOL     OW62578   6.380   5.359   9.191 -0.2846  0.3374 -0.4960
19244SOL    HW162579   6.378   5.286   9.129  0.1940 -0.0264 -0.0888
19244SOL    HW262580   6.358   5.320   9.275  0.0316  0.6459 -0.2665
19245SOL     OW62581   6.011   6.573   0.662 -0.2902  0.5548  0.2509
19245SOL    HW162582   6.033   6.499   0.718 -0.8872  0.4783  0.3888
19245SOL    HW262583   6.061   6.558   0.581 -0.2822  0.0875  0.3411
19246SOL     OW62584   7.544   5.590   2.411  0.4865 -0.6965  0.2979
19246SOL    HW162585   7.587   5.618   2.331  1.5478 -0.1461  1.0441
19246SOL    HW262586   7.585   5.643   2.480 -3.1970  1.7954  0.7356
19247SOL     OW62587   4.721   2.502   9.779  0.7306  0.2931  0.7265
19247SOL    HW162588   4.814   2.521   9.787  0.8540  1.5089 -2.7059
19247SOL    HW262589   4.679   2.587   9.770 -0.5589 -0.3062  0.9143
19248SOL     OW62590   4.309   5.897   0.846 -0.8426 -0.4731 -0.2366
19248SOL    HW162591   4.292   5.833   0.915  0.0707 -0.5544 -0.0874
19248SOL    HW262592   4.387   5.865   0.801 -1.2841 -0.2811 -1.1505
19249SOL     OW62593   6.096   3.739   0.583 -0.3636 -0.1209 -0.1598
19249SOL    HW162594   6.078   3.646   0.594  1.1137 -0.4855 -0.6974
19249SOL    HW262595   6.092   3.753   0.488  1.2384 -0.0404 -0.2306
19250SOL     OW62596   6.070   3.973   8.613  0.2421 -0.3968  0.2089
19250SOL    HW162597   6.087   4.057   8.655 -0.1193  0.9487 -2.2435
19250SOL    HW262598   6.156   3.931   8.607  1.0904  1.5654 -2.1345
19251SOL     OW62599   9.118   5.447   8.657  0.2393  0.1719 -0.5230
19251SOL    HW162600   9.148   5.510   8.592  1.0466 -0.6498 -0.9503
19251SOL    HW262601   9.196   5.422   8.705 -0.2670  0.3685  0.4186
19252SOL     OW62602   5.012   5.500   0.372  0.0145 -0.2573 -0.0504
19252SOL    HW162603   5.068   5.547   0.433  1.0197  0.4877 -1.5039
19252SOL    HW262604   4.970   5.432   0.424  1.9528 -0.5591  1.1592
19253SOL     OW62605   6.895   4.622   1.527 -0.8409  0.0645  0.1696
19253SOL    HW162606   6.839   4.650   1.455 -1.1472  0.8921  0.7229
19253SOL    HW262607   6.904   4.700   1.582 -1.6754 -0.9093  1.7086
19254SOL     OW62608   6.042   5.018   1.781  0.2541  0.1831  0.2625
19254SOL    HW162609   6.043   4.960   1.858 -1.2556 -0.6742 -0.3377
19254SOL    HW262610   6.098   4.974   1.717 -1.2264 -0.8672 -0.3453
19255SOL     OW62611   7.165   5.554   1.754 -0.0675 -0.2270 -0.2928
19255SOL    HW162612   7.070   5.549   1.737  0.0274 -1.5161 -0.5438
19255SOL    HW262613   7.190   5.641   1.725 -1.6879  1.2055  2.4085
19256SOL     OW62614   6.562   6.612   2.598 -0.7737 -0.0859  0.1977
19256SOL    HW162615   6.566   6.631   2.692  0.6644 -0.4739  0.2207
19256SOL    HW262616   6.502   6.678   2.563 -1.0699  0.2605  1.3361
19257SOL     OW62617   5.334   5.356   2.046 -0.5817 -0.0107 -0.0478
19257SOL    HW162618   5.248   5.320   2.066 -1.2788  1.5937 -0.0321
19257SOL    HW262619   5.321   5.451   2.048  1.0552  0.2452 -0.6338
19258SOL     OW62620   6.416   4.895   9.820  0.0070  0.5737 -0.4033
19258SOL    HW162621   6.328   4.925   9.843 -1.1824 -2.2747 -1.1137
19258SOL    HW262622   6.445   4.955   9.752 -1.4646  1.4098 -0.3108
19259SOL     OW62623   6.096   4.533   1.200 -0.0564  0.2536 -0.0563
19259SOL    HW162624   6.155   4.492   1.264  1.5220  0.5670 -1.2718
19259SOL    HW262625   6.018   4.555   1.250  0.0345 -2.0430  1.1537
19260SOL     OW62626   6.898   3.813   0.281 -0.4560  0.1198  0.1213
19260SOL    HW162627   6.858   3.783   0.363 -1.8294 -0.4025 -0.7095
19260SOL    HW262628   6.848   3.767   0.213 -2.6419  4.2238 -1.2308
19261SOL     OW62629   6.049   3.873   9.112 -0.0885  0.0755  0.8495
19261SOL    HW162630   6.098   3.809   9.163  0.3930 -0.5982 -0.4362
19261SOL    HW262631   6.091   3.957   9.132  0.0887 -0.1822  1.5527
19262SOL     OW62632   8.466   4.382   1.581 -0.5439 -0.2784  0.3985
19262SOL    HW162633   8.524   4.363   1.507 -1.4145 -1.4059  0.0008
19262SOL    HW262634   8.426   4.466   1.558  0.2747  0.0878  0.2726
19263SOL     OW62635   4.562   3.592   0.587  0.7437  1.0472 -0.4232
19263SOL    HW162636   4.652   3.616   0.562  1.0584 -0.8142 -1.1690
19263SOL    HW262637   4.528   3.544   0.511 -1.9772  4.3019 -1.3886
19264SOL     OW62638   6.007   4.068   0.596 -0.0116 -0.0806 -0.5029
19264SOL    HW162639   6.050   3.985   0.575  0.2610  0.4297 -1.9898
19264SOL    HW262640   6.062   4.134   0.554 -0.4122  0.8352  0.4091
19265SOL     OW62641   5.844   4.590   0.988 -0.2619 -0.2864  0.6295
19265SOL    HW162642   5.873   4.680   0.971 -1.6618 -0.2465 -1.8785
19265SOL    HW262643   5.916   4.535   0.957 -0.2413 -0.0625  0.2759
19266SOL     OW62644   8.705   5.765   1.686 -0.4938  0.1409 -0.0869
19266SOL    HW162645   8.768   5.826   1.647 -1.9992  1.7272 -0.0543
19266SOL    HW262646   8.752   5.729   1.761  0.3284  1.4568  0.0569
19267SOL     OW62647   7.879   3.139   2.883 -0.9344  0.1758 -0.1009
19267SOL    HW162648   7.948   3.111   2.823 -2.1391 -1.6303 -0.6817
19267SOL    HW262649   7.869   3.233   2.865  2.2191  0.7956  0.9118
19268SOL     OW62650   7.850   4.504   9.702 -0.1253 -0.0083 -0.7581
19268SOL    HW162651   7.906   4.483   9.777 -0.1621 -0.0266 -0.7363
19268SOL    HW262652   7.761   4.497   9.737 -0.1473 -0.2204 -0.8593
19269SOL     OW62653   7.650   7.450   1.539  0.2418 -0.1254  0.1037
19269SOL    HW162654   7.619   7.360   1.532 -1.2335  0.4000 -0.2401
19269SOL    HW262655   7.651   7.467   1.634  1.5079 -0.8244  0.2280
19270SOL     OW62656   4.683   4.052   0.859  0.3501 -0.2434 -0.1091
19270SOL    HW162657   4.674   4.101   0.941  0.8007  1.7922 -1.2454
19270SOL    HW262658   4.697   3.961   0.887 -1.3397  0.1151  2.0251
19271SOL     OW62659   7.975   3.664   9.911  0.4092  0.3759 -0.3798
19271SOL    HW162660   7.993   3.580   9.953  1.0148 -0.3197 -1.9694
19271SOL    HW262661   7.973   3.727   9.982 -1.0490 -1.1309  0.9667
19272SOL     OW62662   5.556   2.965   1.988  0.3066 -0.0456 -0.0341
19272SOL    HW162663   5.534   2.951   1.896  0.1586 -1.1096  0.1565
19272SOL    HW262664   5.651   2.960   1.991  0.3749  1.0387 -0.2954
19273SOL     OW62665   5.863   5.929   2.600 -0.1491 -0.0007 -0.3522
19273SOL    HW162666   5.929   5.914   2.533 -1.3834  0.8718 -1.8104
19273SOL    HW262667   5.804   5.853   2.593 -0.3188  0.1252 -0.3099
19274SOL     OW62668   8.201   4.359   0.060  0.5140 -0.1682  0.3358
19274SOL    HW162669   8.294   4.384   0.058  0.5761 -0.1879  2.1561
19274SOL    HW262670   8.200   4.270   0.094 -0.2692  0.3542  1.6996
19275SOL     OW62671   6.131   4.856   1.578  0.3471  0.0603 -0.2637
19275SOL    HW162672   6.182   4.775   1.572 -2.5608 -1.7482 -1.9518
19275SOL    HW262673   6.136   4.894   1.491  0.8491  1.1769  0.2472
19276SOL     OW62674   6.077   4.956   9.505 -0.6964  0.2177  0.0590
19276SOL    HW162675   6.079   4.882   9.566 -1.9539  0.5032  0.4619
19276SOL    HW262676   6.095   5.033   9.559 -3.2830  0.6425  0.3748
19277SOL     OW62677   6.222   6.220   2.272 -0.2429  0.4472  0.1797
19277SOL    HW162678   6.142   6.168   2.263 -0.5263  0.9276 -0.0977
19277SOL    HW262679   6.290   6.165   2.235 -0.4492  0.0443  0.3927
19278SOL     OW62680   5.302   5.528   2.974 -0.7032  0.2651  0.4562
19278SOL    HW162681   5.255   5.449   3.000 -0.1491 -0.7040 -1.4102
19278SOL    HW262682   5.278   5.541   2.883  0.5018  1.3348  0.2783
19279SOL     OW62683   4.699   4.103   1.947 -0.3518  0.2639  0.3055
19279SOL    HW162684   4.670   4.036   2.009  1.4233 -0.2512  0.6074
19279SOL    HW262685   4.781   4.068   1.910  1.1957  2.7316  1.2884
19280SOL     OW62686   5.974   3.389   9.789  0.2023  0.1482 -0.3330
19280SOL    HW162687   6.038   3.326   9.820  0.6903 -0.0866 -1.7914
19280SOL    HW262688   5.892   3.340   9.785  0.1519  0.1616  0.4964
19281SOL     OW62689   6.577   4.669   2.215  0.6167 -0.0475 -0.4530
19281SOL    HW162690   6.548   4.612   2.144  0.9740  1.0502 -1.4948
19281SOL    HW262691   6.641   4.616   2.263  0.8624 -0.5638 -1.3349
19282SOL     OW62692   6.454   4.264   0.006 -0.0876  0.2492  0.0570
19282SOL    HW162693   6.415   4.336   0.055  2.4382  1.3670  0.5021
19282SOL    HW262694   6.506   4.216   0.070 -2.7636 -2.8156  0.0641
19283SOL     OW62695   5.601   5.320   2.109  0.3905  0.6285  0.3647
19283SOL    HW162696   5.509   5.342   2.127 -0.5707 -1.8286 -1.1807
19283SOL    HW262697   5.613   5.344   2.017  1.7599  2.2732  0.9475
19284SOL     OW62698   6.939   6.119   1.197  0.6316 -0.3588  0.3093
19284SOL    HW162699   6.914   6.211   1.205 -0.8267 -0.5535 -1.4878
19284SOL    HW262700   7.034   6.119   1.194  0.6067  1.3661 -2.0037
19285SOL     OW62701   7.192   5.193   0.457  0.1886 -0.4997  0.0002
19285SOL    HW162702   7.165   5.127   0.393 -1.4674 -0.2772  0.4474
19285SOL    HW262703   7.182   5.150   0.542 -1.6631  0.5389  0.3470
19286SOL     OW62704   7.034   3.101   0.786  0.9642 -0.0508  0.0930
19286SOL    HW162705   7.028   3.023   0.730  0.2258  0.3591 -0.4125
19286SOL    HW262706   6.965   3.158   0.753 -0.8867 -0.6448  2.7753
19287SOL     OW62707   6.781   3.983   1.388 -0.6162  0.4488 -0.8024
19287SOL    HW162708   6.850   4.048   1.381 -0.2545  0.4996  2.2668
19287SOL    HW262709   6.726   4.014   1.460 -0.6358 -2.4088  0.4917
19288SOL     OW62710   5.408   5.120   1.153 -0.0519  0.6439 -0.4629
19288SOL    HW162711   5.475   5.188   1.165  0.8670 -0.0027 -1.8111
19288SOL    HW262712   5.337   5.165   1.107  0.1883  0.9169 -0.5700
19289SOL     OW62713   7.689   3.567   0.952  0.1015  0.2968 -0.1545
19289SOL    HW162714   7.700   3.621   0.874 -0.6889  0.2717 -0.2832
19289SOL    HW262715   7.687   3.630   1.024  2.0391  0.2424 -0.0266
19290SOL     OW62716   6.245   6.248   1.480  0.0100 -0.2852 -0.1242
19290SOL    HW162717   6.331   6.234   1.441 -0.8866 -1.9507 -1.6131
19290SOL    HW262718   6.199   6.304   1.417 -0.4317 -0.5406 -0.0363
19291SOL     OW62719   7.498   3.610   2.193 -0.3973  0.3632  0.4015
19291SOL    HW162720   7.441   3.644   2.125  1.2500  0.7665 -0.8214
19291SOL    HW262721   7.534   3.529   2.157 -0.4679 -0.0840  1.3044
19292SOL     OW62722   4.848   4.489   0.715 -0.2694 -0.4377 -0.3389
19292SOL    HW162723   4.863   4.405   0.760  2.3348  0.3464  0.3334
19292SOL    HW262724   4.892   4.479   0.631 -0.9605 -0.1385 -0.7401
19293SOL     OW62725   4.829   4.091   3.511  0.0195 -0.2636 -0.3053
19293SOL    HW162726   4.799   4.181   3.494 -1.2703 -0.7954 -0.9136
19293SOL    HW262727   4.759   4.052   3.562  1.1280 -0.5691  0.9933
19294SOL     OW62728   6.862   4.555   2.049  0.0335 -0.3367  0.6660
19294SOL    HW162729   6.929   4.609   2.007  1.1790 -1.7731  0.6416
19294SOL    HW262730   6.801   4.534   1.978  0.4843 -0.4554  0.3062
19295SOL     OW62731   6.007   4.083   2.027  0.0437  0.1169 -0.3138
19295SOL    HW162732   6.006   4.051   1.937  0.0861 -1.0017  0.0839
19295SOL    HW262733   6.064   4.161   2.023  0.4193 -0.1898 -1.1547
19296SOL     OW62734   7.071   3.944   0.555 -0.2096  0.1545 -0.1820
19296SOL    HW162735   7.126   3.872   0.524 -0.0251  0.0384  0.4045
19296SOL    HW262736   6.985   3.905   0.568 -1.1673  0.9263 -3.6951
19297SOL     OW62737   7.895   4.644   2.975  0.0944 -1.1752 -0.8761
19297SOL    HW162738   7.939   4.616   3.055 -0.0823 -1.5664 -0.9105
19297SOL    HW262739   7.906   4.739   2.973 -0.6720 -1.0623  0.0726
19298SOL     OW62740   4.580   3.628   3.055 -0.4061 -0.0314 -0.7043
19298SOL    HW162741   4.612   3.714   3.026 -0.8825  0.6941  0.8032
19298SOL    HW262742   4.639   3.604   3.126 -0.9720 -0.4036 -0.3559
19299SOL     OW62743   8.943   4.251   0.845  0.0782  0.0455  0.1534
19299SOL    HW162744   9.018   4.308   0.863 -0.0740 -0.0606  1.1572
19299SOL    HW262745   8.957   4.175   0.901 -0.0055 -0.6626 -0.7805
19300SOL     OW62746   5.547   4.620   0.597  0.0141 -0.4907 -0.2962
19300SOL    HW162747   5.608   4.654   0.663  0.8048  0.2252 -1.3819
19300SOL    HW262748   5.594   4.631   0.514 -0.3524 -2.8060 -0.8287
19301SOL     OW62749   7.118   5.417   0.031 -0.1388  0.0512 -0.0158
19301SOL    HW162750   7.213   5.405   0.028  0.1313  1.5433  1.6516
19301SOL    HW262751   7.093   5.389   0.119 -1.4043 -1.3420 -0.8115
19302SOL     OW62752   5.337   2.850   3.371 -0.2166 -0.6850  0.0496
19302SOL    HW162753   5.368   2.935   3.401 -0.1742  0.3651 -2.8393
19302SOL    HW262754   5.360   2.790   3.442  1.0149  1.4563  1.5217
19303SOL     OW62755   6.912   5.651   2.468 -0.3177  0.5005 -0.0049
19303SOL    HW162756   6.858   5.579   2.499  0.3776 -0.1036 -0.1694
19303SOL    HW262757   6.899   5.652   2.373  0.3662  0.0128 -0.1063
19304SOL     OW62758   7.489   4.746   1.447 -0.2168  0.2541  0.2406
19304SOL    HW162759   7.517   4.660   1.414  1.5024  0.4144  1.2237
19304SOL    HW262760   7.421   4.726   1.511 -0.1295 -0.3490  0.1492
19305SOL     OW62761   8.238   6.562   3.126  0.3687 -0.1468  0.7582
19305SOL    HW162762   8.185   6.483   3.131  0.1333  0.0213  0.9174
19305SOL    HW262763   8.316   6.536   3.077 -0.8263  0.1214 -1.3470
19306SOL     OW62764   5.500   4.477   3.159 -0.0953  0.0225 -0.0801
19306SOL    HW162765   5.414   4.513   3.177  0.6380  2.0287 -0.4981
19306SOL    HW262766   5.483   4.392   3.119 -1.8482  0.1062  0.4544
19307SOL     OW62767   6.252   5.278   1.736  0.2679 -0.2876 -0.5763
19307SOL    HW162768   6.213   5.244   1.656 -0.4498 -1.4419  0.2491
19307SOL    HW262769   6.304   5.205   1.770 -1.4662 -0.6593  1.3446
19308SOL     OW62770   5.766   7.079   3.350 -0.4358  0.0951 -0.1015
19308SOL    HW162771   5.791   7.128   3.271  0.2985 -0.4535 -0.2175
19308SOL    HW262772   5.695   7.021   3.320  0.3599 -0.6573 -0.5442
19309SOL     OW62773   7.751   3.780   2.082  0.5704  0.2636  0.3913
19309SOL    HW162774   7.713   3.727   2.151 -1.6171 -0.4473 -1.3300
19309SOL    HW262775   7.747   3.726   2.004 -0.6398  2.5001 -1.1565
19310SOL     OW62776   5.837   4.007   0.367  0.5205 -0.5740 -0.1253
19310SOL    HW162777   5.928   3.986   0.389  0.3821  0.6641  1.7421
19310SOL    HW262778   5.801   4.046   0.447 -1.5233 -0.6255 -0.9838
19311SOL     OW62779   5.256   4.577   3.174  0.5157 -0.1016  0.7269
19311SOL    HW162780   5.184   4.630   3.139 -0.6701 -1.1223  1.5855
19311SOL    HW262781   5.220   4.536   3.252  1.5832 -1.7390  0.3864
19312SOL     OW62782   4.707   5.570   1.298  0.4633 -0.2423  0.4528
19312SOL    HW162783   4.719   5.583   1.392 -0.5472 -2.3349  0.9106
19312SOL    HW262784   4.658   5.646   1.269  0.9248  0.4999  1.5827
19313SOL     OW62785   6.669   2.801   1.152 -0.2175  0.2741  0.1088
19313SOL    HW162786   6.763   2.810   1.140 -0.5010  1.8053 -1.0198
19313SOL    HW262787   6.631   2.828   1.068 -1.5445 -3.0586 -0.4388
19314SOL     OW62788   5.902   3.210   3.623  0.0187 -0.4523  0.1894
19314SOL    HW162789   5.833   3.158   3.665  0.9888 -2.0988 -0.2251
19314SOL    HW262790   5.884   3.205   3.530  1.3639 -1.8860 -0.0122
19315SOL     OW62791   5.533   4.794   2.884 -0.1572 -0.1742  0.5216
19315SOL    HW162792   5.549   4.790   2.789 -0.5885  2.6186  0.2993
19315SOL    HW262793   5.444   4.829   2.892  0.1262  0.2329  1.9764
19316SOL     OW62794   5.963   5.634   1.582 -0.4323 -0.1281  0.2684
19316SOL    HW162795   5.940   5.692   1.510 -2.1019 -2.1891 -0.9210
19316SOL    HW262796   6.058   5.638   1.588 -0.2932  0.2134 -1.9322
19317SOL     OW62797   6.981   6.874   1.091  0.6715 -0.2661 -0.3299
19317SOL    HW162798   6.888   6.891   1.102  0.5886 -0.5951 -0.5038
19317SOL    HW262799   7.023   6.921   1.163  0.2254 -1.6492  0.8674
19318SOL     OW62800   7.180   5.474   9.471 -0.3847  0.0740  0.7506
19318SOL    HW162801   7.197   5.441   9.559  1.8027  0.1537  0.4033
19318SOL    HW262802   7.218   5.562   9.471 -0.1421 -0.0163 -0.3249
19319SOL     OW62803   7.405   3.316   0.540 -0.3430  0.1305  0.4709
19319SOL    HW162804   7.421   3.336   0.448 -0.6405 -1.7901 -0.0151
19319SOL    HW262805   7.463   3.242   0.559  1.4058  1.9316  2.4700
19320SOL     OW62806   7.517   3.326   1.647  0.1950 -0.3021 -0.3366
19320SOL    HW162807   7.594   3.381   1.630  0.5182 -0.7004 -0.1848
19320SOL    HW262808   7.552   3.237   1.651 -0.0744 -0.3647  1.0084
19321SOL     OW62809   4.120   4.861   1.823 -0.3212  0.6450 -0.3345
19321SOL    HW162810   4.042   4.807   1.814 -0.1043  0.3830 -0.6776
19321SOL    HW262811   4.175   4.813   1.885 -0.2891  0.6571 -0.3537
19322SOL     OW62812   5.867   5.223   2.089 -0.3552 -0.1506  0.5319
19322SOL    HW162813   5.792   5.281   2.084 -0.4311 -0.2888 -0.0034
19322SOL    HW262814   5.939   5.272   2.050  0.0183  0.2621  1.7068
19323SOL     OW62815   6.973   4.715   3.025  0.3071 -0.2296 -0.6304
19323SOL    HW162816   6.940   4.794   3.068  1.6883  0.2344 -0.4163
19323SOL    HW262817   6.999   4.658   3.097  1.2179 -0.0592 -0.8244
19324SOL     OW62818   5.126   5.540   2.013  0.4031  0.5034  0.5644
19324SOL    HW162819   5.116   5.546   1.917  0.8301  2.1486  0.6083
19324SOL    HW262820   5.052   5.485   2.041  0.3677 -0.1287 -0.7272
19325SOL     OW62821   6.436   7.454   0.614  0.4965 -0.0490  0.2847
19325SOL    HW162822   6.394   7.369   0.622 -0.9482  0.4519 -1.6750
19325SOL    HW262823   6.423   7.479   0.523  2.9927  1.2084  0.2126
19326SOL     OW62824   8.809   7.038   3.861  0.1783 -0.0185 -0.0140
19326SOL    HW162825   8.856   7.111   3.901 -0.7470  0.3523  0.4120
19326SOL    HW262826   8.824   7.049   3.767 -0.7192  1.2731 -0.0214
19327SOL     OW62827   7.168   3.424   3.310  0.9528 -0.0267  0.5301
19327SOL    HW162828   7.245   3.393   3.357  0.8478 -1.2199 -0.0653
19327SOL    HW262829   7.135   3.347   3.264 -1.9605 -0.0950  2.6163
19328SOL     OW62830   8.321   4.408   2.920 -0.4897  0.4091 -0.1495
19328SOL    HW162831   8.232   4.398   2.953 -0.5770  1.0248 -0.1972
19328SOL    HW262832   8.373   4.431   2.997 -0.0546 -1.6665  0.1998
19329SOL     OW62833   7.404   6.456   3.062 -0.3549  0.4154  0.4903
19329SOL    HW162834   7.401   6.547   3.034 -0.5933  1.4143  3.5757
19329SOL    HW262835   7.498   6.435   3.064 -0.3637  0.0568 -1.7551
19330SOL     OW62836   5.579   4.070   2.627 -0.2169  0.3331 -0.0872
19330SOL    HW162837   5.640   4.126   2.674  0.1036 -0.7356  0.7805
19330SOL    HW262838   5.635   4.017   2.569 -0.2930 -0.6810  0.7423
19331SOL     OW62839   4.512   4.863   0.419  0.2703 -0.1272 -0.4588
19331SOL    HW162840   4.511   4.958   0.404 -0.3465  0.0093  0.4587
19331SOL    HW262841   4.605   4.841   0.424  0.4869  0.0915 -2.7530
19332SOL     OW62842   7.763   5.930   1.650 -0.5329  0.8486 -0.1409
19332SOL    HW162843   7.844   5.901   1.693 -1.2515 -0.5378  0.3048
19332SOL    HW262844   7.749   5.865   1.581 -0.7679  1.6210 -0.8234
19333SOL     OW62845   7.571   3.606   4.739 -0.0671  0.4935  0.7433
19333SOL    HW162846   7.643   3.556   4.700  0.8548  1.1718  1.5493
19333SOL    HW262847   7.615   3.673   4.793 -1.2066  3.3636 -1.7560
19334SOL     OW62848   6.654   4.684   3.311 -0.0523 -0.7059  0.2443
19334SOL    HW162849   6.699   4.616   3.261 -1.1353 -1.4493  0.2742
19334SOL    HW262850   6.699   4.685   3.396  0.6030 -0.6998 -0.1017
19335SOL     OW62851   6.782   4.319   9.032  0.1950 -0.1887 -0.6565
19335SOL    HW162852   6.857   4.324   8.972  0.5731  1.9127 -0.0336
19335SOL    HW262853   6.817   4.277   9.111  0.1278 -1.3442 -1.2269
19336SOL     OW62854   5.587   4.550   2.698 -0.7056  0.5232  0.0990
19336SOL    HW162855   5.605   4.470   2.648 -0.3626  0.9242 -0.4266
19336SOL    HW262856   5.628   4.535   2.783 -0.8171  0.0572  0.0705
19337SOL     OW62857   6.306   4.744   1.911 -0.2014 -0.5065 -0.4725
19337SOL    HW162858   6.340   4.666   1.955  0.6105  0.5370  0.7847
19337SOL    HW262859   6.310   4.722   1.818  0.6134 -1.7350 -0.1666
19338SOL     OW62860   8.030   6.289   1.959 -0.2424 -0.0268 -0.1344
19338SOL    HW162861   8.118   6.318   1.933  0.9077 -2.1272  1.2291
19338SOL    HW262862   8.036   6.194   1.961 -2.9670 -0.2555 -1.3427
19339SOL     OW62863   5.004   5.010   1.728 -0.0474  0.1753 -0.5837
19339SOL    HW162864   5.094   5.007   1.694 -0.0142  1.3375 -0.6258
19339SOL    HW262865   4.992   5.101   1.755 -1.6656  0.3402 -1.7937
19340SOL     OW62866   6.054   4.852   2.010 -0.0680 -0.1510  0.4121
19340SOL    HW162867   6.139   4.808   2.019  0.0087  0.3948  2.7035
19340SOL    HW262868   5.990   4.781   2.015  0.1547 -0.2801  1.5796
19341SOL     OW62869   8.080   6.825   3.131  0.1364 -0.2043 -0.3974
19341SOL    HW162870   8.129   6.867   3.202  1.1479 -0.5809 -0.8641
19341SOL    HW262871   8.118   6.737   3.125 -1.7466 -1.0937  0.3638
19342SOL     OW62872   7.036   4.300   2.888  0.0727  0.3451 -0.4700
19342SOL    HW162873   7.104   4.259   2.837  0.4989 -0.9718  1.1147
19342SOL    HW262874   6.967   4.233   2.896 -0.9599  1.3045 -1.2100
19343SOL     OW62875   6.129   5.398   2.505 -0.7133 -0.5117 -0.2974
19343SOL    HW162876   6.099   5.424   2.591 -1.5968 -1.5155 -0.2941
19343SOL    HW262877   6.050   5.386   2.453 -0.3160 -2.0628 -0.6056
19344SOL     OW62878   5.793   7.542   0.908  0.0100  0.1720 -0.5387
19344SOL    HW162879   5.862   7.549   0.974  0.6943  0.0770 -1.2373
19344SOL    HW262880   5.837   7.559   0.825 -0.9321  0.7546 -0.9329
19345SOL     OW62881   8.229   4.333   3.965 -0.1779 -0.0502  0.2598
19345SOL    HW162882   8.239   4.245   3.930 -0.0517 -0.4981  1.4049
19345SOL    HW262883   8.190   4.320   4.051 -0.2734  1.0212  0.3799
19346SOL     OW62884   3.908   6.673   2.172  0.0671 -0.2526 -0.4204
19346SOL    HW162885   3.971   6.601   2.167  0.8744  0.4861 -1.1337
19346SOL    HW262886   3.922   6.712   2.258 -1.1150 -1.6036  0.3982
19347SOL     OW62887   5.676   4.640   9.638 -0.1941  0.0885 -0.6617
19347SOL    HW162888   5.696   4.710   9.699 -1.7617  0.0772 -0.1122
19347SOL    HW262889   5.709   4.560   9.680 -1.5488  0.0380  0.3308
19348SOL     OW62890   7.600   4.522   2.286  0.2907 -0.7422 -0.1422
19348SOL    HW162891   7.588   4.609   2.324 -1.6009 -1.7514  1.6858
19348SOL    HW262892   7.695   4.511   2.281  0.5805  0.1303  2.6946
19349SOL     OW62893   6.687   4.544   2.533  0.1544 -0.7090  0.0800
19349SOL    HW162894   6.711   4.626   2.577  2.3450 -1.6038  0.6525
19349SOL    HW262895   6.771   4.502   2.514 -0.9213 -2.6107 -0.6060
19350SOL     OW62896   7.389   6.466   1.318 -0.2263  0.7302  0.4669
19350SOL    HW162897   7.378   6.519   1.396 -1.4163  0.1578  0.6977
19350SOL    HW262898   7.469   6.415   1.334 -1.4637 -0.7210  2.0914
19351SOL     OW62899   5.238   4.581   1.189 -0.3508  0.3432 -0.6109
19351SOL    HW162900   5.291   4.568   1.110 -0.3070 -0.3493 -0.4704
19351SOL    HW262901   5.280   4.526   1.256 -1.4880 -0.5628 -0.6104
19352SOL     OW62902   6.878   5.425   9.252 -0.3665  0.8107 -0.8061
19352SOL    HW162903   6.884   5.461   9.341  0.2689  2.3194 -1.4476
19352SOL    HW262904   6.934   5.347   9.253 -0.7607  0.5284  0.2430
19353SOL     OW62905   5.456   6.745   2.104  0.1669  0.3117 -0.2623
19353SOL    HW162906   5.515   6.820   2.101  0.5454  0.0634  0.9813
19353SOL    HW262907   5.374   6.780   2.139 -0.0859  0.4146 -0.9348
19354SOL     OW62908   7.190   3.637   3.122  0.1793  0.2501  0.5094
19354SOL    HW162909   7.233   3.708   3.170  2.2548 -0.0975 -0.7596
19354SOL    HW262910   7.165   3.574   3.190  0.6840  0.9760  1.3868
19355SOL     OW62911   7.154   6.853   1.593 -0.4793 -0.1038  0.0001
19355SOL    HW162912   7.093   6.885   1.527  1.3747  1.0980 -1.2025
19355SOL    HW262913   7.099   6.815   1.661 -2.5190  0.5231 -1.2528
19356SOL     OW62914   5.686   3.828   1.270 -1.1686 -0.1871  0.2210
19356SOL    HW162915   5.628   3.904   1.261 -1.0877 -0.3158 -1.7589
19356SOL    HW262916   5.698   3.797   1.180  1.1160 -0.8046  0.7084
19357SOL     OW62917   4.818   4.458   3.092 -0.0870 -0.0342  0.1630
19357SOL    HW162918   4.845   4.538   3.137 -1.4759  1.0004 -0.7969
19357SOL    HW262919   4.884   4.393   3.116  0.9213  1.3314  1.1444
19358SOL     OW62920   7.047   4.663   2.775 -0.2965 -0.6325  0.4001
19358SOL    HW162921   7.021   4.687   2.864 -1.7643 -0.2382 -0.1239
19358SOL    HW262922   7.047   4.745   2.727 -1.3544 -1.0886 -0.4061
19359SOL     OW62923   7.031   2.528   2.508  0.1235 -0.6175 -0.2869
19359SOL    HW162924   6.974   2.469   2.458  0.4370 -1.1390 -0.0282
19359SOL    HW262925   7.119   2.509   2.478  0.0781  1.0261 -1.5467
19360SOL     OW62926   6.472   4.329   3.121 -0.1795  0.2123 -0.0309
19360SOL    HW162927   6.473   4.253   3.063 -2.0495 -0.0583  0.2588
19360SOL    HW262928   6.413   4.304   3.192 -1.1402  2.0886 -0.1368
19361SOL     OW62929   7.830   4.675   1.963 -0.6196  0.0411  0.0584
19361SOL    HW162930   7.876   4.591   1.960 -2.2243 -0.8696  0.6097
19361SOL    HW262931   7.888   4.732   2.014  1.2074 -0.2517 -1.6097
19362SOL     OW62932   7.984   3.497   4.083 -0.1641 -0.0887  0.5538
19362SOL    HW162933   8.069   3.531   4.053 -0.5757 -0.2558 -0.8041
19362SOL    HW262934   7.986   3.404   4.060 -0.5637 -0.1755  0.8670
19363SOL     OW62935   7.301   2.982   1.609  0.0247 -0.7919 -0.1539
19363SOL    HW162936   7.251   2.953   1.686 -0.6601 -3.4241 -1.5170
19363SOL    HW262937   7.392   2.978   1.637 -0.3202  0.1715  1.1259
19364SOL     OW62938   5.801   5.384   2.768 -0.1649 -0.0756 -0.0988
19364SOL    HW162939   5.753   5.403   2.688 -0.6132 -1.8140 -0.2678
19364SOL    HW262940   5.735   5.350   2.829  0.7209 -2.1495 -0.2227
19365SOL     OW62941   8.549   2.248   0.867 -0.0237 -0.3237 -0.1063
19365SOL    HW162942   8.583   2.158   0.865 -1.5455 -0.9086 -0.7257
19365SOL    HW262943   8.472   2.245   0.810 -1.0187  0.9859  1.1551
19366SOL     OW62944   5.802   4.902   1.713  0.4650  0.0826  0.1444
19366SOL    HW162945   5.889   4.936   1.737  0.7703 -0.3061 -0.3868
19366SOL    HW262946   5.742   4.974   1.732  1.0738  0.8378 -0.7117
19367SOL     OW62947   4.908   1.913   1.307 -0.1356  0.0005  0.1079
19367SOL    HW162948   4.911   1.850   1.379  1.6099 -1.4726 -1.2069
19367SOL    HW262949   4.821   1.903   1.269 -0.9641  0.5855  1.8018
19368SOL     OW62950   7.897   2.942   1.715 -0.3210 -0.0953 -0.1818
19368SOL    HW162951   7.984   2.980   1.700 -0.9197  1.4404  0.0955
19368SOL    HW262952   7.912   2.848   1.718  1.2182  0.1071 -0.9319
19369SOL     OW62953   7.240   4.458   3.599 -0.6606  0.5283  0.3514
19369SOL    HW162954   7.195   4.380   3.628  2.5560 -0.2958  3.4742
19369SOL    HW262955   7.333   4.439   3.613  0.5217  3.2803 -2.9261
19370SOL     OW62956   7.786   5.034   3.242 -0.4709 -0.1498  0.4747
19370SOL    HW162957   7.881   5.031   3.251 -0.1980 -2.0432 -2.3551
19370SOL    HW262958   7.757   4.945   3.265 -1.5814  0.4890  1.5770
19371SOL     OW62959   5.915   4.502   2.284 -0.1057  0.2227  0.1383
19371SOL    HW162960   5.871   4.582   2.312 -0.8381 -0.1974  0.1985
19371SOL    HW262961   5.927   4.451   2.364  0.7222  0.4442  0.1592
19372SOL     OW62962   7.538   5.214   2.846  0.4423  0.2280  0.4837
19372SOL    HW162963   7.448   5.212   2.877 -0.0670 -1.8900 -1.0294
19372SOL    HW262964   7.533   5.258   2.761  1.0360  1.1966  0.9368
19373SOL     OW62965   6.277   5.133   2.519 -0.2529  0.4380 -0.3845
19373SOL    HW162966   6.295   5.084   2.439 -1.6494 -0.7824  0.0167
19373SOL    HW262967   6.264   5.223   2.490  1.7293  0.4844 -1.2057
19374SOL     OW62968   6.646   4.782   0.553  0.2531 -0.1388  0.0767
19374SOL    HW162969   6.651   4.689   0.576  1.7804  0.0690  0.6561
19374SOL    HW262970   6.673   4.828   0.633  0.5812  0.7777 -0.5517
19375SOL     OW62971   7.585   4.540   0.818 -0.1166 -0.3865 -0.2850
19375SOL    HW162972   7.497   4.523   0.852  0.0914 -1.8667 -0.4534
19375SOL    HW262973   7.580   4.628   0.781 -1.3222 -0.1709  0.3690
19376SOL     OW62974   8.459   3.474   1.033  0.0650 -0.5481 -0.0606
19376SOL    HW162975   8.370   3.466   1.067  0.2014  0.0937  0.4656
19376SOL    HW262976   8.515   3.452   1.108  0.3598  0.1352 -0.0785
19377SOL     OW62977   8.137   2.616   2.899  0.1138 -0.4863 -0.5660
19377SOL    HW162978   8.161   2.532   2.938  1.1132 -0.1064 -0.3515
19377SOL    HW262979   8.212   2.640   2.846 -0.2034  0.2386 -0.6927
19378SOL     OW62980   8.211   6.109   4.153 -0.5896 -0.6214 -0.3794
19378SOL    HW162981   8.218   6.178   4.218  2.1187 -2.2937  1.2005
19378SOL    HW262982   8.289   6.120   4.098 -0.5264 -1.9315 -0.5647
19379SOL     OW62983   8.409   5.234   3.631 -0.0975 -0.1593  0.3248
19379SOL    HW162984   8.448   5.200   3.712  0.9597  1.2855  0.4419
19379SOL    HW262985   8.323   5.193   3.627  1.2379 -3.0799  0.3023
19380SOL     OW62986   6.726   4.007   1.084 -0.4479 -0.6340  0.0661
19380SOL    HW162987   6.637   4.031   1.109 -0.8564 -1.7241 -0.3147
19380SOL    HW262988   6.761   3.961   1.161  0.2128  0.8553  0.6675
19381SOL     OW62989   5.122   5.169   1.346 -0.3028 -0.5275  0.4877
19381SOL    HW162990   5.172   5.235   1.298 -0.5704  0.0313  0.9617
19381SOL    HW262991   5.031   5.197   1.337 -0.6274 -2.0708 -1.1764
19382SOL     OW62992   8.177   3.417   1.056 -0.4730  0.5769 -0.3027
19382SOL    HW162993   8.150   3.439   0.967  1.7934 -1.9788 -1.7234
19382SOL    HW262994   8.215   3.329   1.049  0.9261  0.8172  2.9450
19383SOL     OW62995   7.999   4.808   2.152  0.1385  0.1597  1.1090
19383SOL    HW162996   8.021   4.887   2.103 -0.5489  0.3851  1.1568
19383SOL    HW262997   8.082   4.779   2.188  0.4839  0.5593  0.6446
19384SOL     OW62998   8.171   1.189   0.917 -0.1428 -0.0674  0.7071
19384SOL    HW162999   8.173   1.107   0.965  3.0257 -1.7724 -2.1153
19384SOL    HW263000   8.131   1.167   0.833  2.5801  0.7285 -0.8644
19385SOL     OW63001   7.610   4.317   3.144 -0.5295 -0.0218 -0.8918
19385SOL    HW163002   7.686   4.313   3.202 -2.9390 -0.0577  2.3797
19385SOL    HW263003   7.562   4.235   3.162 -2.1375  0.7066 -1.7426
19386SOL     OW63004   7.247   6.065   3.228  0.3429  0.0193 -0.7552
19386SOL    HW163005   7.238   6.119   3.149  1.6430  0.2453 -0.7601
19386SOL    HW263006   7.278   5.980   3.196 -1.7800 -0.7833 -0.7538
19387SOL     OW63007   7.035   4.619   3.675 -0.0421  0.4936  0.4530
19387SOL    HW163008   7.114   4.574   3.644 -0.0261  0.1143  1.0181
19387SOL    HW263009   7.036   4.605   3.770 -1.5734 -0.8145  0.3116
19388SOL     OW63010   8.294   3.099   3.682  0.8229 -0.3352 -0.4247
19388SOL    HW163011   8.322   3.187   3.706 -1.2861  0.6781 -1.6134
19388SOL    HW263012   8.289   3.052   3.766  1.5190  0.7885  0.2613
19389SOL     OW63013   5.890   4.226   2.269 -0.2046  0.2751  0.0469
19389SOL    HW163014   5.891   4.305   2.215  1.1638  0.5649  0.4851
19389SOL    HW263015   5.805   4.185   2.250 -0.6846  1.5531 -0.5988
19390SOL     OW63016   7.764   3.670   3.515  0.4903  0.1360  0.6221
19390SOL    HW163017   7.842   3.726   3.517  0.1292  0.6418  0.5345
19390SOL    HW263018   7.791   3.594   3.463  0.0890  1.5658 -1.7825
19391SOL     OW63019   6.515   3.320   0.065  0.1979  0.5818 -0.2965
19391SOL    HW163020   6.580   3.270   0.115  0.2582  1.0476  0.0908
19391SOL    HW263021   6.529   3.294  -0.026  1.2051  1.0000 -0.2634
19392SOL     OW63022   6.795   4.406   2.288  0.3465  0.0026 -0.6355
19392SOL    HW163023   6.832   4.442   2.207 -1.6629  2.0144 -0.7023
19392SOL    HW263024   6.745   4.330   2.259  0.2742  0.2518 -1.1756
19393SOL     OW63025   6.646   3.481   2.798  0.0398 -0.1905  0.2485
19393SOL    HW163026   6.604   3.405   2.756 -0.9618 -0.1721  1.1793
19393SOL    HW263027   6.716   3.443   2.851  1.1908 -0.2292 -1.2648
19394SOL     OW63028   5.091   5.869   0.980 -0.3011  0.0433  0.2673
19394SOL    HW163029   5.128   5.913   0.904 -0.1428  0.7827  0.7762
19394SOL    HW263030   5.073   5.780   0.949 -0.3059  0.3582 -0.6561
19395SOL     OW63031   5.467   2.841   0.066 -0.5060 -0.5131 -0.2735
19395SOL    HW163032   5.549   2.821   0.112 -0.4940 -0.2356 -0.1739
19395SOL    HW263033   5.404   2.861   0.136 -0.0455  1.5988 -0.4159
19396SOL     OW63034   7.744   2.718   2.893  0.6926 -0.0879  0.0902
19396SOL    HW163035   7.650   2.729   2.909  0.9486  2.3280  0.0332
19396SOL    HW263036   7.768   2.793   2.839  2.4634 -1.2480 -0.7733
19397SOL     OW63037   7.593   6.055   1.959  0.9113  0.6599  0.0524
19397SOL    HW163038   7.565   6.094   1.876 -0.1140 -2.0295 -0.9040
19397SOL    HW263039   7.645   6.124   2.001 -0.5954  2.9343 -1.6945
19398SOL     OW63040   6.038   5.030   2.607  0.3726  0.4902 -0.2508
19398SOL    HW163041   6.065   5.050   2.696  0.3623 -1.0489  0.1194
19398SOL    HW263042   6.091   5.088   2.552  1.9305 -0.0673  0.6471
19399SOL     OW63043   8.205   1.290   1.904 -0.6196  0.6725 -0.7053
19399SOL    HW163044   8.240   1.202   1.918 -1.0172  0.2198 -2.4883
19399SOL    HW263045   8.275   1.349   1.934 -0.9023 -0.2241  1.8252
19400SOL     OW63046   5.118   4.596   1.764 -0.4656  0.1679 -0.0649
19400SOL    HW163047   5.158   4.595   1.677  1.1101  1.6877  0.6050
19400SOL    HW263048   5.174   4.540   1.817 -2.2181 -1.8833 -0.3341
19401SOL     OW63049   8.627   4.728   4.676 -0.3294 -0.1520 -0.3649
19401SOL    HW163050   8.590   4.813   4.700 -0.6444 -0.5010  0.4041
19401SOL    HW263051   8.718   4.732   4.705 -0.6131 -0.4410  0.5644
19402SOL     OW63052   6.142   4.603   2.203  0.2347  0.2173  0.7274
19402SOL    HW163053   6.176   4.669   2.263 -2.3065  1.4915  0.7986
19402SOL    HW263054   6.073   4.559   2.252  1.7260 -2.4097  0.6036
19403SOL     OW63055   5.058   2.414   2.056 -0.1038  0.4352 -0.2023
19403SOL    HW163056   5.024   2.372   2.135 -2.0840 -0.7570 -1.6107
19403SOL    HW263057   5.107   2.344   2.012  0.1107  0.7972 -0.5346
19404SOL     OW63058   4.720   3.899   1.499  0.3202  0.0310 -0.0427
19404SOL    HW163059   4.765   3.852   1.429 -0.6043  0.1279 -0.7306
19404SOL    HW263060   4.726   3.991   1.474  1.2506  0.1899  0.7694
19405SOL     OW63061   8.049   3.367   3.568 -0.2024  0.6220 -0.4639
19405SOL    HW163062   8.102   3.372   3.648 -0.8170 -0.5177  0.0245
19405SOL    HW263063   8.108   3.328   3.503 -0.1038  0.3405 -0.2078
19406SOL     OW63064   6.769   3.751   4.620  0.1852 -0.7949 -0.2303
19406SOL    HW163065   6.772   3.843   4.644 -0.5958 -0.4249 -1.5397
19406SOL    HW263066   6.676   3.733   4.602  0.3423 -1.8083 -0.1067
19407SOL     OW63067   5.062   4.228   0.932 -0.4010 -0.2896  0.6223
19407SOL    HW163068   5.002   4.285   0.980 -2.6852 -0.9835 -1.2877
19407SOL    HW263069   5.008   4.153   0.907  1.3529 -1.0838 -0.8580
19408SOL     OW63070   6.406   2.090   3.224 -0.3636 -0.0022  0.0842
19408SOL    HW163071   6.460   2.131   3.156 -1.4142 -0.0789 -0.8157
19408SOL    HW263072   6.368   2.164   3.272 -2.1308  0.1246 -1.4370
19409SOL     OW63073   7.615   4.536   1.869 -0.5280  0.1781 -0.2419
19409SOL    HW163074   7.658   4.492   1.796  1.0302 -1.7184  1.7266
19409SOL    HW263075   7.684   4.588   1.910 -0.2629 -2.0351  2.2915
19410SOL     OW63076   6.147   4.483   1.817  0.4559 -0.7051  0.1017
19410SOL    HW163077   6.118   4.509   1.730  1.2174  0.2858  0.1361
19410SOL    HW263078   6.146   4.564   1.868  0.6773 -1.1535  0.8353
19411SOL     OW63079   6.386   1.793   2.414 -0.3895 -0.3931  0.0267
19411SOL    HW163080   6.460   1.852   2.400 -0.4023 -0.6372 -1.0807
19411SOL    HW263081   6.325   1.813   2.344 -2.1286  0.9429  1.8600
19412SOL     OW63082   6.392   5.280   0.962 -0.7567 -0.7782 -0.0131
19412SOL    HW163083   6.359   5.241   0.882 -0.7333  0.5536 -0.6812
19412SOL    HW263084   6.317   5.325   1.000 -0.4450 -0.2662  0.0080
19413SOL     OW63085   6.269   3.455   3.009 -0.1616 -0.2619 -0.8885
19413SOL    HW163086   6.344   3.478   3.064  0.3259  1.3521 -2.1816
19413SOL    HW263087   6.193   3.485   3.058  0.2747  1.2125 -1.0874
19414SOL     OW63088   6.604   3.198   1.835  0.7177  0.2083  0.0818
19414SOL    HW163089   6.643   3.188   1.749  1.5272  0.2958  0.4389
19414SOL    HW263090   6.671   3.241   1.888 -0.7139  2.5144  0.0678
19415SOL     OW63091   5.642   4.385   2.439 -0.0362 -0.5748 -0.3344
19415SOL    HW163092   5.599   4.444   2.377 -1.8996 -0.7142  0.7851
19415SOL    HW263093   5.660   4.306   2.387 -2.3534 -1.0131 -0.5045
19416SOL     OW63094   5.427   4.858   1.830  0.3010  0.1294  0.1085
19416SOL    HW163095   5.470   4.942   1.818  0.5917  0.1182  0.9794
19416SOL    HW263096   5.497   4.800   1.860 -0.1373 -0.1061  0.6997
19417SOL     OW63097   7.310   4.491   0.909  0.2851 -0.0538  0.4769
19417SOL    HW163098   7.341   4.478   0.999 -0.4956 -0.4546  0.6919
19417SOL    HW263099   7.215   4.477   0.914  0.1243  0.7058 -0.2575
19418SOL     OW63100   6.985   4.763   0.812 -0.1753 -0.0368  0.3173
19418SOL    HW163101   7.060   4.807   0.772  0.2717  0.1016  1.2919
19418SOL    HW263102   6.956   4.700   0.746  1.2507 -0.6057  0.2323
19419SOL     OW63103   8.179   5.655   2.311  0.0933  0.1681  0.4996
19419SOL    HW163104   8.202   5.700   2.393  0.4191 -0.8602  0.9738
19419SOL    HW263105   8.132   5.721   2.261  1.0834  1.2345  0.9512
19420SOL     OW63106   6.390   4.190   0.938  0.2409  1.9536  0.1335
19420SOL    HW163107   6.396   4.124   0.869  0.7471  2.3582 -0.2147
19420SOL    HW263108   6.402   4.141   1.019  1.1504  1.6955 -0.1547
19421SOL     OW63109   6.421   2.996   1.719  0.7783 -0.5977 -0.3621
19421SOL    HW163110   6.461   3.028   1.800 -1.5602 -0.1511  0.6536
19421SOL    HW263111   6.406   3.076   1.667  1.8553 -0.8379 -1.0586
19422SOL     OW63112   6.763   4.393   3.820  0.3480  0.2578 -0.4601
19422SOL    HW163113   6.693   4.457   3.809  0.5372  0.3540 -1.1813
19422SOL    HW263114   6.758   4.366   3.912 -1.4336 -0.6849 -0.8221
19423SOL     OW63115   5.090   3.544   3.159  0.2438  0.2929 -0.1305
19423SOL    HW163116   5.144   3.466   3.174  0.0527 -0.0731 -1.3382
19423SOL    HW263117   5.087   3.587   3.245  1.1457 -0.5146  0.3183
19424SOL     OW63118   4.050   4.713   2.881 -0.1042  0.5348  0.1544
19424SOL    HW163119   4.060   4.740   2.790  0.6248  1.5234  0.5199
19424SOL    HW263120   4.125   4.655   2.897 -1.2227 -1.0900 -0.3922
19425SOL     OW63121   6.105   3.386   1.427 -0.3794 -0.0230 -0.3673
19425SOL    HW163122   6.193   3.391   1.465 -0.1066  0.8244 -1.0786
19425SOL    HW263123   6.048   3.368   1.501  0.2834  0.4181  0.2624
19426SOL     OW63124   4.382   3.103   0.708 -1.0782 -0.3145 -0.3455
19426SOL    HW163125   4.292   3.115   0.739 -0.9437 -1.0629  0.3286
19426SOL    HW263126   4.384   3.014   0.673  0.6797 -2.1690  4.1470
19427SOL     OW63127   8.013   4.750   1.657 -0.5688  0.2098 -0.4139
19427SOL    HW163128   8.002   4.672   1.712 -0.4948  0.4380 -0.0740
19427SOL    HW263129   8.104   4.745   1.626 -0.6579 -0.0017 -0.6407
19428SOL     OW63130   4.745   3.810   0.940  0.0571  0.3243  0.4491
19428SOL    HW163131   4.672   3.757   0.972  0.3231 -0.8967 -0.9247
19428SOL    HW263132   4.781   3.760   0.867  0.7133  2.1030 -0.4784
19429SOL     OW63133   5.802   4.722   1.993  0.4669 -0.2673  0.1505
19429SOL    HW163134   5.734   4.786   2.012  0.7922  0.5184 -1.2703
19429SOL    HW263135   5.777   4.684   1.909  1.2249 -0.7343  0.1240
19430SOL     OW63136   7.403   4.333   2.355  0.0797 -0.2644 -0.4574
19430SOL    HW163137   7.474   4.397   2.346 -0.1687 -0.2564 -2.5937
19430SOL    HW263138   7.446   4.248   2.347  0.2973 -0.3533  1.5735
19431SOL     OW63139   6.384   4.011   1.432  0.0713 -0.0183 -0.5246
19431SOL    HW163140   6.365   3.977   1.519 -1.4015 -2.1235 -1.6104
19431SOL    HW263141   6.314   4.073   1.414 -2.1692 -2.7791 -1.8440
19432SOL     OW63142   8.059   2.911   4.105 -0.6592  0.1753  0.0983
19432SOL    HW163143   8.017   2.825   4.104 -1.5520  0.5992 -1.3696
19432SOL    HW263144   8.147   2.896   4.070 -0.4671 -0.3011  0.7867
19433SOL     OW63145   4.936   3.545   1.464 -0.4555 -0.0598 -0.4653
19433SOL    HW163146   4.897   3.482   1.403  0.5524  1.5008 -2.7630
19433SOL    HW263147   5.000   3.493   1.513  1.8355 -0.4926 -3.7240
19434SOL     OW63148   6.136   3.673   1.534  0.1112 -0.2631 -0.1256
19434SOL    HW163149   6.074   3.609   1.567 -0.3418  1.2544  2.0483
19434SOL    HW263150   6.087   3.724   1.469 -0.6309  0.2796  0.8548
19435SOL     OW63151   5.940   3.819   3.453 -0.2218 -0.3812  0.0766
19435SOL    HW163152   5.907   3.885   3.515 -1.7682 -1.0070 -0.0661
19435SOL    HW263153   6.035   3.821   3.465 -0.4384  0.1050  1.8840
19436SOL     OW63154   4.893   4.253   1.263 -0.6249 -0.7272  0.1452
19436SOL    HW163155   4.902   4.284   1.173 -1.3206 -2.4124 -0.5245
19436SOL    HW263156   4.928   4.164   1.261 -1.4033 -1.0605  1.3611
19437SOL     OW63157   7.503   5.529   9.565  0.1999 -0.0373 -0.0547
19437SOL    HW163158   7.464   5.560   9.647  0.3314  0.5912 -0.2320
19437SOL    HW263159   7.453   5.573   9.497 -0.8892 -1.6804 -0.3588
19438SOL     OW63160   7.735   4.120   2.990 -0.1236 -0.0207 -0.1453
19438SOL    HW163161   7.726   4.211   3.017 -1.3676  0.3306 -1.6676
19438SOL    HW263162   7.658   4.103   2.936  0.6620 -1.6379 -0.7930
19439SOL     OW63163   6.999   5.318   1.963 -0.1387 -0.6845  0.2839
19439SOL    HW163164   6.998   5.222   1.956  0.9550 -0.7333  0.6392
19439SOL    HW263165   6.927   5.347   1.906  0.1866 -1.6733 -0.6553
19440SOL     OW63166   7.081   7.392   2.244  0.1343  0.2905 -0.2255
19440SOL    HW163167   7.059   7.478   2.279  1.0661  1.0914 -1.5783
19440SOL    HW263168   7.058   7.397   2.151  1.0422 -0.6122 -0.5106
19441SOL     OW63169   5.834   7.003   2.955 -0.5551 -0.3303  0.3106
19441SOL    HW163170   5.864   7.037   2.871  1.0651 -0.6638  0.7377
19441SOL    HW263171   5.775   7.070   2.989 -0.9721 -0.0508 -0.9348
19442SOL     OW63172   5.671   5.734   3.363 -0.5800 -0.2181  0.4071
19442SOL    HW163173   5.608   5.669   3.332 -2.1132  1.6770 -0.6625
19442SOL    HW263174   5.756   5.692   3.355 -1.4050 -1.5816 -1.6604
19443SOL     OW63175   6.756   5.371   2.233  0.4492  0.0232 -0.0396
19443SOL    HW163176   6.838   5.343   2.274  0.0801 -0.2316  0.5200
19443SOL    HW263177   6.781   5.446   2.179  0.6716  1.3192  1.8252
19444SOL     OW63178   6.388   4.418   1.630 -0.1642  0.2218  0.1208
19444SOL    HW163179   6.315   4.372   1.673 -0.7706  1.9459  1.0003
19444SOL    HW263180   6.465   4.394   1.682 -0.8510  2.0618  2.0482
19445SOL     OW63181   5.950   4.387   1.999  0.2144  0.0537 -0.1101
19445SOL    HW163182   6.032   4.401   1.953  0.8635 -0.8692  0.7444
19445SOL    HW263183   5.948   4.455   2.066  1.0492 -0.8966  0.8950
19446SOL     OW63184   7.150   5.844   1.065 -0.3244  0.4074  0.2861
19446SOL    HW163185   7.233   5.801   1.046  0.4984  1.6537  0.9630
19446SOL    HW263186   7.175   5.927   1.107 -1.9174  0.5388  1.0173
19447SOL     OW63187   5.146   5.614   1.735  0.7120 -0.1285  0.2421
19447SOL    HW163188   5.118   5.663   1.657 -0.1066  0.5459  0.9514
19447SOL    HW263189   5.234   5.582   1.713 -0.4441 -2.0265 -1.9118
19448SOL     OW63190   7.624   4.441   2.907 -0.2112 -0.2736 -0.3091
19448SOL    HW163191   7.640   4.399   2.991 -0.5427 -1.2615 -0.7408
19448SOL    HW263192   7.529   4.452   2.903 -0.1562  0.2006 -0.3511
19449SOL     OW63193   6.844   3.125   2.076  0.4486 -0.3514  0.3611
19449SOL    HW163194   6.930   3.116   2.117  1.1646  0.1064 -1.0250
19449SOL    HW263195   6.832   3.219   2.063  0.4694 -0.5245 -0.9744
19450SOL     OW63196   8.378   4.171   5.385  0.4432  0.0785 -0.3553
19450SOL    HW163197   8.359   4.152   5.293  0.1694 -0.9257 -0.0925
19450SOL    HW263198   8.292   4.190   5.423  0.5225  0.1869 -0.2289
19451SOL     OW63199   3.686   4.274   2.611 -0.0750  0.3243 -0.0444
19451SOL    HW163200   3.758   4.327   2.576  0.1538  0.4384  0.5881
19451SOL    HW263201   3.703   4.186   2.578  0.8692  0.1574  0.8304
19452SOL     OW63202   4.764   3.538   3.241  0.0797  0.5176  0.6019
19452SOL    HW163203   4.793   3.588   3.317  0.1605 -0.0821  0.9691
19452SOL    HW263204   4.750   3.450   3.275 -0.1422  0.3140 -0.0243
19453SOL     OW63205   6.342   3.734   2.642 -0.7541  1.0373  0.5654
19453SOL    HW163206   6.334   3.640   2.625 -0.1917  1.2234 -0.8731
19453SOL    HW263207   6.364   3.740   2.735 -1.7820 -0.2003  0.9092
19454SOL     OW63208   6.478   5.095   1.528 -0.8377 -0.1222 -0.1549
19454SOL    HW163209   6.436   5.064   1.608 -1.9884 -0.7869 -0.9987
19454SOL    HW263210   6.541   5.027   1.506  1.0175  1.0639  1.3324
19455SOL     OW63211   5.966   2.304   3.088 -0.1069  0.3283  0.1539
19455SOL    HW163212   5.902   2.349   3.033  0.6111  0.9689 -0.1696
19455SOL    HW263213   6.017   2.374   3.128  1.7258 -0.2082 -1.2013
19456SOL     OW63214   6.655   4.082   0.159  0.1237  0.2716  0.3965
19456SOL    HW163215   6.577   4.038   0.192 -0.4605  1.1807  0.2577
19456SOL    HW263216   6.711   4.095   0.236 -0.9160  1.7418  0.9208
19457SOL     OW63217   7.172   5.830   3.005  0.0387 -0.2975 -0.5571
19457SOL    HW163218   7.167   5.846   2.910  1.1362  2.3860 -0.2316
19457SOL    HW263219   7.261   5.857   3.028 -0.3186 -0.6447  1.2813
19458SOL     OW63220   7.609   5.687   2.656 -0.1130  0.0435  0.6706
19458SOL    HW163221   7.590   5.781   2.660  0.3323  0.2040 -0.5861
19458SOL    HW263222   7.695   5.679   2.698  1.5698  0.7621 -2.4571
19459SOL     OW63223   5.628   5.110   1.839 -0.5061  0.0565 -0.1811
19459SOL    HW163224   5.537   5.120   1.811  0.1800 -0.3150 -2.6923
19459SOL    HW263225   5.673   5.186   1.801  0.0466  0.8109  1.9385
19460SOL     OW63226   6.919   3.054   4.039 -0.3837 -0.1701 -0.0188
19460SOL    HW163227   6.996   3.094   3.999 -0.9605 -0.4436 -1.4198
19460SOL    HW263228   6.936   3.058   4.133  0.3517  1.7493 -0.2274
19461SOL     OW63229   5.930   6.495   2.542  0.1729  0.4026  0.3900
19461SOL    HW163230   5.907   6.403   2.558  1.8597 -0.1836 -0.4063
19461SOL    HW263231   5.894   6.543   2.616 -2.1981 -0.6768 -0.0430
19462SOL     OW63232   7.571   3.316   2.180  0.1723 -0.1779  0.3122
19462SOL    HW163233   7.504   3.257   2.214 -0.0061  0.8540  1.8023
19462SOL    HW263234   7.652   3.286   2.221  0.3119 -0.2625 -0.0259
19463SOL     OW63235   4.384   5.880   0.492  0.1332  0.0349  0.0641
19463SOL    HW163236   4.443   5.848   0.559  0.3505 -0.6344 -0.4394
19463SOL    HW263237   4.440   5.926   0.430 -0.2725  2.0426  1.1610
19464SOL     OW63238   6.234   4.474   2.475  0.1579 -0.8908  0.4988
19464SOL    HW163239   6.255   4.567   2.480 -0.6179 -0.7349  1.1121
19464SOL    HW263240   6.318   4.430   2.462  0.5641 -0.1260  0.5261
19465SOL     OW63241   6.205   3.617   3.617  0.0079  0.1255  0.5093
19465SOL    HW163242   6.116   3.586   3.637 -0.2566  1.2600  1.1356
19465SOL    HW263243   6.262   3.555   3.661 -0.5242  0.8206  2.2118
19466SOL     OW63244   5.189   4.230   2.449  0.0582  0.0273 -0.0587
19466SOL    HW163245   5.204   4.249   2.357  0.2576 -0.7066 -0.1798
19466SOL    HW263246   5.206   4.312   2.494  1.9636 -0.1466 -0.4509
19467SOL     OW63247   5.366   2.788   1.264  0.1417 -0.9701  0.3132
19467SOL    HW163248   5.387   2.857   1.201  1.0860 -1.8619 -0.3730
19467SOL    HW263249   5.300   2.734   1.220 -0.3700 -0.6785  0.7244
19468SOL     OW63250   5.399   4.324   1.151  0.4537 -0.5028 -0.1311
19468SOL    HW163251   5.485   4.364   1.136 -0.0833  0.6102 -0.2466
19468SOL    HW263252   5.396   4.252   1.089  0.2174  1.1118 -2.0438
19469SOL     OW63253   7.645   5.066   0.427  0.0374 -0.0411  0.1784
19469SOL    HW163254   7.674   4.977   0.445  0.2966 -0.2247 -1.1269
19469SOL    HW263255   7.724   5.111   0.396 -0.8038 -0.2676 -2.3880
19470SOL     OW63256   6.737   5.366   3.511  0.1760 -0.0150 -0.1879
19470SOL    HW163257   6.720   5.418   3.590  1.7022  2.0653 -1.1966
19470SOL    HW263258   6.827   5.388   3.487  1.2041 -3.8303 -0.1606
19471SOL     OW63259   7.466   4.246   2.716 -0.1195 -0.0972 -0.0189
19471SOL    HW163260   7.431   4.328   2.749 -0.0418  0.2767 -0.8640
19471SOL    HW263261   7.555   4.267   2.687  0.2623 -0.6988  0.6777
19472SOL     OW63262   7.535   3.895   2.531  0.1032  0.8357  0.0544
19472SOL    HW163263   7.460   3.835   2.521 -1.0474  2.2703 -0.0952
19472SOL    HW263264   7.546   3.902   2.626  1.1433 -0.6800  0.0716
19473SOL     OW63265   6.885   8.320   3.555  0.0307  0.4637 -0.4752
19473SOL    HW163266   6.793   8.319   3.583 -0.5407  1.0050 -2.2744
19473SOL    HW263267   6.904   8.412   3.538  0.9312  0.3605 -0.0483
19474SOL     OW63268   7.024   6.190   3.421  0.0710 -0.1449 -0.1900
19474SOL    HW163269   7.078   6.182   3.343  0.7337 -0.2560  0.2734
19474SOL    HW263270   7.082   6.165   3.493 -0.8128 -0.9899  0.2428
19475SOL     OW63271   7.672   4.468   3.858 -0.2048  0.4815 -0.0401
19475SOL    HW163272   7.720   4.387   3.845 -0.3117  0.5919 -1.2816
19475SOL    HW263273   7.738   4.532   3.885  0.4079  0.6785 -1.9144
19476SOL     OW63274   6.569   3.541   1.548  0.0621 -0.1765  0.3068
19476SOL    HW163275   6.492   3.575   1.593  1.3897  1.9071  1.1010
19476SOL    HW263276   6.584   3.603   1.476  1.0592 -0.4944  0.2332
19477SOL     OW63277   7.856   3.561   2.618 -0.3175 -0.0228  0.7061
19477SOL    HW163278   7.901   3.644   2.637  1.7531 -0.4035 -2.0693
19477SOL    HW263279   7.863   3.553   2.523 -0.7848 -3.2474  0.9182
19478SOL     OW63280   6.714   4.523   1.769  0.6164  0.1585  0.3328
19478SOL    HW163281   6.737   4.594   1.710 -0.4717  0.0628 -0.2105
19478SOL    HW263282   6.677   4.455   1.713  0.9264 -0.5246  0.9407
19479SOL     OW63283   5.523   4.571   1.579 -0.1030  0.2407  0.1022
19479SOL    HW163284   5.565   4.561   1.494 -0.7899 -1.7550 -0.0337
19479SOL    HW263285   5.433   4.542   1.565 -0.6931  1.5074  1.1213
19480SOL     OW63286   6.232   3.959   0.936  0.5906  0.1105 -0.1569
19480SOL    HW163287   6.275   3.893   0.989  1.8608  1.5454  0.6476
19480SOL    HW263288   6.289   3.971   0.860  0.0347 -0.1721 -0.6260
19481SOL     OW63289   5.058   4.430   1.436  0.2197  1.1163 -0.2022
19481SOL    HW163290   4.992   4.399   1.374 -0.4494  0.3843  0.8569
19481SOL    HW263291   5.114   4.354   1.452 -1.2072  0.5233  2.1288
19482SOL     OW63292   7.965   3.262   1.495 -0.0064 -0.6630  0.0061
19482SOL    HW163293   7.945   3.349   1.459 -0.8217 -1.0844 -0.5787
19482SOL    HW263294   7.943   3.268   1.588 -0.7131 -0.4456 -0.1731
19483SOL     OW63295   7.949   5.222   3.962  0.0302 -0.1565 -0.0444
19483SOL    HW163296   8.020   5.177   3.916 -0.2458 -0.2719 -0.3534
19483SOL    HW263297   7.954   5.312   3.931  0.0988 -0.1442  0.0026
19484SOL     OW63298   5.849   5.468   1.361 -0.4248  0.1365  0.2756
19484SOL    HW163299   5.913   5.534   1.334 -0.1149 -0.3294 -0.1512
19484SOL    HW263300   5.851   5.470   1.457 -3.0994  3.3228  0.3642
19485SOL     OW63301   8.016   3.879   2.066 -0.0199  0.2317  0.0407
19485SOL    HW163302   8.006   3.788   2.091  0.6295  0.4874  1.2859
19485SOL    HW263303   8.111   3.893   2.062 -0.1120  0.8666 -0.0750
19486SOL     OW63304   7.323   5.730   2.626  0.2668  0.2120  0.4359
19486SOL    HW163305   7.317   5.707   2.533  0.5349 -0.5351  0.6023
19486SOL    HW263306   7.416   5.726   2.645  0.3267  1.4726  0.4660
19487SOL     OW63307   7.028   3.083   4.300  0.4905  0.1343 -0.6414
19487SOL    HW163308   7.101   3.113   4.354 -0.8870  1.3981  0.5323
19487SOL    HW263309   7.050   2.992   4.279  0.9662 -0.4502  2.1975
19488SOL     OW63310   6.016   4.125   2.673 -0.9071  0.1760  0.1981
19488SOL    HW163311   5.981   4.086   2.753  0.3350 -1.8963 -0.2271
19488SOL    HW263312   5.978   4.073   2.603  0.6206 -0.1782 -0.3915
19489SOL     OW63313   8.688   3.640   2.776  0.1115 -0.0811 -0.1206
19489SOL    HW163314   8.771   3.650   2.823  0.1466 -1.0612  0.0422
19489SOL    HW263315   8.650   3.559   2.811 -0.2884 -0.3455 -1.1350
19490SOL     OW63316   8.264   4.777   1.536  0.2615  0.5833 -0.1184
19490SOL    HW163317   8.321   4.831   1.590 -0.5638  2.7842 -1.3921
19490SOL    HW263318   8.323   4.733   1.475  0.8466  0.7470  0.3219
19491SOL     OW63319   7.559   4.996   3.070 -0.0747  0.2101 -0.0220
19491SOL    HW163320   7.554   5.072   3.013  1.0588  0.2835 -0.0336
19491SOL    HW263321   7.610   5.026   3.146  0.8012 -0.6745 -0.2558
19492SOL     OW63322   6.967   2.557   3.465  0.2127  0.7683 -1.0346
19492SOL    HW163323   7.052   2.517   3.447  0.1013 -0.4304  1.0270
19492SOL    HW263324   6.985   2.621   3.533 -0.6641 -0.0387 -0.0346
19493SOL     OW63325   6.545   4.016   2.681 -0.1901  0.2266  0.0447
19493SOL    HW163326   6.512   4.002   2.770 -0.1183  0.9260  0.1808
19493SOL    HW263327   6.551   4.111   2.672 -1.3352  0.1919 -1.1343
19494SOL     OW63328   7.942   3.873   2.679 -0.4158 -0.0839 -0.2346
19494SOL    HW163329   7.900   3.956   2.658 -0.1310  0.3399  0.8389
19494SOL    HW263330   8.029   3.880   2.638 -1.2934 -0.8801 -2.2779
19495SOL     OW63331   6.669   5.237   1.389  0.5294 -0.0898  0.0567
19495SOL    HW163332   6.653   5.217   1.297 -1.5009  4.0388 -0.6072
19495SOL    HW263333   6.587   5.217   1.433 -0.1829  2.6608  0.0522
19496SOL     OW63334   6.878   3.336   3.498 -0.2542 -0.2282  0.0003
19496SOL    HW163335   6.962   3.328   3.542  0.8541  1.7349 -1.6736
19496SOL    HW263336   6.874   3.261   3.439  1.1625  0.6494 -1.2348
19497SOL     OW63337   7.339   5.408   2.369 -0.0548 -0.1543 -0.6346
19497SOL    HW163338   7.383   5.367   2.295 -1.6209 -0.7785 -1.2450
19497SOL    HW263339   7.395   5.482   2.392  0.6453 -0.1785 -2.1901
19498SOL     OW63340   8.644   1.691   2.791 -0.1537  0.0611 -0.5103
19498SOL    HW163341   8.727   1.659   2.756 -0.0189 -0.9248  0.7059
19498SOL    HW263342   8.586   1.614   2.791 -0.3277  0.1785  0.8861
19499SOL     OW63343   6.104   4.557   0.028 -0.6462 -0.0260 -0.3531
19499SOL    HW163344   6.090   4.648   0.003  2.3444  0.6782  0.3176
19499SOL    HW263345   6.150   4.518  -0.047 -2.6172 -1.2371 -0.9726
19500SOL     OW63346   6.844   6.821   1.806 -0.7601 -0.0904  0.1723
19500SOL    HW163347   6.835   6.736   1.847 -0.3882 -0.5926 -0.7609
19500SOL    HW263348   6.786   6.817   1.730  0.1130  0.0654 -0.5161
19501SOL     OW63349   7.352   3.528   2.730 -0.3443  0.0808  0.2709
19501SOL    HW163350   7.370   3.434   2.737  1.0092  0.3510  0.6144
19501SOL    HW263351   7.309   3.538   2.646  1.1379 -0.6267 -0.5964
19502SOL     OW63352   6.950   5.885   4.948 -0.8628 -0.5551 -0.0898
19502SOL    HW163353   6.951   5.978   4.923  0.6778 -0.6305 -0.3699
19502SOL    HW263354   6.996   5.882   5.032 -0.3686 -1.1416 -0.3791
19503SOL     OW63355   7.577   5.342   5.485  0.1004 -0.0074 -0.1630
19503SOL    HW163356   7.631   5.279   5.534 -0.7420  1.1458  2.3400
19503SOL    HW263357   7.490   5.303   5.483  0.2859 -0.3612 -1.3445
19504SOL     OW63358   5.536   3.758   3.123 -0.2965 -0.0996  0.6193
19504SOL    HW163359   5.461   3.774   3.180 -0.3034  2.4366 -0.0166
19504SOL    HW263360   5.612   3.787   3.175  0.0649 -0.9411  0.5747
19505SOL     OW63361   7.135   4.687   3.407  0.1977 -0.3820 -0.4259
19505SOL    HW163362   7.168   4.774   3.431 -1.9045  1.3199 -3.3343
19505SOL    HW263363   7.053   4.679   3.457  0.9201 -1.1701  0.6487
19506SOL     OW63364   5.411   3.916   2.460 -0.0762 -0.0356  0.1123
19506SOL    HW163365   5.335   3.930   2.517 -0.9940  0.7824 -1.3055
19506SOL    HW263366   5.470   3.988   2.481  0.0398 -0.3014  0.7362
19507SOL     OW63367   7.293   4.104   1.208  0.0419  0.2133  1.1047
19507SOL    HW163368   7.224   4.123   1.271 -0.5502 -1.3201  0.9272
19507SOL    HW263369   7.322   4.191   1.178 -1.8752  0.8759  1.0979
19508SOL     OW63370   8.049   5.282   4.480 -0.5875 -0.1525  0.1794
19508SOL    HW163371   7.958   5.313   4.473  0.0871  1.6876 -0.8611
19508SOL    HW263372   8.073   5.260   4.390  0.5221  0.9475  0.1999
19509SOL     OW63373   6.532   3.926   3.814  0.5582 -0.2331  0.4348
19509SOL    HW163374   6.540   3.843   3.767  1.8609 -0.3985  0.9341
19509SOL    HW263375   6.567   3.909   3.901 -1.0770  0.2971  1.2238
19510SOL     OW63376   7.015   6.294   3.705  0.5371  0.3664 -0.0543
19510SOL    HW163377   7.000   6.206   3.740  0.3547 -0.9096 -3.1901
19510SOL    HW263378   6.942   6.346   3.738 -0.8767 -1.3519 -0.4140
19511SOL     OW63379   7.163   4.002   7.357  0.4879  0.5175  0.2735
19511SOL    HW163380   7.117   4.080   7.388 -1.8546 -0.7993  0.1984
19511SOL    HW263381   7.243   4.036   7.317 -1.4629  3.0981 -1.6025
19512SOL     OW63382   6.798   6.523   5.915 -0.2352  0.3570  0.2753
19512SOL    HW163383   6.744   6.548   5.840 -0.9775 -1.0309  0.3220
19512SOL    HW263384   6.851   6.601   5.933 -0.1200  0.7515 -1.6021
19513SOL     OW63385   7.314   2.884   6.732  0.2009  0.6234 -0.3366
19513SOL    HW163386   7.232   2.923   6.761 -0.9095 -0.8442 -1.4827
19513SOL    HW263387   7.366   2.876   6.813 -1.1676  0.5949  0.5496
19514SOL     OW63388   7.352   2.324   4.328  0.5676 -0.3727  0.0527
19514SOL    HW163389   7.358   2.277   4.411 -0.5916  1.4395  1.1922
19514SOL    HW263390   7.438   2.310   4.287  1.3311 -0.8934  1.7669
19515SOL     OW63391   8.267   4.730   6.161 -0.0399  0.4816  0.0461
19515SOL    HW163392   8.272   4.791   6.234 -1.0505  0.8188 -0.1652
19515SOL    HW263393   8.245   4.646   6.200 -0.5852  0.6641  0.1249
19516SOL     OW63394   6.908   5.586   6.914 -0.0745 -0.3846  0.0063
19516SOL    HW163395   6.969   5.515   6.894  2.0985  1.3949  0.2341
19516SOL    HW263396   6.902   5.637   6.833 -0.8863 -0.2649  0.1353
19517SOL     OW63397   6.946   4.928   2.376 -0.0544 -0.4912  0.1535
19517SOL    HW163398   6.913   4.838   2.383 -0.9099 -0.2115 -0.1817
19517SOL    HW263399   6.919   4.969   2.458 -0.6304 -0.2352 -0.1609
19518SOL     OW63400   3.252   4.838   3.445  0.1388  0.5508  0.1991
19518SOL    HW163401   3.279   4.906   3.384 -2.3943  0.4778 -1.0907
19518SOL    HW263402   3.254   4.757   3.393 -0.0281  0.1690  0.7764
19519SOL     OW63403   7.342   7.036   7.564  0.1794 -0.3185 -0.7489
19519SOL    HW163404   7.437   7.041   7.578  0.1573 -0.6912 -0.4860
19519SOL    HW263405   7.333   7.044   7.469  0.5645 -1.6736 -0.9057
19520SOL     OW63406   6.598   6.803   4.214  0.3571  0.6467 -0.6364
19520SOL    HW163407   6.681   6.778   4.255 -0.3516 -2.2919 -0.8839
19520SOL    HW263408   6.548   6.845   4.284  0.2022 -1.9221  0.8582
19521SOL     OW63409   7.457   5.905   3.048 -0.0143 -0.2393 -0.0585
19521SOL    HW163410   7.511   5.826   3.055  0.7170  0.0647 -1.9703
19521SOL    HW263411   7.471   5.935   2.959 -2.1891  0.7065 -0.0938
19522SOL     OW63412   5.490   2.255   3.568  0.5478 -0.7247 -0.3204
19522SOL    HW163413   5.486   2.274   3.662  3.2014  0.2434 -0.3577
19522SOL    HW263414   5.530   2.169   3.562 -0.1976 -1.0553 -0.5435
19523SOL     OW63415   6.865   4.954   3.149 -0.5367 -0.3776 -0.2678
19523SOL    HW163416   6.811   4.985   3.223  0.7834  2.2307 -0.3444
19523SOL    HW263417   6.810   4.969   3.072 -2.7357 -4.9432  0.1897
19524SOL     OW63418   5.983   5.435   3.291  0.2954 -0.3619  0.2349
19524SOL    HW163419   6.066   5.391   3.308 -0.1432 -1.4355 -0.3394
19524SOL    HW263420   5.916   5.370   3.313 -0.3788  0.2725  0.0880
19525SOL     OW63421   7.769   4.412   4.492 -0.4923 -0.0688 -0.0418
19525SOL    HW163422   7.835   4.372   4.549 -0.9259 -1.2372 -0.3517
19525SOL    HW263423   7.820   4.448   4.419 -0.2279 -1.3323 -0.4914
19526SOL     OW63424   8.118   6.840   4.523 -0.3120 -0.2483  0.4110
19526SOL    HW163425   8.122   6.935   4.534 -1.0892 -0.0008 -1.2605
19526SOL    HW263426   8.096   6.807   4.609 -0.9727  1.1712  0.8104
19527SOL     OW63427   4.770   5.508   2.586 -0.4647 -0.3128  0.2415
19527SOL    HW163428   4.811   5.591   2.609 -0.0770 -0.0537 -1.3474
19527SOL    HW263429   4.748   5.516   2.493  0.5324 -2.3440 -0.2138
19528SOL     OW63430   6.836   3.982   4.789 -0.1329  0.2188 -0.4419
19528SOL    HW163431   6.920   3.939   4.771 -0.1780  0.0610 -0.2738
19528SOL    HW263432   6.860   4.061   4.838 -0.1898 -0.5379  0.8162
19529SOL     OW63433   6.712   3.851   6.407  0.3933 -0.0772  0.3931
19529SOL    HW163434   6.731   3.868   6.499  1.2773 -2.0874  0.6164
19529SOL    HW263435   6.789   3.804   6.375 -1.7396 -3.3024 -0.2188
19530SOL     OW63436   6.696   1.825   4.098 -0.5130  0.0182  0.0437
19530SOL    HW163437   6.687   1.898   4.038 -0.2447  2.1313  2.4890
19530SOL    HW263438   6.775   1.844   4.149 -0.2901 -2.0933  0.5682
19531SOL     OW63439   7.687   3.938   3.512 -0.3432 -0.4552 -0.1019
19531SOL    HW163440   7.687   3.842   3.513 -0.2308 -0.4462  0.6186
19531SOL    HW263441   7.761   3.963   3.566 -0.2175  0.0404 -0.5014
19532SOL     OW63442   5.655   6.043   2.821  0.2414  0.5220 -0.5641
19532SOL    HW163443   5.602   6.056   2.742 -0.6558  1.4167  0.1732
19532SOL    HW263444   5.594   6.005   2.884  0.9155 -0.0300 -0.2423
19533SOL     OW63445   6.776   5.700   2.902 -0.1657  0.2583 -0.4454
19533SOL    HW163446   6.824   5.767   2.853 -1.3587  0.7697 -0.9522
19533SOL    HW263447   6.693   5.692   2.854 -0.1934 -1.2955 -0.1546
19534SOL     OW63448   4.019   3.169   4.590  0.4027 -0.4487  0.4161
19534SOL    HW163449   4.057   3.252   4.560 -2.4627  1.4556  1.8396
19534SOL    HW263450   4.039   3.166   4.684 -0.3531 -0.8817  0.5707
19535SOL     OW63451   8.753   5.078   4.681 -0.1491  0.3704 -0.2774
19535SOL    HW163452   8.774   5.137   4.753  0.3998  0.5046 -0.5457
19535SOL    HW263453   8.821   5.010   4.685  1.3863  1.7333 -2.2103
19536SOL     OW63454   6.262   8.035   3.668 -0.1858  0.2304 -0.0388
19536SOL    HW163455   6.321   8.056   3.595  1.5452  0.6351  1.4543
19536SOL    HW263456   6.242   8.119   3.707 -1.6365  0.0718 -0.4207
19537SOL     OW63457   5.273   3.619   2.885  0.1279  0.3812 -0.0408
19537SOL    HW163458   5.230   3.606   2.969  1.1010  1.8328  0.7057
19537SOL    HW263459   5.206   3.660   2.830 -0.3806 -0.1911  0.1479
19538SOL     OW63460   7.169   3.923   3.706 -0.1745  0.0856 -0.1416
19538SOL    HW163461   7.075   3.920   3.691 -0.3610  0.5790  0.8768
19538SOL    HW263462   7.201   3.836   3.678 -1.1722 -0.6970  1.0980
19539SOL     OW63463   7.061   3.601   3.507 -0.5410  0.0775 -0.2268
19539SOL    HW163464   7.040   3.667   3.442  0.7501  1.2886  0.5545
19539SOL    HW263465   7.073   3.520   3.457 -2.2046  0.3975 -1.1729
19540SOL     OW63466   8.409   4.257   4.860  0.7192 -0.1326  0.0247
19540SOL    HW163467   8.475   4.318   4.892 -0.1705 -0.5238  2.7203
19540SOL    HW263468   8.352   4.310   4.803  1.3365  0.9760  0.4377
19541SOL     OW63469   6.994   4.668   5.301  0.0011 -0.1549  0.1707
19541SOL    HW163470   6.953   4.659   5.216 -1.1179  0.5030  0.6315
19541SOL    HW263471   6.963   4.752   5.335 -0.0668 -0.6938  1.4903
19542SOL     OW63472   7.868   7.512   3.809  0.0007  0.1812 -0.0143
19542SOL    HW163473   7.882   7.596   3.764 -0.1954 -0.3139 -1.0316
19542SOL    HW263474   7.774   7.498   3.805  0.1092 -0.4358 -0.5013
19543SOL     OW63475   7.072   3.416   2.888  0.5211 -0.5183  0.3389
19543SOL    HW163476   7.039   3.464   2.813  0.6079  0.2511  0.7872
19543SOL    HW263477   7.167   3.417   2.878  0.6362  1.1531  1.3926
19544SOL     OW63478   6.828   4.934   2.768  0.2885  0.4967  0.0561
19544SOL    HW163479   6.794   4.971   2.687  0.5375  1.1184  0.2294
19544SOL    HW263480   6.921   4.959   2.769  0.5283 -0.3712  0.0441
19545SOL     OW63481   6.326   7.187   7.265  0.4958  0.6603  0.0978
19545SOL    HW163482   6.362   7.186   7.176  0.7036 -2.8527  0.1182
19545SOL    HW263483   6.403   7.199   7.322  0.5915  1.1681 -0.1386
19546SOL     OW63484   5.212   5.693   2.229 -0.4771 -0.4594 -0.5653
19546SOL    HW163485   5.177   5.625   2.172 -1.4694  0.5616 -1.1930
19546SOL    HW263486   5.275   5.740   2.173  0.0421 -0.7152 -0.2009
19547SOL     OW63487   7.433   4.458   4.711  0.1741 -0.3410 -0.3660
19547SOL    HW163488   7.423   4.527   4.776 -1.5039 -1.6765  0.8187
19547SOL    HW263489   7.427   4.504   4.627  1.3983  1.2568  0.3848
19548SOL     OW63490   9.933   4.557   5.175 -0.1921  0.8192  0.0085
19548SOL    HW163491   9.999   4.602   5.226 -0.8607  0.5002  1.1704
19548SOL    HW263492   9.851   4.600   5.197 -0.9757 -1.4773  1.8042
19549SOL     OW63493   7.141   4.289   2.464  0.0551 -0.1751 -0.3397
19549SOL    HW163494   7.201   4.339   2.408 -0.8949 -0.7934 -1.9424
19549SOL    HW263495   7.065   4.346   2.475 -0.4797 -0.7308 -1.0989
19550SOL     OW63496   6.115   4.383   3.322 -0.3270  0.0845  0.0206
19550SOL    HW163497   6.204   4.417   3.331 -0.7553  1.1628  0.2232
19550SOL    HW263498   6.114   4.303   3.375  0.0943  0.8782  1.2458
19551SOL     OW63499   6.334   7.232   7.720  0.2210  0.1472  0.2682
19551SOL    HW163500   6.277   7.221   7.795 -1.0866  0.2387 -0.6859
19551SOL    HW263501   6.336   7.146   7.678 -1.0896  0.7157 -0.9939
19552SOL     OW63502   6.950   6.835   4.405  0.1453  0.3488  0.5358
19552SOL    HW163503   7.006   6.896   4.358 -2.1041  2.3693  0.3917
19552SOL    HW263504   6.917   6.776   4.337  2.4756 -1.2405  0.7065
19553SOL     OW63505   8.600   5.195   4.158 -0.7878  0.1968  0.5049
19553SOL    HW163506   8.582   5.131   4.089  0.5227  1.7655 -1.3293
19553SOL    HW263507   8.686   5.170   4.191 -0.8531  0.2223  0.6943
19554SOL     OW63508   6.893   5.896   2.281  0.5342  0.9901 -0.3533
19554SOL    HW163509   6.906   5.814   2.234  3.5782  1.0890  0.2120
19554SOL    HW263510   6.920   5.964   2.219 -2.5956  1.6708 -1.0553
19555SOL     OW63511   9.182   5.817   5.607 -0.0483  0.1776 -0.3063
19555SOL    HW163512   9.188   5.727   5.575 -1.5340 -0.0534  0.0444
19555SOL    HW263513   9.089   5.838   5.602  0.3943  1.9710 -1.1139
19556SOL     OW63514   7.848   5.085   5.039  0.4532  0.0916  0.1180
19556SOL    HW163515   7.830   5.124   5.124 -0.3943  0.9653 -0.4530
19556SOL    HW263516   7.942   5.067   5.041  0.5857  0.8219  0.9491
19557SOL     OW63517   5.906   7.774   2.625  0.0024  0.7708 -0.1545
19557SOL    HW163518   5.903   7.699   2.685 -0.0348  0.3327 -0.6935
19557SOL    HW263519   5.894   7.850   2.681 -1.0020  0.3045  0.2760
19558SOL     OW63520   5.627   2.753   5.133  0.7205 -0.6533  0.4477
19558SOL    HW163521   5.708   2.804   5.144 -0.8977  1.5925  2.6557
19558SOL    HW263522   5.633   2.683   5.197  0.4246  0.2086  1.4288
19559SOL     OW63523   6.031   4.651   3.266 -0.3615 -0.6931  0.1552
19559SOL    HW163524   6.066   4.577   3.316 -1.2817 -0.3493  1.3322
19559SOL    HW263525   6.089   4.724   3.288 -0.3497 -0.7068  0.1710
19560SOL     OW63526   7.024   5.369   3.435  0.0193  0.3662  0.6598
19560SOL    HW163527   7.009   5.348   3.343  0.2550 -2.5245  1.2300
19560SOL    HW263528   7.119   5.369   3.445 -0.0108  0.3740  0.9644
19561SOL     OW63529   7.224   4.664   4.688  0.1630  0.0532  0.0539
19561SOL    HW163530   7.239   4.710   4.606  1.7776  1.3012  1.0294
19561SOL    HW263531   7.184   4.581   4.662 -0.8363  1.1104 -1.8595
19562SOL     OW63532   7.105   3.286   3.687  0.3308  0.5084  0.4779
19562SOL    HW163533   7.153   3.350   3.739  1.2228  1.6447 -1.6858
19562SOL    HW263534   7.026   3.268   3.738  1.1791  1.5874  2.2009
19563SOL     OW63535   7.036   5.262   5.562  0.1821  0.0640 -0.1700
19563SOL    HW163536   7.088   5.186   5.587  0.5553  0.2095 -0.4970
19563SOL    HW263537   7.067   5.333   5.618 -1.2919 -0.4109  1.2671
19564SOL     OW63538   7.438   2.583   4.462 -0.4325 -0.3650  0.1983
19564SOL    HW163539   7.391   2.595   4.380 -2.8922 -0.6977  1.4870
19564SOL    HW263540   7.436   2.489   4.478  0.1550 -0.3198  0.5766
19565SOL     OW63541   7.183   3.450   2.402 -0.3609  0.6307  0.2301
19565SOL    HW163542   7.225   3.365   2.415 -0.4033  0.6268  0.3364
19565SOL    HW263543   7.095   3.429   2.371 -0.2078  0.6413 -0.2199
19566SOL     OW63544   8.500   4.005   4.548  0.5126  0.4258  0.4660
19566SOL    HW163545   8.539   3.982   4.632  0.4100 -0.4263  0.2886
19566SOL    HW263546   8.529   3.935   4.489  0.7972  1.1544 -0.2644
19567SOL     OW63547   8.022   4.928   7.249 -0.0557  0.2058 -0.5381
19567SOL    HW163548   8.034   4.942   7.155 -0.2261  0.3711 -0.5363
19567SOL    HW263549   8.026   5.016   7.287 -0.5519  0.1988 -0.4586
19568SOL     OW63550   6.586   3.972   3.069  0.1580  0.8586  0.1048
19568SOL    HW163551   6.667   4.012   3.038  0.4589 -0.3751 -0.7647
19568SOL    HW263552   6.607   3.940   3.157  1.1232 -0.8616 -0.7218
19569SOL     OW63553   7.976   6.988   4.079 -0.8050 -0.7054 -0.1509
19569SOL    HW163554   7.934   7.074   4.087 -0.6703 -0.6724  0.2123
19569SOL    HW263555   7.920   6.939   4.019 -0.1958  0.0588 -1.3355
19570SOL     OW63556   7.887   4.852   2.799  0.4014 -0.4110 -0.1246
19570SOL    HW163557   7.959   4.871   2.739  0.5687  0.0071  0.2051
19570SOL    HW263558   7.890   4.923   2.863 -0.2419 -0.4481 -0.0516
19571SOL     OW63559   6.514   2.080   4.986 -0.6038 -0.1944  0.7055
19571SOL    HW163560   6.438   2.047   5.034  0.0585  0.0175  1.9253
19571SOL    HW263561   6.573   2.005   4.982 -0.3350  0.0088  0.8852
19572SOL     OW63562   6.590   3.542   4.071 -0.3274  0.2798 -0.1947
19572SOL    HW163563   6.604   3.475   4.138  0.1450 -0.3545 -0.9132
19572SOL    HW263564   6.591   3.493   3.989 -2.4312  0.8318 -0.5754
19573SOL     OW63565   5.233   3.294   3.205 -0.3450 -0.5056  0.4977
19573SOL    HW163566   5.201   3.204   3.195  0.2655 -0.6678 -0.0549
19573SOL    HW263567   5.210   3.318   3.295 -2.9791 -0.2314 -0.2009
19574SOL     OW63568   7.770   4.208   3.876 -0.2250  0.6233  0.0895
19574SOL    HW163569   7.846   4.161   3.843 -0.0654  0.6296  0.4477
19574SOL    HW263570   7.791   4.227   3.967 -0.5785  0.7844  0.1384
19575SOL     OW63571   7.980   6.101   5.621 -0.2452 -0.0840 -0.1383
19575SOL    HW163572   8.038   6.173   5.595  0.7243 -0.9909 -0.4765
19575SOL    HW263573   7.900   6.116   5.571  0.8067 -0.5766 -1.9773
19576SOL     OW63574   8.033   5.867   5.510 -0.6144 -0.0697 -0.2504
19576SOL    HW163575   8.038   5.952   5.553  1.8022  0.0659 -0.7448
19576SOL    HW263576   8.103   5.815   5.551 -2.4567 -2.0495  0.4946
19577SOL     OW63577   7.161   3.087   1.393 -0.1057  0.1461 -0.2354
19577SOL    HW163578   7.182   3.052   1.479  0.5742 -2.2178 -1.3163
19577SOL    HW263579   7.077   3.046   1.370 -0.1629  0.5625 -0.7928
19578SOL     OW63580   7.597   7.713   3.497  0.2373  0.2394  0.0913
19578SOL    HW163581   7.666   7.772   3.466  1.4681  0.4731  3.1203
19578SOL    HW263582   7.516   7.757   3.471  1.1771  2.0464  0.0893
19579SOL     OW63583   6.392   3.372   3.436  0.4904  0.7191  0.2850
19579SOL    HW163584   6.319   3.365   3.374 -0.2424  0.4950  1.1732
19579SOL    HW263585   6.460   3.315   3.399  0.2276  0.9390 -0.5541
19580SOL     OW63586   2.578   3.190   4.643  0.0993 -0.1445  0.8049
19580SOL    HW163587   2.545   3.232   4.722 -0.3255  1.8353 -0.3802
19580SOL    HW263588   2.512   3.210   4.576  1.5224  0.1148 -0.5591
19581SOL     OW63589   7.009   5.250   2.977  0.3678 -0.5234 -0.4387
19581SOL    HW163590   7.010   5.334   3.023  0.9767 -0.2960 -0.8652
19581SOL    HW263591   6.932   5.255   2.920  0.6495 -0.0877 -0.7790
19582SOL     OW63592   6.562   3.576   3.461 -0.0953  0.2886 -0.1315
19582SOL    HW163593   6.555   3.589   3.556  0.9330  0.1606 -0.0285
19582SOL    HW263594   6.496   3.510   3.441  0.8780 -0.9832  0.7809
19583SOL     OW63595   7.543   4.320   3.622  0.1123 -0.2244 -0.0419
19583SOL    HW163596   7.482   4.246   3.619  1.5589 -1.4276 -0.1873
19583SOL    HW263597   7.560   4.333   3.715  0.3188 -0.4643 -0.0452
19584SOL     OW63598   7.038   5.430   4.699  0.4162 -0.2917 -0.2709
19584SOL    HW163599   6.997   5.515   4.715 -1.9157 -1.4202  0.1181
19584SOL    HW263600   7.085   5.440   4.617 -0.5085  1.1413 -0.6392
19585SOL     OW63601   7.953   6.014   4.176 -0.2106  0.0396 -0.1283
19585SOL    HW163602   8.046   6.026   4.195 -0.2999  0.2441  0.1804
19585SOL    HW263603   7.930   6.088   4.120  0.1991 -0.8974 -1.5555
19586SOL     OW63604   8.499   4.443   4.014 -0.3784  0.4663 -0.1329
19586SOL    HW163605   8.416   4.396   4.010  0.0586 -0.4686  1.3756
19586SOL    HW263606   8.537   4.432   3.927 -1.0793 -0.5126 -0.3230
19587SOL     OW63607   6.830   5.106   1.550  0.1770  0.0547 -0.7833
19587SOL    HW163608   6.766   5.162   1.507 -0.1609  1.0810  1.0335
19587SOL    HW263609   6.912   5.155   1.546  0.2024  0.0357 -0.5020
19588SOL     OW63610   7.720   4.060   4.176 -0.5122 -0.1136 -0.3310
19588SOL    HW163611   7.673   4.143   4.163 -2.1651 -0.9548  0.2286
19588SOL    HW263612   7.799   4.086   4.224 -2.4130  0.7873  2.4263
19589SOL     OW63613   6.920   3.918   3.321 -0.4718  0.1218 -0.1049
19589SOL    HW163614   6.839   3.866   3.320 -0.9172  0.7977  0.0490
19589SOL    HW263615   6.918   3.963   3.405 -1.0063  1.7695 -0.9645
19590SOL     OW63616   6.876   3.269   3.868  0.0393 -0.1698 -0.1722
19590SOL    HW163617   6.881   3.175   3.887  1.8250 -0.0777 -0.1088
19590SOL    HW263618   6.887   3.311   3.953 -2.0905  0.1067 -0.0004
19591SOL     OW63619   7.910   5.852   6.455  0.7337  0.0747  0.0142
19591SOL    HW163620   7.899   5.829   6.363  3.5048 -0.2774 -0.2833
19591SOL    HW263621   7.906   5.947   6.458 -0.1923  0.0485 -0.3326
19592SOL     OW63622   7.261   5.236   5.796  0.2230 -0.5050 -0.0683
19592SOL    HW163623   7.344   5.192   5.819  1.0338 -0.5862 -2.9874
19592SOL    HW263624   7.270   5.324   5.833  0.9626 -0.9979  0.9511
19593SOL     OW63625   7.851   4.287   5.763  0.3078  0.5305  0.1804
19593SOL    HW163626   7.937   4.302   5.724  0.7866  0.3616  1.1520
19593SOL    HW263627   7.807   4.371   5.756  0.6916  0.7212  0.0302
19594SOL     OW63628   8.363   5.374   4.564 -0.1060 -0.4718 -0.3726
19594SOL    HW163629   8.391   5.340   4.479 -0.0569 -3.1114  0.6572
19594SOL    HW263630   8.437   5.356   4.623 -0.7842 -0.1797  0.5882
19595SOL     OW63631   7.358   4.639   4.207 -0.1890  0.4151 -0.5287
19595SOL    HW163632   7.303   4.709   4.173  0.4746  0.3972 -1.6652
19595SOL    HW263633   7.389   4.593   4.129  0.0933 -0.5954  0.1716
19596SOL     OW63634   6.000   2.691   3.401  0.1896  0.6944  0.5812
19596SOL    HW163635   5.909   2.698   3.371 -0.0330  0.9101  1.3059
19596SOL    HW263636   6.024   2.600   3.380 -0.1596  0.6644  0.2973
19597SOL     OW63637   6.752   3.671   3.064 -0.1224  0.2023 -0.5206
19597SOL    HW163638   6.772   3.625   3.146  1.0137  2.1102  0.3063
19597SOL    HW263639   6.833   3.714   3.040 -0.3600 -0.5380 -2.8452
19598SOL     OW63640   7.098   3.821   2.592  0.4508  0.6996  0.4772
19598SOL    HW163641   7.073   3.864   2.675 -2.2699  0.3740 -0.1320
19598SOL    HW263642   7.123   3.894   2.535 -0.9503  1.2430  0.5204
19599SOL     OW63643   7.230   3.997   3.980  0.2577 -0.3068 -0.2304
19599SOL    HW163644   7.255   3.974   4.070  0.0938  0.3348 -0.0184
19599SOL    HW263645   7.145   4.040   3.989  0.0539 -0.6044 -0.7338
19600SOL     OW63646   7.056   6.438   3.255  0.2407  0.8022  0.4252
19600SOL    HW163647   7.150   6.439   3.272  0.6165 -0.9328 -1.3712
19600SOL    HW263648   7.046   6.384   3.176 -2.3398  0.2404  1.0849
19601SOL     OW63649   7.994   5.794   6.903 -0.0145  0.3827 -0.1916
19601SOL    HW163650   8.059   5.863   6.887  1.7002 -0.6486  2.0017
19601SOL    HW263651   7.951   5.819   6.985  1.1795 -1.5039  1.0599
19602SOL     OW63652   6.186   3.908   2.503 -0.0098 -0.1802  0.2565
19602SOL    HW163653   6.116   3.848   2.529 -0.3118  0.8449  1.8956
19602SOL    HW263654   6.263   3.877   2.551  0.0877  0.1000  0.2854
19603SOL     OW63655   5.768   4.957   2.562  0.0608 -0.2778  0.7330
19603SOL    HW163656   5.708   5.025   2.592  0.9394  0.9868 -0.3408
19603SOL    HW263657   5.855   4.992   2.578  0.5223 -1.6573  1.2874
19604SOL     OW63658   7.770   6.518   4.315  0.2083  0.2841  0.3767
19604SOL    HW163659   7.685   6.555   4.340 -0.5161 -0.9923 -0.1784
19604SOL    HW263660   7.833   6.586   4.338 -0.9811  1.3193  0.6145
19605SOL     OW63661   6.250   5.817   3.773 -0.2992 -0.1806  0.3840
19605SOL    HW163662   6.174   5.836   3.717  0.0133 -0.0721  0.0013
19605SOL    HW263663   6.238   5.726   3.800 -0.7232 -0.0739  0.5670
19606SOL     OW63664   7.198   4.630   7.309  0.1173  0.3191  0.8849
19606SOL    HW163665   7.143   4.640   7.387 -0.2108  1.3698  0.5222
19606SOL    HW263666   7.193   4.536   7.289  0.2037  0.0448  2.1189
19607SOL     OW63667   5.915   2.803   5.116 -0.4672  0.0575 -0.1611
19607SOL    HW163668   5.966   2.727   5.145 -1.6177 -0.6041  0.1565
19607SOL    HW263669   5.980   2.865   5.083  0.7495  0.0680  2.1264
19608SOL     OW63670   8.908   4.908   5.856 -0.3280  0.6138  0.5613
19608SOL    HW163671   8.862   4.968   5.798 -0.8945  0.3902  0.7763
19608SOL    HW263672   8.973   4.865   5.800 -1.4247 -0.2009 -0.1043
19609SOL     OW63673   7.746   3.633   5.412  0.0413 -0.0065  0.3943
19609SOL    HW163674   7.760   3.649   5.318 -0.1442  2.0933  0.6994
19609SOL    HW263675   7.834   3.627   5.448  0.1263 -2.3244 -0.1285
19610SOL     OW63676   6.604   6.554   8.852 -0.2119 -0.4525  0.0983
19610SOL    HW163677   6.608   6.487   8.783 -0.6426  0.6354 -1.0079
19610SOL    HW263678   6.633   6.509   8.931  1.3388 -1.4488 -1.0156
19611SOL     OW63679   6.939   6.210   5.111  0.4041 -0.2946 -0.2639
19611SOL    HW163680   6.954   6.304   5.107  0.2046 -0.2021  0.9758
19611SOL    HW263681   6.983   6.175   5.033  1.0233  0.7495 -0.3913
19612SOL     OW63682   6.264   6.678   3.058 -0.2171  0.3666  0.1081
19612SOL    HW163683   6.330   6.617   3.091 -1.3083 -1.1479 -0.4452
19612SOL    HW263684   6.275   6.757   3.111  0.2270 -0.8492  1.8693
19613SOL     OW63685   7.533   3.154   3.221 -0.2820 -0.2005  0.2981
19613SOL    HW163686   7.538   3.114   3.134  0.7996 -0.3958  0.4427
19613SOL    HW263687   7.584   3.234   3.213  0.1956 -0.4479  0.8759
19614SOL     OW63688   5.571   3.273   4.081 -0.4766  0.4374  0.1619
19614SOL    HW163689   5.552   3.191   4.125 -0.5193 -0.4663 -1.5049
19614SOL    HW263690   5.491   3.325   4.090 -1.0145 -0.3338 -0.1953
19615SOL     OW63691   4.911   2.557   4.633 -0.0997  1.0771 -0.3395
19615SOL    HW163692   4.991   2.556   4.581 -1.1608 -1.2810 -2.0484
19615SOL    HW263693   4.895   2.464   4.653 -1.2203  1.7093  1.8390
19616SOL     OW63694   6.798   5.676   4.854 -0.6138  0.4469 -0.7289
19616SOL    HW163695   6.708   5.709   4.864 -0.4615  0.9589 -1.0180
19616SOL    HW263696   6.853   5.751   4.874 -0.2097 -0.3143  1.1587
19617SOL     OW63697   8.189   6.491   6.172  0.6085 -0.0699  0.0275
19617SOL    HW163698   8.185   6.584   6.149  0.9707 -0.0178  0.1753
19617SOL    HW263699   8.154   6.446   6.096 -3.6227  0.4177  1.5473
19618SOL     OW63700   5.632   2.806   1.533  0.4843  0.1208  0.4481
19618SOL    HW163701   5.667   2.734   1.480  1.7184 -0.2662  1.7649
19618SOL    HW263702   5.667   2.791   1.620  1.1652  2.5964  0.6475
19619SOL     OW63703   6.937   3.039   3.680 -0.5815  0.2020  0.1422
19619SOL    HW163704   7.015   3.000   3.641 -1.2596 -0.6889 -0.3218
19619SOL    HW263705   6.923   2.989   3.760 -1.1825 -0.2075 -0.2180
19620SOL     OW63706   8.551   5.735   4.249  0.6178  0.3107 -0.1905
19620SOL    HW163707   8.529   5.651   4.289  0.1147  0.3475 -0.3911
19620SOL    HW263708   8.614   5.775   4.310  0.3104  0.1059  0.2629
19621SOL     OW63709   8.442   6.291   6.106 -0.1935  0.3485 -0.1086
19621SOL    HW163710   8.456   6.203   6.141 -1.3893  0.3614  0.4359
19621SOL    HW263711   8.446   6.281   6.011 -0.6224 -0.3537 -0.0529
19622SOL     OW63712   8.841   5.313   4.823 -0.0486  0.3296 -0.0070
19622SOL    HW163713   8.909   5.363   4.777 -0.9527  1.5807  0.0116
19622SOL    HW263714   8.773   5.377   4.842 -0.4784 -0.5601  1.5026
19623SOL     OW63715   8.264   3.774   5.558  0.3479  0.3570 -0.0591
19623SOL    HW163716   8.277   3.854   5.610  0.7569  0.1084  0.2218
19623SOL    HW263717   8.327   3.712   5.593  1.9393  0.7724 -2.1078
19624SOL     OW63718   6.660   3.262   2.472  0.0789 -0.5583  0.1558
19624SOL    HW163719   6.584   3.256   2.415 -0.8001 -0.4992  1.3103
19624SOL    HW263720   6.643   3.200   2.543  1.3812 -0.9919  0.1009
19625SOL     OW63721   8.694   5.915   4.424 -0.1528 -0.0844 -0.4586
19625SOL    HW163722   8.655   5.888   4.507  2.9756  2.6068  2.0716
19625SOL    HW263723   8.653   5.999   4.403 -1.5729 -1.1713 -2.1599
19626SOL     OW63724   7.241   5.605   4.072  0.1680 -0.0248 -0.2688
19626SOL    HW163725   7.321   5.554   4.055  0.4460  0.7997 -1.4702
19626SOL    HW263726   7.270   5.695   4.080 -0.5224  0.1536  0.3366
19627SOL     OW63727   5.649   2.363   5.030  0.6995 -0.1627  0.3260
19627SOL    HW163728   5.620   2.441   4.982  0.1593 -0.3107  0.4163
19627SOL    HW263729   5.744   2.364   5.020  0.5379 -0.6085 -1.3821
19628SOL     OW63730   7.696   4.579   5.042 -0.0093  0.4791 -0.6162
19628SOL    HW163731   7.717   4.532   4.962  0.4764 -0.5721  0.1233
19628SOL    HW263732   7.753   4.541   5.109 -1.6880  0.0690  0.6328
19629SOL     OW63733   6.921   4.231   6.556  0.1146  0.3326 -0.4945
19629SOL    HW163734   6.885   4.184   6.481 -3.9290  2.1592  0.1286
19629SOL    HW263735   6.948   4.163   6.617 -1.6120 -1.2095 -1.3890
19630SOL     OW63736   7.273   3.657   3.661 -0.2134  1.0917 -0.2796
19630SOL    HW163737   7.209   3.625   3.598  2.2366 -1.1770 -1.7215
19630SOL    HW263738   7.250   3.612   3.743  0.1977 -0.5999 -1.0746
19631SOL     OW63739   7.341   4.173   1.930 -0.0085  0.3253 -0.3447
19631SOL    HW163740   7.326   4.245   1.991  1.7482 -0.0724  0.5954
19631SOL    HW263741   7.423   4.195   1.886  0.0602 -0.6394 -0.7206
19632SOL     OW63742   8.460   5.016   5.112 -0.2826  0.0622  0.5521
19632SOL    HW163743   8.400   4.993   5.040  0.6173 -0.4792 -0.0342
19632SOL    HW263744   8.478   5.109   5.099 -0.9720  0.2192  0.7134
19633SOL     OW63745   7.419   4.530   4.444 -0.4285  0.5349  0.2823
19633SOL    HW163746   7.382   4.583   4.372 -2.0042 -1.4971 -0.4554
19633SOL    HW263747   7.444   4.447   4.402  2.0401  0.6627  1.4179
19634SOL     OW63748   7.321   1.367   3.770 -0.1332  0.2153  0.6259
19634SOL    HW163749   7.321   1.461   3.791  1.1907  0.5647 -0.8595
19634SOL    HW263750   7.267   1.361   3.690 -0.7367 -0.3801  1.0762
19635SOL     OW63751   6.061   2.733   4.480 -0.3472 -0.0394  0.1355
19635SOL    HW163752   6.038   2.673   4.410  2.5246 -0.1115 -0.8033
19635SOL    HW263753   6.049   2.820   4.442 -0.2905 -0.0613  0.0668
19636SOL     OW63754   6.149   3.316   3.305 -0.4955 -0.5520 -0.8782
19636SOL    HW163755   6.166   3.224   3.327 -0.0229  0.0874  1.5943
19636SOL    HW263756   6.069   3.314   3.253 -0.3189 -2.3898 -1.1068
19637SOL     OW63757   7.893   5.775   5.946  0.5403  0.0703  0.5802
19637SOL    HW163758   7.932   5.844   5.999  0.0968 -0.7014  1.9241
19637SOL    HW263759   7.818   5.745   5.997  0.4679 -1.1033 -0.2060
19638SOL     OW63760   4.935   4.268   2.707 -0.0371  0.2621  0.0059
19638SOL    HW163761   4.882   4.347   2.699 -0.4906  0.0402  0.8326
19638SOL    HW263762   4.978   4.260   2.622 -1.0946  0.6084 -0.5652
19639SOL     OW63763   6.815   5.678   6.040 -0.1443 -0.1471  0.4664
19639SOL    HW163764   6.832   5.745   6.106 -3.7129  0.7185  0.6267
19639SOL    HW263765   6.806   5.597   6.089 -0.8224  0.1585  0.8600
19640SOL     OW63766   7.170   6.031   7.102  0.3790  0.1998 -0.2646
19640SOL    HW163767   7.232   6.103   7.095  0.1315  0.3545 -0.8989
19640SOL    HW263768   7.125   6.046   7.186  2.7586 -1.1772  1.3117
19641SOL     OW63769   6.982   6.426   4.329 -0.3088 -0.3903 -0.3843
19641SOL    HW163770   6.930   6.346   4.325  1.9704 -1.8862 -1.5106
19641SOL    HW263771   7.044   6.411   4.401 -1.8559  1.6745  1.4522
19642SOL     OW63772   9.214   4.859   6.487 -0.0170  0.5075 -0.0978
19642SOL    HW163773   9.161   4.838   6.564  1.4468 -2.5377  0.1338
19642SOL    HW263774   9.303   4.872   6.521  0.2770  1.0768 -1.0446
19643SOL     OW63775   6.098   2.138   2.923  0.4162 -0.3235 -0.2798
19643SOL    HW163776   6.106   2.069   2.989 -0.9653 -1.3855 -1.2079
19643SOL    HW263777   6.036   2.201   2.962  1.9777  0.6190  0.7340
19644SOL     OW63778   7.917   6.665   6.520  0.6307 -0.3781 -0.2619
19644SOL    HW163779   7.924   6.710   6.604 -0.3058  1.9514 -1.3847
19644SOL    HW263780   8.001   6.682   6.477  0.6841 -0.6158 -0.2508
19645SOL     OW63781   7.626   6.109   4.165 -0.0696  0.1125 -0.1043
19645SOL    HW163782   7.680   6.075   4.235  0.1546  1.3220  0.3311
19645SOL    HW263783   7.610   6.034   4.107 -0.3811 -0.9216  1.3076
19646SOL     OW63784   6.631   4.911   3.709  0.4634  0.4227 -0.0849
19646SOL    HW163785   6.637   4.998   3.669  0.6111 -0.2302 -1.5348
19646SOL    HW263786   6.682   4.918   3.790  1.8071  1.2572 -0.9747
19647SOL     OW63787   6.992   6.079   6.019  0.1089  0.0803  0.5753
19647SOL    HW163788   6.992   6.169   5.987 -0.0574 -0.4216 -0.8756
19647SOL    HW263789   7.057   6.034   5.966 -1.1917 -1.1032 -0.0592
19648SOL     OW63790   7.611   6.003   5.693 -0.2275  0.3779 -0.2762
19648SOL    HW163791   7.623   5.910   5.710  2.0857  0.6659 -0.1642
19648SOL    HW263792   7.599   6.009   5.598 -0.9876 -0.0692 -0.2160
19649SOL     OW63793   7.371   6.328   4.008  0.1283  0.4653 -0.3732
19649SOL    HW163794   7.392   6.236   4.023  0.9412  0.7213  0.1364
19649SOL    HW263795   7.348   6.333   3.915 -0.9770 -0.4358 -0.1593
19650SOL     OW63796   7.090   5.484   5.357 -0.4450 -0.3930  0.0768
19650SOL    HW163797   7.118   5.472   5.266 -0.1111 -1.7188  0.3410
19650SOL    HW263798   7.066   5.396   5.387  1.9314 -0.4033  2.0851
19651SOL     OW63799   8.539   4.139   3.549  0.2702 -0.8557  0.0309
19651SOL    HW163800   8.548   4.094   3.633  0.5521  0.7771  0.9016
19651SOL    HW263801   8.446   4.160   3.542  0.5294  0.5920  0.7904
19652SOL     OW63802   8.310   6.926   1.660 -0.7773 -0.7420 -0.4947
19652SOL    HW163803   8.355   6.845   1.686 -0.8904  0.0345  2.3637
19652SOL    HW263804   8.236   6.933   1.720 -3.1485 -0.5478 -3.3464
19653SOL     OW63805   7.762   8.562   6.671 -0.5439 -0.2953 -0.0549
19653SOL    HW163806   7.697   8.565   6.602 -1.0182  1.3936  0.4530
19653SOL    HW263807   7.768   8.652   6.703  1.4111 -0.5890  0.4836
19654SOL     OW63808   6.684   4.265   3.485 -0.3744 -0.0016 -0.2213
19654SOL    HW163809   6.744   4.266   3.560 -0.0830 -0.5344 -0.4410
19654SOL    HW263810   6.608   4.314   3.514 -0.4533 -0.5917  0.5809
19655SOL     OW63811   8.012   4.989   6.481 -0.0829 -0.0403 -0.3820
19655SOL    HW163812   8.018   5.038   6.399 -0.5106 -0.9616 -0.9695
19655SOL    HW263813   8.098   4.947   6.489  0.0306  0.2139 -0.2462
19656SOL     OW63814   5.974   6.132   1.243 -0.1699 -0.2177  0.1913
19656SOL    HW163815   5.967   6.221   1.277  0.9087  0.1534 -0.5300
19656SOL    HW263816   6.067   6.121   1.224 -0.4156 -1.2274 -0.4738
19657SOL     OW63817   7.653   5.152   4.857 -0.1933 -0.1590 -0.0910
19657SOL    HW163818   7.693   5.156   4.770  0.4487  1.7697  0.2474
19657SOL    HW263819   7.728   5.161   4.917 -0.4314 -3.1487  0.7235
19658SOL     OW63820   6.546   5.028   4.039  0.2236  0.2089 -0.4184
19658SOL    HW163821   6.528   4.993   4.127 -0.5193  1.0768 -0.2171
19658SOL    HW263822   6.620   4.976   4.008 -0.2780 -0.9318  0.2342
19659SOL     OW63823   6.350   3.564   2.207 -0.2567  0.3415 -0.1886
19659SOL    HW163824   6.419   3.517   2.160 -1.6637 -2.0618  0.0609
19659SOL    HW263825   6.362   3.538   2.299  0.0689  1.9494  0.2445
19660SOL     OW63826   7.344   5.846   4.161 -0.5294 -0.8419  0.2898
19660SOL    HW163827   7.420   5.849   4.219 -1.3365 -0.8988  1.3514
19660SOL    HW263828   7.312   5.936   4.158 -1.4850 -1.1465  1.2638
19661SOL     OW63829   8.070   4.904   3.170 -0.2084  0.1998  0.4983
19661SOL    HW163830   8.135   4.853   3.121 -1.4331  0.0166 -0.9554
19661SOL    HW263831   8.108   4.912   3.258  1.4860 -0.4503 -0.1504
19662SOL     OW63832   7.688   5.474   1.466 -0.4972 -0.0068  0.2637
19662SOL    HW163833   7.744   5.463   1.389 -3.1121 -0.5643 -1.6004
19662SOL    HW263834   7.608   5.428   1.444 -1.5271  0.3614  3.1041
19663SOL     OW63835   5.571   5.543   2.877 -0.3979  0.3224  0.2016
19663SOL    HW163836   5.497   5.541   2.938  0.5647 -1.9093  1.3647
19663SOL    HW263837   5.535   5.510   2.794 -1.1519  1.0656  0.2349
19664SOL     OW63838   7.837   3.432   7.417 -0.1949 -0.0078 -0.3562
19664SOL    HW163839   7.900   3.419   7.346 -0.2857  0.3794 -0.5092
19664SOL    HW263840   7.769   3.487   7.378 -0.6945 -0.5249 -0.2298
19665SOL     OW63841   6.216   3.157   2.365 -0.0572 -0.4885 -0.2038
19665SOL    HW163842   6.297   3.113   2.338  0.8590 -0.0888  1.7921
19665SOL    HW263843   6.150   3.087   2.366  0.0622 -0.6699 -2.5553
19666SOL     OW63844   6.869   4.166   2.674 -0.1810 -0.8354 -0.6952
19666SOL    HW163845   6.953   4.123   2.658 -0.1238 -1.1669  0.4470
19666SOL    HW263846   6.813   4.097   2.710 -0.2170 -0.0557  0.7639
19667SOL     OW63847   6.541   5.995   3.527 -0.2734  0.4539 -0.0530
19667SOL    HW163848   6.563   5.903   3.516  1.3938  1.0006 -1.4049
19667SOL    HW263849   6.471   6.010   3.463  0.0295  0.3340 -0.4130
19668SOL     OW63850   5.978   3.740   2.595 -0.6555  0.3825 -0.0488
19668SOL    HW163851   5.967   3.681   2.520  0.3524  0.5937 -0.3860
19668SOL    HW263852   5.976   3.683   2.671  0.5885 -0.1461 -0.3899
19669SOL     OW63853   6.682   5.650   1.546 -1.1807 -0.1011 -0.5657
19669SOL    HW163854   6.601   5.603   1.523 -1.6238  0.6023 -0.4417
19669SOL    HW263855   6.663   5.742   1.526 -0.1928 -0.0176 -1.1307
19670SOL     OW63856   8.046   5.140   6.265 -0.4974 -0.0394  0.1971
19670SOL    HW163857   8.089   5.210   6.315 -0.0184 -0.7046  0.7283
19670SOL    HW263858   8.035   5.176   6.177  1.0298  0.1997  0.0891
19671SOL     OW63859   8.207   5.695   5.638  0.7336  0.0519  0.2916
19671SOL    HW163860   8.302   5.685   5.649  0.8397 -0.2744 -0.9369
19671SOL    HW263861   8.186   5.641   5.562 -0.5970 -0.6806  1.1671
19672SOL     OW63862   6.632   3.414   4.299  0.0106 -0.1524  0.3432
19672SOL    HW163863   6.602   3.362   4.374  1.3474 -1.1993  0.1684
19672SOL    HW263864   6.704   3.466   4.333  0.1866 -0.1335 -0.0604
19673SOL     OW63865   8.779   5.667   5.338 -0.7030 -0.1781 -0.6246
19673SOL    HW163866   8.687   5.647   5.322 -0.6351  0.0322 -1.2853
19673SOL    HW263867   8.816   5.682   5.251  0.2524 -1.5301 -0.4708
19674SOL     OW63868   6.511   4.053   3.517 -0.7010 -0.2034  0.0673
19674SOL    HW163869   6.492   4.066   3.609  1.7898  0.5936  0.4930
19674SOL    HW263870   6.568   4.126   3.493 -0.0676 -1.2429 -1.7011
19675SOL     OW63871   5.981   5.756   1.330  0.1232  0.1737  0.4126
19675SOL    HW163872   5.906   5.808   1.358 -0.2201 -0.5300  0.8168
19675SOL    HW263873   5.982   5.765   1.235 -1.2815 -0.8832  0.2728
19676SOL     OW63874   6.862   4.965   5.099  0.6575  0.4289  0.6619
19676SOL    HW163875   6.944   5.001   5.067  0.8027  1.1403  1.8388
19676SOL    HW263876   6.837   5.021   5.172 -0.3904 -0.3437  0.9128
19677SOL     OW63877   6.051   7.048   4.359  0.3493 -0.1528  0.2133
19677SOL    HW163878   6.099   6.966   4.369  0.9402  0.2249  0.4778
19677SOL    HW263879   6.015   7.066   4.445  2.0587  0.9974  0.7149
19678SOL     OW63880   6.583   4.867   3.121 -0.1368 -0.4954  0.2055
19678SOL    HW163881   6.580   4.813   3.042 -3.0048 -2.4973  1.5750
19678SOL    HW263882   6.620   4.810   3.188 -0.0142  0.3585  0.8785
19679SOL     OW63883   7.229   4.318   5.624  0.1423 -0.2157 -0.0502
19679SOL    HW163884   7.290   4.391   5.626  1.1089 -1.0353  1.4613
19679SOL    HW263885   7.143   4.359   5.619  0.6468  1.0510  1.2738
19680SOL     OW63886   9.517   4.400   5.210  0.1684 -0.1748 -0.2788
19680SOL    HW163887   9.495   4.473   5.153 -0.3599 -0.0696  0.0606
19680SOL    HW263888   9.507   4.433   5.299 -0.0005 -0.6323 -0.1215
19681SOL     OW63889   8.551   6.131   4.384 -0.1944 -0.2604  0.1259
19681SOL    HW163890   8.463   6.159   4.409 -0.3378 -0.4050 -0.2185
19681SOL    HW263891   8.566   6.172   4.298  0.6342  0.9413  0.8223
19682SOL     OW63892   7.489   3.024   4.291  0.0264 -0.6740 -0.4140
19682SOL    HW163893   7.565   3.081   4.298  0.7086 -1.4728 -1.2022
19682SOL    HW263894   7.508   2.951   4.350 -1.0502  0.1164  0.9541
19683SOL     OW63895   6.986   5.515   2.808 -0.4428 -0.2067  0.1822
19683SOL    HW163896   7.076   5.535   2.835 -1.1448  1.6636  1.2272
19683SOL    HW263897   6.936   5.515   2.890 -1.3951 -1.2929 -0.3871
19684SOL     OW63898   9.144   5.059   4.706 -0.0432 -0.3148  0.2973
19684SOL    HW163899   9.167   5.054   4.613  1.3146 -0.6917  0.6340
19684SOL    HW263900   9.116   4.970   4.729 -1.3885  0.0242  0.0089
19685SOL     OW63901   7.574   4.846   4.699  0.0954 -0.4662 -0.4657
19685SOL    HW163902   7.661   4.857   4.738 -0.6822  1.5231  0.8359
19685SOL    HW263903   7.522   4.805   4.768 -0.4148 -0.1068 -0.6324
19686SOL     OW63904   7.319   5.526   3.811 -0.3088  0.3464  0.3056
19686SOL    HW163905   7.275   5.574   3.881  2.0913  3.1562 -0.0162
19686SOL    HW263906   7.293   5.571   3.730  0.3781 -0.1341 -0.1969
19687SOL     OW63907   8.239   5.968   5.300  0.1310  0.3373  0.5313
19687SOL    HW163908   8.152   5.938   5.326 -0.1292 -0.7868 -1.5032
19687SOL    HW263909   8.298   5.926   5.361 -0.6306 -0.2186  0.8968
19688SOL     OW63910   6.486   4.395   2.403 -0.2023  0.3400  0.9671
19688SOL    HW163911   6.539   4.463   2.445  2.8275 -1.0793 -0.4245
19688SOL    HW263912   6.521   4.313   2.436 -0.3374 -0.6876 -1.3476
19689SOL     OW63913   6.939   4.430   2.604  0.2541 -0.5031 -0.0834
19689SOL    HW163914   6.931   4.344   2.645  0.9137 -0.7551 -0.4615
19689SOL    HW263915   6.988   4.483   2.667  1.9740 -1.1262 -0.8676
19690SOL     OW63916   7.509   6.438   4.989  0.2573  0.0656  0.4847
19690SOL    HW163917   7.491   6.366   4.928  0.3746 -2.0761  2.8851
19690SOL    HW263918   7.603   6.431   5.007  0.8615  2.6523 -1.4561
19691SOL     OW63919   8.053   5.198   5.475 -0.0329  0.0934 -0.2279
19691SOL    HW163920   7.960   5.213   5.492 -0.1377  0.3846 -1.0540
19691SOL    HW263921   8.055   5.114   5.429  0.1990 -0.3821  0.6400
19692SOL     OW63922   6.109   3.099   4.370  0.9012  0.1502  0.0830
19692SOL    HW163923   6.027   3.146   4.385  0.1859 -0.5947 -1.3734
19692SOL    HW263924   6.173   3.167   4.351 -0.0732  0.5683 -1.8082
19693SOL     OW63925   8.424   5.279   7.360  0.4197  0.5564  0.3394
19693SOL    HW163926   8.435   5.284   7.455  3.7261 -0.2786  0.0619
19693SOL    HW263927   8.389   5.365   7.336  2.2798  1.8512  2.0291
19694SOL     OW63928   7.540   2.835   4.467 -0.2681  0.6611 -0.3057
19694SOL    HW163929   7.516   2.743   4.470  1.7879  0.1213  0.1531
19694SOL    HW263930   7.527   2.867   4.556  1.0613  0.2818  0.0226
19695SOL     OW63931   5.435   2.767   3.873 -0.0812  0.7804 -0.0099
19695SOL    HW163932   5.479   2.701   3.819 -0.8099  0.9420 -0.8228
19695SOL    HW263933   5.378   2.717   3.930  0.7111  0.6047  0.6275
19696SOL     OW63934   7.646   5.643   4.455 -0.3171 -0.6543 -0.4810
19696SOL    HW163935   7.579   5.585   4.491 -1.5871  1.0924  0.0506
19696SOL    HW263936   7.695   5.673   4.532 -0.2165 -0.3538 -0.6618
19697SOL     OW63937   7.165   4.456   5.185  0.1350  0.4247 -0.1510
19697SOL    HW163938   7.142   4.503   5.265  0.9211  1.3937 -0.4854
19697SOL    HW263939   7.097   4.389   5.176 -0.9124  1.4012  0.4044
19698SOL     OW63940   5.583   7.511   2.136  0.0233  0.0912 -0.0335
19698SOL    HW163941   5.600   7.450   2.208  1.0028 -0.7797 -0.9797
19698SOL    HW263942   5.499   7.483   2.099  0.0109 -0.0914  0.1337
19699SOL     OW63943   7.584   3.371   4.917  0.6266  0.4532  0.2331
19699SOL    HW163944   7.594   3.462   4.889  0.1672  0.4887  0.1720
19699SOL    HW263945   7.605   3.373   5.010  1.5163  0.4535  0.0305
19700SOL     OW63946   6.242   2.356   4.778  0.2678  0.4966  0.3438
19700SOL    HW163947   6.229   2.432   4.722  0.5887  1.3193  1.3644
19700SOL    HW263948   6.173   2.294   4.753 -1.5597  2.1342  1.2295
19701SOL     OW63949   7.316   4.879   3.149  0.0257  0.3523  0.4773
19701SOL    HW163950   7.399   4.922   3.129  0.3763 -0.1277  0.8832
19701SOL    HW263951   7.308   4.886   3.245  0.1499 -0.6034  0.5547
19702SOL     OW63952   7.936   6.981   6.405 -0.2854  0.3961 -0.1180
19702SOL    HW163953   7.992   7.058   6.403 -1.4517  1.2880  0.7894
19702SOL    HW263954   7.913   6.965   6.313  0.4964  0.7204 -0.3742
19703SOL     OW63955   8.002   3.204   4.792  0.0978  0.6172  0.6770
19703SOL    HW163956   7.998   3.179   4.884  2.9300  0.8158  0.8991
19703SOL    HW263957   8.050   3.132   4.750  1.1905  1.7822 -0.1238
19704SOL     OW63958   7.642   1.627   4.203 -0.7003 -0.1281 -0.9556
19704SOL    HW163959   7.723   1.583   4.231 -1.6741 -1.3884 -0.0497
19704SOL    HW263960   7.585   1.623   4.279 -1.5124  1.0302 -1.4928
19705SOL     OW63961   7.153   3.684   4.162  0.6606 -0.7840  0.3607
19705SOL    HW163962   7.110   3.600   4.145  1.3869 -0.7436 -1.7218
19705SOL    HW263963   7.152   3.730   4.078  0.7097  1.1064  1.3643
19706SOL     OW63964   8.211   6.958   3.348 -0.3579 -0.3127  0.1659
19706SOL    HW163965   8.208   6.874   3.393 -1.2821  0.8448  2.3387
19706SOL    HW263966   8.298   6.994   3.370 -0.6244  0.0432  0.6484
19707SOL     OW63967   6.280   6.937   2.702 -0.3099  0.5936 -0.1061
19707SOL    HW163968   6.227   6.948   2.623 -2.5116  1.2922  1.4089
19707SOL    HW263969   6.234   6.872   2.753 -0.2122  1.8706  1.6552
19708SOL     OW63970   7.085   4.435   4.599  0.4082 -0.6971  0.0816
19708SOL    HW163971   7.040   4.400   4.522 -0.4724 -0.4003  0.4596
19708SOL    HW263972   7.173   4.398   4.593  0.2941 -0.8149 -0.9715
19709SOL     OW63973   8.750   3.749   9.109 -0.2517 -0.1768 -0.9187
19709SOL    HW163974   8.763   3.779   9.199  0.3943 -1.7714 -0.4699
19709SOL    HW263975   8.833   3.767   9.065 -0.3072 -0.1136 -1.0015
19710SOL     OW63976   7.257   5.230   6.756 -0.0052  0.6675 -0.0005
19710SOL    HW163977   7.273   5.273   6.673  0.4567  0.0950 -0.2106
19710SOL    HW263978   7.163   5.240   6.771 -0.5770 -1.5172 -1.8725
19711SOL     OW63979   7.441   5.087   5.449  0.2174 -0.0883 -0.3245
19711SOL    HW163980   7.450   5.003   5.404  1.1193 -0.6539  0.8994
19711SOL    HW263981   7.347   5.107   5.443 -0.6937 -3.0891  2.7334
19712SOL     OW63982   8.058   4.091   5.980  0.7563  0.2228  0.3678
19712SOL    HW163983   8.098   4.008   5.955  1.2572 -0.3788  3.0357
19712SOL    HW263984   8.129   4.155   5.973  0.8975  0.0567  0.2765
19713SOL     OW63985   8.475   3.328   4.871  0.3096 -0.4824 -0.1119
19713SOL    HW163986   8.484   3.242   4.913  0.8620  0.3501  1.5295
19713SOL    HW263987   8.563   3.365   4.873 -0.4081  1.2048  1.6323
19714SOL     OW63988   6.393   2.981   7.547  0.3963  0.5454  0.4636
19714SOL    HW163989   6.471   3.032   7.566  0.3282  0.5732  0.6787
19714SOL    HW263990   6.372   3.000   7.456  2.3079 -1.6887 -0.5121
19715SOL     OW63991   7.065   4.515   5.612 -0.2935 -0.2072  0.1829
19715SOL    HW163992   7.029   4.594   5.571  1.0236  0.9658  1.2777
19715SOL    HW263993   7.045   4.524   5.705 -2.0220 -2.2091  0.0709
19716SOL     OW63994   7.757   4.929   7.550  0.5130 -0.3144  0.5540
19716SOL    HW163995   7.788   4.985   7.621 -0.2085 -0.7132  1.1804
19716SOL    HW263996   7.699   4.986   7.498 -1.0867 -0.7734  1.8069
19717SOL     OW63997   8.434   4.631   7.952  0.7499 -0.0478 -0.0971
19717SOL    HW163998   8.487   4.654   8.029 -1.4054  0.2160  1.3699
19717SOL    HW263999   8.495   4.630   7.879  2.5207  1.5384  1.3303
19718SOL     OW64000   8.000   6.035   4.740 -0.6996 -0.0899 -0.1516
19718SOL    HW164001   8.024   6.115   4.693 -0.0124 -1.2074 -1.7218
19718SOL    HW264002   8.043   6.044   4.825 -0.4408  1.0934 -0.3949
19719SOL     OW64003   9.130   5.957   6.989  0.8438 -0.3226  0.0488
19719SOL    HW164004   9.167   6.017   6.923  0.5552 -0.4039 -0.1868
19719SOL    HW264005   9.061   6.007   7.031  1.5350 -0.0039  0.8242
19720SOL     OW64006   7.120   3.653   0.979  0.0148 -0.1972 -0.3534
19720SOL    HW164007   7.172   3.706   1.041  0.3139  0.4147 -1.1150
19720SOL    HW264008   7.128   3.564   1.012 -1.2833  0.3385  1.5074
19721SOL     OW64009   6.916   2.790   7.780  0.0038 -0.0597  0.4219
19721SOL    HW164010   6.977   2.856   7.812  0.4092 -0.1071 -0.2336
19721SOL    HW264011   6.962   2.707   7.789  0.4726  0.0146 -1.0733
19722SOL     OW64012   7.136   4.165   5.821  0.4800 -0.2330  0.4002
19722SOL    HW164013   7.132   4.231   5.889  0.0495  1.1215 -0.9035
19722SOL    HW264014   7.189   4.204   5.752 -0.0568 -1.0959 -0.5287
19723SOL     OW64015   6.867   6.717   8.073 -0.5504  0.1362  0.0777
19723SOL    HW164016   6.862   6.733   7.979  1.2801  2.2435  0.3045
19723SOL    HW264017   6.788   6.665   8.092 -1.7107  0.9008 -2.3461
19724SOL     OW64018   8.083   5.237   7.565 -0.3516  0.2975 -0.3136
19724SOL    HW164019   8.037   5.169   7.614  2.0146  0.2662  2.0135
19724SOL    HW264020   8.134   5.189   7.499 -0.7306  0.0346 -0.4131
19725SOL     OW64021   6.911   5.819   7.266  0.5195 -0.3182 -0.7506
19725SOL    HW164022   6.882   5.909   7.263 -1.6159 -0.9400  0.3233
19725SOL    HW264023   6.983   5.819   7.329  2.7548  1.1838 -3.2254
19726SOL     OW64024   7.631   6.360   6.402  0.1282  0.3242  0.3308
19726SOL    HW164025   7.632   6.387   6.310  2.5065 -1.2433 -0.1579
19726SOL    HW264026   7.668   6.434   6.450  0.5548  0.4657 -0.2115
19727SOL     OW64027   6.364   2.220   6.898 -0.0315 -0.1376  0.4224
19727SOL    HW164028   6.455   2.245   6.886 -0.4371  2.1498  1.8909
19727SOL    HW264029   6.316   2.303   6.900 -2.1988 -1.3242 -0.7084
19728SOL     OW64030   6.799   4.478   8.672 -0.3730  0.5961  0.1655
19728SOL    HW164031   6.706   4.494   8.685 -0.5846 -0.8528  0.6271
19728SOL    HW264032   6.824   4.532   8.597 -2.0334 -0.4996 -1.2070
19729SOL     OW64033   6.487   3.315   4.552 -0.2646  0.5697  0.0495
19729SOL    HW164034   6.576   3.285   4.572 -0.6076  0.9247  2.3127
19729SOL    HW264035   6.433   3.237   4.560 -0.3004  0.5677 -0.2278
19730SOL     OW64036   7.764   6.719   7.431  0.8833 -0.5454  0.1222
19730SOL    HW164037   7.769   6.723   7.527 -0.1666  2.4312  0.1126
19730SOL    HW264038   7.842   6.765   7.401  0.9344 -1.0014 -0.4402
19731SOL     OW64039   7.225   5.102   7.804 -0.1425 -0.2168 -0.4058
19731SOL    HW164040   7.263   5.086   7.890 -1.6737  3.4701  1.0519
19731SOL    HW264041   7.287   5.162   7.762 -0.7358  0.0791 -0.8561
19732SOL     OW64042   8.216   2.374   6.829  0.3022 -0.6401  0.1865
19732SOL    HW164043   8.294   2.422   6.857  1.1623 -0.6692 -2.0927
19732SOL    HW264044   8.248   2.287   6.806 -0.3534 -0.5817 -0.9822
19733SOL     OW64045   6.040   1.826   9.638  0.2288 -0.3476 -0.2125
19733SOL    HW164046   6.092   1.785   9.708  1.3785  0.1585 -0.7623
19733SOL    HW264047   6.058   1.919   9.645 -1.3301 -0.0548  0.1634
19734SOL     OW64048   7.209   6.764   6.270 -0.1966 -0.0639 -0.3790
19734SOL    HW164049   7.137   6.794   6.326 -0.8907 -0.7953 -0.8673
19734SOL    HW264050   7.268   6.839   6.264 -0.4348  0.2363  0.8097
19735SOL     OW64051   8.097   4.959   4.146  0.1599  0.2214 -0.0509
19735SOL    HW164052   8.169   4.953   4.084  1.5536 -0.7664  1.6052
19735SOL    HW264053   8.120   5.033   4.202 -0.4640  0.3546  0.0282
19736SOL     OW64054   6.940   4.055   3.578 -0.2542  0.0684  0.0232
19736SOL    HW164055   6.845   4.057   3.564 -0.2546  2.8549  0.2261
19736SOL    HW264056   6.958   4.131   3.633  1.9948 -0.9989  0.8274
19737SOL     OW64057   5.421   4.599   8.728 -0.3342  0.1514  0.1119
19737SOL    HW164058   5.501   4.651   8.727 -0.6940  0.7332  0.8846
19737SOL    HW264059   5.434   4.532   8.661  0.4071  0.8289 -0.4189
19738SOL     OW64060   7.086   3.842   5.381 -0.4993  0.1381  0.3277
19738SOL    HW164061   7.105   3.888   5.299  1.9074 -1.1219  0.1032
19738SOL    HW264062   7.115   3.902   5.449 -0.6262  0.3882  0.1611
19739SOL     OW64063   6.470   7.542   6.039  0.2478  0.1202  0.1387
19739SOL    HW164064   6.386   7.555   6.084  1.2096  0.8732  1.7684
19739SOL    HW264065   6.464   7.597   5.961 -0.3135  1.1263  0.8809
19740SOL     OW64066   7.813   2.248   8.540  0.1495  0.0873  0.1402
19740SOL    HW164067   7.811   2.277   8.632  3.0590  1.0319 -0.0367
19740SOL    HW264068   7.811   2.152   8.545 -0.7532  0.1516  1.1378
19741SOL     OW64069   8.429   5.145   7.110 -0.2750 -0.5533 -0.3152
19741SOL    HW164070   8.441   5.051   7.119  0.6027 -0.4762 -0.5637
19741SOL    HW264071   8.439   5.179   7.199 -0.1127 -0.6459 -0.2973
19742SOL     OW64072   8.056   5.273   6.020 -0.6564  0.4633  0.2352
19742SOL    HW164073   8.066   5.194   5.967 -0.9880 -0.1132  1.0427
19742SOL    HW264074   8.134   5.325   5.999 -0.4119 -0.0949 -0.2540
19743SOL     OW64075   7.805   3.694   4.384 -0.2264 -0.0031  0.0750
19743SOL    HW164076   7.802   3.719   4.292 -0.5460 -0.1322  0.0494
19743SOL    HW264077   7.896   3.670   4.400 -0.4333 -1.2051 -0.5316
19744SOL     OW64078   7.389   4.785   4.885 -0.7405  0.7320 -0.1110
19744SOL    HW164079   7.334   4.794   4.963 -1.4069 -0.9980 -0.3587
19744SOL    HW264080   7.328   4.758   4.816  0.4049 -1.2173 -0.3902
19745SOL     OW64081   7.016   6.133   4.861 -0.2862  0.2129  1.0303
19745SOL    HW164082   6.956   6.176   4.800 -1.1331  0.4301  2.0012
19745SOL    HW264083   7.093   6.190   4.862 -0.1341  0.0299 -0.0867
19746SOL     OW64084   0.207   5.590   8.719  0.5273  0.0569 -0.6546
19746SOL    HW164085   0.213   5.594   8.624  2.6166  0.4207 -0.5363
19746SOL    HW264086   0.234   5.501   8.741  1.6152  0.4682 -0.3118
19747SOL     OW64087   8.592   6.539   6.870  0.0392 -0.3770  0.0245
19747SOL    HW164088   8.531   6.613   6.872 -0.5127 -0.8512  1.2415
19747SOL    HW264089   8.544   6.467   6.910 -0.8793 -2.5368 -4.6005
19748SOL     OW64090   7.858   4.548   6.828 -0.2519 -0.3336 -0.1267
19748SOL    HW164091   7.914   4.572   6.902  0.4460  0.2369 -0.8321
19748SOL    HW264092   7.791   4.617   6.826 -0.5717 -0.6267  0.2789
19749SOL     OW64093   6.762   3.218   5.359 -0.0576 -0.8848  0.3422
19749SOL    HW164094   6.667   3.211   5.351 -0.1672 -0.0519  0.8557
19749SOL    HW264095   6.790   3.258   5.276 -0.1486 -1.1648  0.1759
19750SOL     OW64096   6.669   4.397   7.754  0.1076  0.4111  0.4223
19750SOL    HW164097   6.660   4.374   7.846  0.4099  0.4150  0.4523
19750SOL    HW264098   6.599   4.348   7.710  0.4302 -0.1661  0.5537
19751SOL     OW64099   6.840   3.118   7.226  0.1022 -0.0160  0.1460
19751SOL    HW164100   6.919   3.172   7.223  0.5601 -0.6304  0.8513
19751SOL    HW264101   6.868   3.033   7.191 -0.5945  0.1793 -0.8923
19752SOL     OW64102   6.412   7.196   9.201 -0.4831  0.2746 -0.1366
19752SOL    HW164103   6.371   7.281   9.189  0.4070  0.8710  0.9227
19752SOL    HW264104   6.495   7.202   9.154 -0.5880 -0.1395 -0.3768
19753SOL     OW64105   8.070   2.693   4.456  1.0343  0.1323 -0.1622
19753SOL    HW164106   7.984   2.676   4.417  0.2417  3.3960  0.0561
19753SOL    HW264107   8.133   2.669   4.387 -0.1750  0.6832 -1.4767
19754SOL     OW64108   7.139   3.763   7.702 -0.0737 -0.7520 -0.6422
19754SOL    HW164109   7.123   3.705   7.776  1.1508  0.2163  0.3999
19754SOL    HW264110   7.234   3.775   7.701 -0.2833  0.9606 -1.0668
19755SOL     OW64111   7.493   5.036   3.674 -0.6659 -0.1429 -0.3666
19755SOL    HW164112   7.447   5.110   3.713 -1.1267  1.0494 -3.0526
19755SOL    HW264113   7.570   5.074   3.632  0.1918 -1.4717 -0.0520
19756SOL     OW64114   7.966   3.007   6.811 -0.0666  0.1388  1.0074
19756SOL    HW164115   8.025   2.940   6.847  0.9088 -0.4683 -1.6040
19756SOL    HW264116   8.021   3.056   6.750 -1.8280  0.7488 -0.1168
19757SOL     OW64117   7.092   5.290   7.561  0.1246 -0.2466 -0.2013
19757SOL    HW164118   7.068   5.238   7.484  0.0358 -0.6983  0.1360
19757SOL    HW264119   7.175   5.253   7.591 -0.6596 -1.1141  0.8923
19758SOL     OW64120   8.924   4.565   7.784  0.0586 -0.2416  0.3575
19758SOL    HW164121   8.897   4.494   7.842 -2.1684  1.5824  1.5952
19758SOL    HW264122   8.897   4.537   7.697 -1.6709 -0.4923  0.9723
19759SOL     OW64123   7.504   4.698   7.099 -0.2619  0.1893 -0.1156
19759SOL    HW164124   7.573   4.750   7.140 -0.6062  1.1595 -0.7532
19759SOL    HW264125   7.435   4.761   7.079 -1.6003 -0.8665  1.0714
19760SOL     OW64126   7.111   5.091   5.971  0.0357 -0.7229  0.0729
19760SOL    HW164127   7.158   5.131   6.044 -0.2867 -0.9782  0.4225
19760SOL    HW264128   7.152   5.127   5.893  0.8533 -0.9895  0.3795
19761SOL     OW64129   8.253   5.076   7.417  0.5101  0.3571  0.3001
19761SOL    HW164130   8.339   5.118   7.411  1.3999 -1.3190  0.7481
19761SOL    HW264131   8.272   4.982   7.407 -1.4877  0.1129 -1.4664
19762SOL     OW64132   6.797   3.494   7.328  0.4964  0.0179  0.7223
19762SOL    HW164133   6.826   3.410   7.293  0.2274  0.1057  0.2896
19762SOL    HW264134   6.710   3.477   7.364  0.5282  0.0608  0.8182
19763SOL     OW64135   8.201   5.145   6.974 -0.1283 -0.7366  0.0359
19763SOL    HW164136   8.209   5.222   6.917 -0.9476 -0.4986  0.2412
19763SOL    HW264137   8.284   5.142   7.022  0.0237 -0.1509 -0.1820
19764SOL     OW64138   7.659   5.271   3.289 -0.0430  0.0209  0.3141
19764SOL    HW164139   7.675   5.321   3.209 -0.5705 -0.1975  0.0707
19764SOL    HW264140   7.681   5.181   3.266  0.7735  0.1179  0.7114
19765SOL     OW64141   7.265   3.045   8.649  0.2739 -0.2032 -1.0458
19765SOL    HW164142   7.273   3.112   8.581  2.8295  0.6214 -0.0225
19765SOL    HW264143   7.230   3.092   8.725  3.7629  0.5161  0.2448
19766SOL     OW64144   7.245   2.900   4.214 -0.0573  0.0854  1.0230
19766SOL    HW164145   7.331   2.925   4.249 -0.6388  1.7213  1.3405
19766SOL    HW264146   7.258   2.894   4.120 -0.2376  3.2460  0.7361
19767SOL     OW64147   8.059   5.261   7.177  0.1179 -0.3730 -0.3596
19767SOL    HW164148   8.089   5.198   7.112 -0.1616 -0.0191 -0.8308
19767SOL    HW264149   8.127   5.260   7.244  1.7779  1.2448 -1.9578
19768SOL     OW64150   6.896   3.225   4.513  0.6193 -0.2375  0.0724
19768SOL    HW164151   6.912   3.178   4.431  0.4928  0.0630 -0.1250
19768SOL    HW264152   6.890   3.317   4.487 -0.3749 -0.2329  0.2860
19769SOL     OW64153   6.276   5.252   8.421  0.2910  0.4047 -0.7877
19769SOL    HW164154   6.217   5.178   8.405 -1.2051  0.8731  2.1749
19769SOL    HW264155   6.359   5.212   8.445 -0.5317 -0.3922  0.8796
19770SOL     OW64156   7.355   5.780   7.507 -0.0469 -0.6140 -0.7989
19770SOL    HW164157   7.401   5.759   7.426  0.9343 -2.2091  0.1466
19770SOL    HW264158   7.424   5.807   7.567 -0.7811  0.6603 -0.5110
19771SOL     OW64159   5.964   3.786   8.243  0.2161 -0.3372  0.0358
19771SOL    HW164160   5.961   3.719   8.175  0.6234  1.4254 -1.7524
19771SOL    HW264161   6.050   3.827   8.233 -0.4874  1.2465  0.3437
19772SOL     OW64162   5.215   2.535   5.631  0.0084  0.0156 -0.0639
19772SOL    HW164163   5.257   2.516   5.715  0.6236  1.2445 -0.0852
19772SOL    HW264164   5.240   2.461   5.575  0.7159 -0.1273  0.4304
19773SOL     OW64165   9.458   3.981   8.505  0.2197 -0.4427  0.5642
19773SOL    HW164166   9.547   3.964   8.473 -0.4138 -2.4976 -0.2194
19773SOL    HW264167   9.458   3.951   8.596  0.8895  1.5408  1.2361
19774SOL     OW64168   7.961   6.365   6.300 -0.1799 -0.0395  0.1815
19774SOL    HW164169   8.042   6.405   6.269  0.4132  0.7042  2.5922
19774SOL    HW264170   7.891   6.419   6.264  0.4555  0.3583 -0.4597
19775SOL     OW64171   8.396   2.494   7.777 -0.6681 -0.4372  0.0467
19775SOL    HW164172   8.378   2.400   7.768 -0.3139 -0.4562 -0.5468
19775SOL    HW264173   8.489   2.503   7.754 -0.6881  0.0510  0.1479
19776SOL     OW64174   7.034   4.303   7.891  0.3578 -0.2963 -0.0915
19776SOL    HW164175   7.082   4.276   7.813  2.7242  1.1946  0.7958
19776SOL    HW264176   7.033   4.225   7.947  0.5326 -0.7476 -0.7165
19777SOL     OW64177   7.701   1.441   7.149  0.5771 -0.6402 -0.0078
19777SOL    HW164178   7.692   1.367   7.209 -0.2852 -0.2695  0.3276
19777SOL    HW264179   7.779   1.420   7.097  0.2291 -1.8840 -0.0624
19778SOL     OW64180   6.597   2.440   4.427  0.6944 -0.1383  0.2493
19778SOL    HW164181   6.661   2.491   4.377 -0.9659  1.7306 -0.0563
19778SOL    HW264182   6.590   2.357   4.380 -0.4204  1.3704 -2.3482
19779SOL     OW64183   8.006   4.616   7.621  0.0864 -0.2610 -0.4810
19779SOL    HW164184   8.039   4.706   7.619  2.2005 -1.0005 -0.0902
19779SOL    HW264185   7.987   4.596   7.529 -1.6779  1.0060 -0.4302
19780SOL     OW64186   5.335   1.357   3.850  0.0516  0.3455 -0.0199
19780SOL    HW164187   5.277   1.351   3.926 -1.0388  1.3718 -0.7442
19780SOL    HW264188   5.390   1.279   3.855 -1.5509 -0.7678  0.5690
19781SOL     OW64189   6.653   2.881   5.228  0.1825 -0.3734  0.1811
19781SOL    HW164190   6.740   2.863   5.264  0.6277  0.2565 -0.5726
19781SOL    HW264191   6.634   2.971   5.254 -0.0313 -0.3430 -0.0744
19782SOL     OW64192   7.707   3.832   7.496  0.6377  0.0333 -0.5366
19782SOL    HW164193   7.798   3.847   7.470  0.3218 -0.0389 -1.6894
19782SOL    HW264194   7.709   3.834   7.592  1.7705  0.5123 -0.5653
19783SOL     OW64195   6.985   4.665   8.274  0.3068  0.1744 -0.5137
19783SOL    HW164196   6.931   4.595   8.310 -1.3175  2.0318  0.7938
19783SOL    HW264197   6.977   4.656   8.179 -0.6161 -0.8706 -0.3428
19784SOL     OW64198   7.314   4.451   6.724 -0.0095 -0.7565  0.4770
19784SOL    HW164199   7.262   4.498   6.789  0.4626 -1.2453  1.2178
19784SOL    HW264200   7.405   4.472   6.746  0.1070  0.5070 -1.1298
19785SOL     OW64201   8.400   5.156   4.340 -0.0002 -0.4026 -0.5006
19785SOL    HW164202   8.469   5.181   4.278  1.9356  0.7875  2.0376
19785SOL    HW264203   8.373   5.069   4.312  1.8963 -0.5214 -2.1030
19786SOL     OW64204   6.612   3.402   6.044  0.0958  0.1835  0.0423
19786SOL    HW164205   6.619   3.463   6.117  0.4945  1.2341 -0.8536
19786SOL    HW264206   6.605   3.458   5.966 -2.1835 -0.8976 -0.5855
19787SOL     OW64207   5.800   3.159   7.689 -0.6820  0.7178  0.4995
19787SOL    HW164208   5.767   3.159   7.599 -0.0463  0.2105  0.2639
19787SOL    HW264209   5.785   3.070   7.720  2.0630 -0.0501 -0.2133
19788SOL     OW64210   8.024   4.830   7.967 -0.4491  0.1523 -0.2032
19788SOL    HW164211   8.118   4.824   7.984 -0.4551  0.7718  0.0818
19788SOL    HW264212   7.996   4.740   7.951  0.4258  0.1049 -1.5728
19789SOL     OW64213   6.653   3.893   7.107 -0.2975  0.5405  0.5772
19789SOL    HW164214   6.733   3.931   7.142 -0.5340  2.2987 -0.7346
19789SOL    HW264215   6.683   3.819   7.054  0.3931  0.7563  0.6586
19790SOL     OW64216   6.864   3.584   4.816  0.1390 -0.3857  0.6837
19790SOL    HW164217   6.851   3.672   4.781  0.0322 -0.4508  0.5585
19790SOL    HW264218   6.792   3.571   4.878  0.8869  0.1043  1.6741
19791SOL     OW64219   6.913   2.137   7.380 -0.7145  0.3541 -0.2645
19791SOL    HW164220   6.831   2.107   7.418 -0.5137 -1.8783 -1.5105
19791SOL    HW264221   6.952   2.059   7.341  0.7144  1.8963 -2.0527
19792SOL     OW64222   9.342   5.024   6.284 -0.3339  0.0372 -0.1766
19792SOL    HW164223   9.300   4.972   6.352  1.8669 -0.4560  0.8235
19792SOL    HW264224   9.364   4.960   6.216  0.9702 -0.1123  0.3727
19793SOL     OW64225   7.219   5.521   7.482 -0.0169  0.2948 -0.0927
19793SOL    HW164226   7.161   5.451   7.513 -0.1892  0.7012  0.4959
19793SOL    HW264227   7.306   5.496   7.513  0.0289  0.0034 -0.4475
19794SOL     OW64228   7.437   1.603   4.391  0.0092 -0.0663 -0.1582
19794SOL    HW164229   7.392   1.613   4.474  0.6752  0.2595  0.1717
19794SOL    HW264230   7.380   1.548   4.338  0.7377 -2.3720  1.3923
19795SOL     OW64231   6.334   3.674   7.391  0.3484  0.0492  0.5462
19795SOL    HW164232   6.247   3.684   7.431 -0.8215 -2.2158 -1.2658
19795SOL    HW264233   6.363   3.763   7.375 -3.0319  0.8811 -1.5947
19796SOL     OW64234   6.750   3.482   6.395  0.3547  0.1761  0.4557
19796SOL    HW164235   6.713   3.539   6.328 -0.6098  0.7108  1.4311
19796SOL    HW264236   6.841   3.511   6.404  1.1702 -1.4011 -2.2153
19797SOL     OW64237   6.346   7.881   7.652  0.1834 -0.0881  0.0292
19797SOL    HW164238   6.432   7.902   7.687 -0.2266  3.8794 -1.1300
19797SOL    HW264239   6.286   7.942   7.695 -1.7280 -1.3042 -0.8106
19798SOL     OW64240   5.829   3.815   8.473 -0.1974  0.3848 -0.8287
19798SOL    HW164241   5.871   3.794   8.390  0.2142 -0.6690 -0.3729
19798SOL    HW264242   5.897   3.860   8.523  0.7596 -2.1826  0.2760
19799SOL     OW64243   6.591   5.807   7.986 -0.0418 -0.6625 -0.3336
19799SOL    HW164244   6.665   5.793   7.927  0.8613 -3.8071  1.4607
19799SOL    HW264245   6.519   5.756   7.948 -0.7530  0.8015 -1.0050
19800SOL     OW64246   7.520   5.579   8.742 -0.5807  0.4075  0.1537
19800SOL    HW164247   7.554   5.625   8.665 -0.4143  1.2243  0.7122
19800SOL    HW264248   7.542   5.636   8.816 -1.5015  0.0436  0.7171
19801SOL     OW64249   7.018   3.352   5.136  0.4079  0.0150  0.2640
19801SOL    HW164250   6.952   3.413   5.169 -0.7337 -0.4050 -1.1854
19801SOL    HW264251   7.056   3.396   5.060  3.0025  0.9667  2.0364
19802SOL     OW64252   7.913   4.713   5.981 -0.5747 -0.2538  0.0601
19802SOL    HW164253   7.944   4.789   6.031  0.7723 -0.5330 -0.3354
19802SOL    HW264254   7.924   4.639   6.040 -0.7402 -0.3146  0.0143
19803SOL     OW64255   7.154   4.010   7.970 -0.0703  0.3011  0.3420
19803SOL    HW164256   7.081   3.948   7.972 -0.4311  0.7478  1.3923
19803SOL    HW264257   7.214   3.980   8.038  0.4279  0.2983 -0.0928
19804SOL     OW64258   6.822   6.197   4.310  0.1418  0.3836  0.1285
19804SOL    HW164259   6.826   6.169   4.218  0.5921 -0.0300  0.2732
19804SOL    HW264260   6.810   6.116   4.359  5.5891 -0.1548  0.8991
19805SOL     OW64261   6.028   2.188   4.723  0.5238  0.4257  0.2074
19805SOL    HW164262   6.010   2.161   4.813 -1.8333  0.1019 -0.3207
19805SOL    HW264263   5.943   2.217   4.690  1.4392  0.8991 -1.7999
19806SOL     OW64264   6.708   2.463   7.329 -0.4463 -0.2760 -0.8575
19806SOL    HW164265   6.798   2.456   7.361 -0.0753  0.3428 -1.7314
19806SOL    HW264266   6.705   2.404   7.253 -1.3173 -1.7472  0.2997
19807SOL     OW64267   8.012   6.939   8.403  0.0348  0.3299  0.0915
19807SOL    HW164268   8.032   6.848   8.382 -0.2634  0.4686 -0.8285
19807SOL    HW264269   8.019   6.944   8.498  0.7344 -0.4905  0.0885
19808SOL     OW64270   7.337   6.290   8.688 -0.1044  0.3010 -0.1992
19808SOL    HW164271   7.330   6.385   8.704 -1.5394  0.3828 -1.1716
19808SOL    HW264272   7.357   6.253   8.774 -1.7680  1.2826  0.6432
19809SOL     OW64273   8.838   5.808   7.169  0.2388  0.5204 -0.0174
19809SOL    HW164274   8.795   5.815   7.254  0.3961 -0.0317  0.1130
19809SOL    HW264275   8.881   5.722   7.171  0.9526  0.8675 -0.3280
19810SOL     OW64276   8.167   4.043   7.114 -0.2524  0.1490  0.3173
19810SOL    HW164277   8.100   4.094   7.068 -1.0491 -0.7835  0.4297
19810SOL    HW264278   8.232   4.108   7.141 -1.4017  1.1561  0.7145
19811SOL     OW64279   7.761   2.817   6.617 -0.1411 -0.4016  0.8975
19811SOL    HW164280   7.708   2.746   6.581 -0.1230 -0.8764  1.7829
19811SOL    HW264281   7.850   2.795   6.591 -0.3491  0.3491 -0.5136
19812SOL     OW64282   7.208   3.451   5.792  0.4458  0.0741  0.4185
19812SOL    HW164283   7.149   3.379   5.814  1.1293 -0.7803 -0.4638
19812SOL    HW264284   7.294   3.420   5.820  0.5802  0.9877  0.9985
19813SOL     OW64285   7.386   3.817   5.619  0.1374 -0.9032 -0.2030
19813SOL    HW164286   7.320   3.770   5.669 -0.3626 -0.6823 -0.6504
19813SOL    HW264287   7.347   3.903   5.602  0.0304 -1.2037 -1.5391
19814SOL     OW64288   7.366   4.211   7.926 -0.6028  0.4041 -0.5296
19814SOL    HW164289   7.297   4.149   7.950 -0.3868  0.6897  0.8593
19814SOL    HW264290   7.447   4.171   7.957 -0.1144  0.0036 -2.2890
19815SOL     OW64291   6.185   2.235   7.782  0.7197 -0.2843  0.7570
19815SOL    HW164292   6.140   2.193   7.855 -0.9149 -0.1238 -0.1247
19815SOL    HW264293   6.175   2.329   7.798 -0.6369 -0.2308 -0.2076
19816SOL     OW64294   7.605   3.888   6.346 -0.2740 -0.0971 -0.0041
19816SOL    HW164295   7.610   3.893   6.250  0.4733 -1.0440 -0.0206
19816SOL    HW264296   7.522   3.844   6.363  0.4951 -1.6872 -0.2789
19817SOL     OW64297   6.320   4.035   7.585 -0.0691  0.2012 -0.4128
19817SOL    HW164298   6.364   3.992   7.512 -1.1639 -0.3191 -0.7693
19817SOL    HW264299   6.368   4.007   7.663  1.5972  1.3860 -0.9941
19818SOL     OW64300   8.900   3.930   7.335  0.2778 -0.2497 -0.3351
19818SOL    HW164301   8.833   3.996   7.315  0.8801  0.6165  0.4188
19818SOL    HW264302   8.854   3.847   7.331 -1.2035  0.4368  1.5941
19819SOL     OW64303   7.074   7.237   7.905  0.5212  0.1766 -0.0282
19819SOL    HW164304   7.067   7.183   7.984  1.9883  1.9808  1.3660
19819SOL    HW264305   6.992   7.287   7.903 -0.8132 -1.9720 -1.2851
19820SOL     OW64306   8.427   2.888   5.360  0.9241  0.7712  0.7862
19820SOL    HW164307   8.366   2.819   5.333  0.9712  0.4794  1.4221
19820SOL    HW264308   8.505   2.841   5.390  1.2573  1.1292  0.4764
19821SOL     OW64309   7.596   4.782   8.795  0.4422  0.0743  0.3435
19821SOL    HW164310   7.513   4.809   8.833 -0.2488  0.0052 -1.1099
19821SOL    HW264311   7.640   4.734   8.866 -1.3510 -1.1155  0.6653
19822SOL     OW64312   6.280   2.688   7.486 -0.2512  0.6293  0.1712
19822SOL    HW164313   6.373   2.667   7.495  0.0555  1.9181  0.1987
19822SOL    HW264314   6.278   2.759   7.422 -1.0949  1.4195  1.0480
19823SOL     OW64315   8.402   3.495   8.291 -0.3785  0.0147 -0.0854
19823SOL    HW164316   8.485   3.530   8.260 -0.9129  0.2639 -1.2291
19823SOL    HW264317   8.350   3.479   8.212 -1.1120 -0.9250  0.5628
19824SOL     OW64318   5.753   1.803   4.625 -0.1868  0.5066  0.2573
19824SOL    HW164319   5.748   1.785   4.719 -0.1061  1.2143  0.3995
19824SOL    HW264320   5.688   1.744   4.586 -0.7083  0.6988  0.8209
19825SOL     OW64321   8.553   3.947   5.579 -0.3774 -0.0028  0.1309
19825SOL    HW164322   8.508   3.948   5.664  1.0342  1.8581  0.8990
19825SOL    HW264323   8.578   4.038   5.565  0.0292 -0.4282 -1.9624
19826SOL     OW64324   7.174   3.665   6.019 -0.0300 -0.1661  0.1601
19826SOL    HW164325   7.268   3.681   6.028  0.1305 -0.4367 -0.8596
19826SOL    HW264326   7.168   3.607   5.943 -1.0722  0.3445 -0.1536
19827SOL     OW64327   8.065   6.120   8.122  0.1442  0.0077 -0.3525
19827SOL    HW164328   8.141   6.115   8.180  1.0437  0.2655 -1.4822
19827SOL    HW264329   8.081   6.198   8.069 -0.6334 -0.2512 -0.9713
19828SOL     OW64330   7.703   4.403   7.885 -0.5295 -0.7088 -0.5896
19828SOL    HW164331   7.722   4.335   7.820  0.6451 -1.4675  0.5191
19828SOL    HW264332   7.702   4.356   7.969  1.8313  0.8722  0.3751
19829SOL     OW64333   6.903   4.591   9.778 -0.4753 -0.1854 -0.1268
19829SOL    HW164334   6.922   4.601   9.685  0.6497  0.2720  0.1362
19829SOL    HW264335   6.812   4.564   9.782 -0.0315 -2.0044 -1.4599
19830SOL     OW64336   6.731   4.627   4.543 -0.0788 -0.5710  0.0518
19830SOL    HW164337   6.750   4.715   4.510 -0.6922 -1.0209 -1.5405
19830SOL    HW264338   6.770   4.626   4.631  1.3189  0.7595 -0.5123
19831SOL     OW64339   7.177   2.722   4.612 -0.1867 -0.8120  0.5968
19831SOL    HW164340   7.244   2.675   4.562  0.2507 -0.0960  0.5181
19831SOL    HW264341   7.193   2.697   4.703 -0.0099 -0.8801  0.5465
19832SOL     OW64342   8.615   4.598   7.716  0.1241 -0.3112  0.0616
19832SOL    HW164343   8.661   4.550   7.647 -0.4642  0.1627 -0.6798
19832SOL    HW264344   8.645   4.559   7.798  0.4463 -1.2198 -0.4884
19833SOL     OW64345   6.118   4.801   8.473  0.1750  0.6487 -0.4158
19833SOL    HW164346   6.044   4.861   8.489  0.7872  0.9596  1.3844
19833SOL    HW264347   6.187   4.857   8.440  0.7737  0.9836  1.3434
19834SOL     OW64348   7.448   3.211   6.226  0.0874 -0.4360  0.1045
19834SOL    HW164349   7.488   3.141   6.174 -0.2107 -0.2051 -0.4395
19834SOL    HW264350   7.510   3.226   6.297 -0.1350 -1.6733  0.5750
19835SOL     OW64351   7.065   4.090   8.495 -0.3947  0.4463  0.3026
19835SOL    HW164352   7.094   4.006   8.460  1.6917  1.6823 -0.9864
19835SOL    HW264353   6.985   4.069   8.544  0.0002 -2.2455 -0.1457
19836SOL     OW64354   7.686   4.749   6.878  0.0179 -0.1665 -0.1065
19836SOL    HW164355   7.675   4.827   6.824 -0.0811 -0.0274  0.1154
19836SOL    HW264356   7.647   4.772   6.962 -0.2040 -0.5297 -0.1096
19837SOL     OW64357   7.276   4.791   6.304  0.0971  0.0101 -0.2158
19837SOL    HW164358   7.228   4.818   6.382  1.0474  0.2389  0.2894
19837SOL    HW264359   7.306   4.702   6.323 -1.3886 -0.7077 -1.1247
19838SOL     OW64360   6.704   5.173   7.720 -0.1097  0.5343  0.3024
19838SOL    HW164361   6.722   5.244   7.658  0.2345  1.2441  1.2084
19838SOL    HW264362   6.787   5.125   7.726 -0.4363 -0.1550 -0.5631
19839SOL     OW64363   5.991   7.548   6.007  0.2047 -0.1661  0.9280
19839SOL    HW164364   5.921   7.597   5.964 -0.6363 -0.5634  1.8284
19839SOL    HW264365   6.028   7.492   5.939  0.5538  1.0315  0.1195
19840SOL     OW64366   8.582   1.948   7.059 -0.2785  0.0371  0.2256
19840SOL    HW164367   8.500   1.985   7.028  0.2831  1.8483  0.8411
19840SOL    HW264368   8.650   1.996   7.010  0.4321 -0.8735  0.3091
19841SOL     OW64369   7.203   4.055   5.523  0.4833 -0.0114 -0.2188
19841SOL    HW164370   7.194   4.139   5.567 -0.8882 -0.5894  0.6498
19841SOL    HW264371   7.269   4.070   5.455  0.3035  1.7342 -0.0330
19842SOL     OW64372   7.311   4.740   8.812 -0.0369  0.0367  0.2957
19842SOL    HW164373   7.218   4.720   8.797  0.2565 -1.1326 -0.0262
19842SOL    HW264374   7.343   4.666   8.864  1.1044 -0.4129 -1.0065
19843SOL     OW64375   7.495   5.237   7.187 -0.1033  0.1491 -0.0489
19843SOL    HW164376   7.581   5.261   7.222 -0.4968 -2.2430  2.6957
19843SOL    HW264377   7.455   5.321   7.165  1.6016  1.5448  1.8953
19844SOL     OW64378   5.046   2.961   3.416 -0.5194 -0.2502  0.0063
19844SOL    HW164379   5.007   2.881   3.379  1.4075 -1.0342 -0.3714
19844SOL    HW264380   5.128   2.932   3.455 -1.0377  1.1158  2.2150
19845SOL     OW64381   7.613   3.624   6.779  0.2306  0.7926 -0.0022
19845SOL    HW164382   7.539   3.568   6.755  0.4341  0.2673  0.6008
19845SOL    HW264383   7.575   3.713   6.780  0.1089  0.7727 -1.7558
19846SOL     OW64384   6.058   6.618   7.759 -0.1349  0.8398 -0.1504
19846SOL    HW164385   6.024   6.707   7.758 -1.4551  0.3920  1.1294
19846SOL    HW264386   6.106   6.612   7.842  0.8449  0.6760 -0.7280
19847SOL     OW64387   7.192   2.833   7.378  0.3257  0.3785  0.0148
19847SOL    HW164388   7.123   2.898   7.364 -0.0469  1.0348  4.4097
19847SOL    HW264389   7.148   2.749   7.366 -0.3196  0.8365 -0.9254
19848SOL     OW64390   7.633   4.832   8.286  0.0830  0.4380  0.0381
19848SOL    HW164391   7.672   4.918   8.276  3.6180 -1.0790  0.0773
19848SOL    HW264392   7.678   4.777   8.222 -2.2731 -1.3432 -0.1686
19849SOL     OW64393   7.537   3.848   6.908 -0.3802  0.1674 -0.1151
19849SOL    HW164394   7.470   3.915   6.916 -1.7438 -1.0714 -0.9814
19849SOL    HW264395   7.554   3.820   6.998  1.3381  2.7275  0.4139
19850SOL     OW64396   8.456   4.408   8.768  0.2079  0.5182 -0.0594
19850SOL    HW164397   8.383   4.350   8.746 -1.8892  2.3746  1.7369
19850SOL    HW264398   8.476   4.388   8.860  0.8523  1.1615 -0.0508
19851SOL     OW64399   6.529   3.196   7.485 -0.0798 -0.0269 -0.7083
19851SOL    HW164400   6.516   3.207   7.391 -0.1770  1.6633 -0.5080
19851SOL    HW264401   6.613   3.150   7.492 -0.8457 -1.6034 -1.6530
19852SOL     OW64402   7.226   5.257   4.774 -0.1391 -0.2334  0.2185
19852SOL    HW164403   7.196   5.183   4.721 -0.2263  0.4520 -0.6983
19852SOL    HW264404   7.156   5.322   4.767  1.6677  1.5370 -2.2602
19853SOL     OW64405   7.445   4.743   8.507 -0.1766 -0.4559 -0.4426
19853SOL    HW164406   7.478   4.739   8.596  0.4197  1.1918 -0.5709
19853SOL    HW264407   7.512   4.791   8.458 -1.1387 -0.1195 -1.4599
19854SOL     OW64408   6.736   7.945   5.766 -0.5117  0.5021 -0.7128
19854SOL    HW164409   6.689   7.913   5.843 -0.8242 -0.2022 -1.1882
19854SOL    HW264410   6.689   8.024   5.741 -1.2240  0.0176 -0.9499
19855SOL     OW64411   4.853   3.914   8.913  0.1496  0.0208  0.6293
19855SOL    HW164412   4.846   3.879   9.002 -2.1300  0.6320  0.7257
19855SOL    HW264413   4.819   3.845   8.857 -1.3001  0.8036  0.5249
19856SOL     OW64414   7.421   5.196   8.026  0.2616  0.0763  0.5744
19856SOL    HW164415   7.385   5.136   8.091  1.2746 -1.5127 -0.3039
19856SOL    HW264416   7.514   5.204   8.048  0.8811 -1.4283 -1.3554
19857SOL     OW64417   6.496   3.553   7.692 -0.1763 -0.2561 -0.0437
19857SOL    HW164418   6.431   3.597   7.748 -0.1244 -0.6054  0.2944
19857SOL    HW264419   6.489   3.461   7.716  1.4694 -0.1181  1.0671
19858SOL     OW64420   9.132   5.853   8.111 -0.3281  0.0341 -0.4199
19858SOL    HW164421   9.082   5.848   8.029  0.3914 -0.1319 -0.8481
19858SOL    HW264422   9.150   5.946   8.122  0.0734 -0.0069 -0.7471
19859SOL     OW64423   4.809   6.394   9.163  0.2566 -0.5437  0.2289
19859SOL    HW164424   4.858   6.419   9.241  2.1791 -0.9441 -0.8211
19859SOL    HW264425   4.732   6.452   9.162  1.5410  1.1969  1.0260
19860SOL     OW64426   8.355   3.801   6.650 -0.5391 -0.1074 -0.0015
19860SOL    HW164427   8.348   3.806   6.745  0.8274 -1.6185  0.2083
19860SOL    HW264428   8.346   3.891   6.620  0.4003  0.5472  1.6578
19861SOL     OW64429   7.681   4.226   7.425  0.2115  0.3102  0.1096
19861SOL    HW164430   7.662   4.305   7.375 -0.2591 -0.4832 -0.9786
19861SOL    HW264431   7.751   4.183   7.377 -0.3490 -0.5368  0.0415
19862SOL     OW64432   7.501   5.030   5.697 -0.4612 -0.3774  0.2072
19862SOL    HW164433   7.425   4.971   5.698  1.8070 -3.4137  1.2957
19862SOL    HW264434   7.506   5.062   5.607 -3.2086  0.1709  0.1999
19863SOL     OW64435   8.256   4.464   8.360  0.5995  0.0315 -0.1533
19863SOL    HW164436   8.292   4.437   8.276  2.3798 -3.0857  1.5356
19863SOL    HW264437   8.326   4.514   8.401  0.0996  0.6792 -0.0672
19864SOL     OW64438   7.777   2.797   6.894  0.3375  0.2802 -0.0759
19864SOL    HW164439   7.741   2.774   6.808  1.0840 -0.6360 -0.1600
19864SOL    HW264440   7.796   2.891   6.888 -0.9009  0.5120 -0.4343
19865SOL     OW64441   7.725   5.856   4.596 -0.1685 -0.5301 -0.0941
19865SOL    HW164442   7.744   5.914   4.670 -0.3166  1.0958 -1.2962
19865SOL    HW264443   7.806   5.857   4.544 -0.2808 -1.1731 -0.2923
19866SOL     OW64444   7.656   6.005   6.236 -0.1971  0.0444  0.0139
19866SOL    HW164445   7.684   6.044   6.153 -1.8951 -0.4822 -0.8362
19866SOL    HW264446   7.581   5.950   6.213 -1.6109  1.0146  2.0976
19867SOL     OW64447   7.401   4.772   6.738  0.2559 -0.5391 -0.0139
19867SOL    HW164448   7.471   4.818   6.785 -1.1844  1.5728  0.1215
19867SOL    HW264449   7.430   4.770   6.647  1.4438 -1.5607  0.3625
19868SOL     OW64450   8.001   4.848   6.204  0.2939  0.4305 -0.1179
19868SOL    HW164451   8.018   4.785   6.275  0.6845 -0.5207 -1.0366
19868SOL    HW264452   8.077   4.906   6.206  0.0937  0.6802  0.5191
19869SOL     OW64453   7.532   7.067   8.397  0.0720 -0.4386  0.1651
19869SOL    HW164454   7.600   7.002   8.415  1.1324  0.9978  1.4949
19869SOL    HW264455   7.530   7.075   8.302  0.9735 -1.3137  0.0666
19870SOL     OW64456   6.681   6.531   7.777 -0.5455  0.3316  0.2213
19870SOL    HW164457   6.703   6.441   7.800 -1.9061 -0.1075 -0.1639
19870SOL    HW264458   6.751   6.559   7.718 -0.2668 -0.5452  0.1364
19871SOL     OW64459   7.064   6.937   6.595 -0.3731 -0.0028  0.6012
19871SOL    HW164460   6.973   6.910   6.602 -0.9255  2.0182  1.3567
19871SOL    HW264461   7.113   6.867   6.638 -1.6591 -0.4771  1.3052
19872SOL     OW64462   6.593   3.895   6.141  0.2845  0.7881 -0.0668
19872SOL    HW164463   6.649   3.903   6.218 -0.7137  0.0291  0.7506
19872SOL    HW264464   6.548   3.979   6.135  0.9290  1.1285 -0.2932
19873SOL     OW64465   6.551   3.466   7.419  0.2191 -0.9535 -0.2139
19873SOL    HW164466   6.504   3.549   7.428  3.1475  0.6899  0.8744
19873SOL    HW264467   6.504   3.406   7.476  0.1777  1.0061  1.9059
19874SOL     OW64468   7.008   4.676   7.556 -0.0908 -0.1204  0.0102
19874SOL    HW164469   6.996   4.767   7.582  0.0234  0.1718 -0.9461
19874SOL    HW264470   7.085   4.647   7.605  0.1687  0.4458 -0.0598
19875SOL     OW64471   7.250   5.646   6.746  0.0789  0.1831  0.0700
19875SOL    HW164472   7.259   5.559   6.707  0.8956  0.2272  0.1368
19875SOL    HW264473   7.289   5.706   6.682  0.4694  0.3740  0.4748
19876SOL     OW64474   7.112   7.569   8.015  0.3886  0.4037 -0.2418
19876SOL    HW164475   7.123   7.483   7.974  0.5847  0.0119  0.6328
19876SOL    HW264476   7.175   7.570   8.087 -0.0234  1.0586  0.1143
19877SOL     OW64477   6.288   3.792   7.887 -0.2505  0.0769  0.1619
19877SOL    HW164478   6.216   3.742   7.850 -1.7059  0.5265  2.2811
19877SOL    HW264479   6.352   3.726   7.913 -1.4642 -0.6017  1.5048
19878SOL     OW64480   7.071   5.094   4.128 -0.4727 -0.0282 -0.6519
19878SOL    HW164481   7.050   5.099   4.035  0.3688  0.1323 -0.8433
19878SOL    HW264482   7.164   5.071   4.130 -0.6128 -0.5699  0.1554
19879SOL     OW64483   7.492   4.815   5.408  0.5702 -0.2965 -0.5803
19879SOL    HW164484   7.523   4.734   5.449  3.5508  0.9044 -0.2703
19879SOL    HW264485   7.506   4.802   5.314 -0.6623 -0.8053 -0.7010
19880SOL     OW64486   6.944   2.114   3.420 -0.2258  1.0463  0.0133
19880SOL    HW164487   7.023   2.072   3.387  0.2620  0.7703  1.4833
19880SOL    HW264488   6.972   2.201   3.447 -0.2226  0.6516  1.3254
19881SOL     OW64489   8.462   4.809   5.309  0.0112  0.0969  0.1499
19881SOL    HW164490   8.504   4.859   5.379  0.7396 -0.4687  0.1262
19881SOL    HW264491   8.465   4.867   5.233 -1.2579  0.9198  0.7155
19882SOL     OW64492   5.895   6.738   8.088 -0.0180 -0.0688 -0.4797
19882SOL    HW164493   5.890   6.736   7.992 -0.1884 -2.6738 -0.4630
19882SOL    HW264494   5.812   6.777   8.116  0.2945  1.2833 -1.3885
19883SOL     OW64495   6.128   7.855   7.111 -0.4927  0.2150  0.6093
19883SOL    HW164496   6.193   7.897   7.055 -0.7294  3.0608  2.4018
19883SOL    HW264497   6.173   7.843   7.195 -1.2175 -0.9338  0.8512
19884SOL     OW64498   6.317   3.473   8.282  0.7757  0.6505  0.6113
19884SOL    HW164499   6.324   3.566   8.304 -1.9897  0.9092  0.5391
19884SOL    HW264500   6.303   3.470   8.188  2.2702  0.0650  0.3905
19885SOL     OW64501   7.543   6.219   6.841 -0.3760  0.4436 -0.2599
19885SOL    HW164502   7.622   6.190   6.795 -0.6453 -0.4046 -0.1893
19885SOL    HW264503   7.513   6.295   6.791  0.4676  0.7581 -0.3006
19886SOL     OW64504   5.026   7.040   8.093 -0.6508 -0.2521 -0.2091
19886SOL    HW164505   5.024   7.115   8.033  3.3219  2.7364  3.1415
19886SOL    HW264506   5.091   6.981   8.054  1.4033  1.3664  0.6179
19887SOL     OW64507   7.132   3.710   5.694 -0.2318 -0.4760  0.1219
19887SOL    HW164508   7.061   3.715   5.630 -0.2027 -0.6547  0.0749
19887SOL    HW264509   7.137   3.617   5.716  0.5623 -0.5959 -0.5292
19888SOL     OW64510   6.934   2.909   7.078  0.1790  0.3593 -0.8029
19888SOL    HW164511   6.979   2.826   7.093 -0.8544 -0.0167  0.3611
19888SOL    HW264512   6.859   2.886   7.024  0.5345  0.7268 -1.4507
19889SOL     OW64513   7.953   3.390   6.467  0.2880 -0.1734 -0.3334
19889SOL    HW164514   8.013   3.457   6.436  1.3320 -1.2116 -0.6028
19889SOL    HW264515   7.998   3.307   6.449 -1.7266 -1.0204 -1.6398
19890SOL     OW64516   8.397   2.766   8.611 -0.0499 -0.6411 -0.2687
19890SOL    HW164517   8.488   2.795   8.617 -0.7077  1.0972  2.5681
19890SOL    HW264518   8.395   2.683   8.659 -0.1203 -0.1934  0.5167
19891SOL     OW64519   7.712   5.915   6.881  0.1954 -0.4820 -0.5477
19891SOL    HW164520   7.725   5.996   6.832 -0.2656 -0.0902 -0.0355
19891SOL    HW264521   7.737   5.846   6.820  1.9245  0.0948 -0.5195
19892SOL     OW64522   7.052   4.596   5.894 -0.1373  0.2673 -0.1923
19892SOL    HW164523   7.051   4.675   5.949  2.3909  0.7022 -0.7213
19892SOL    HW264524   7.056   4.523   5.956  0.9759  0.6951  0.2382
19893SOL     OW64525   7.388   4.468   7.027  0.0590 -0.4774 -0.7038
19893SOL    HW164526   7.402   4.557   7.060  1.6753 -0.6012 -1.0376
19893SOL    HW264527   7.299   4.447   7.055 -0.0427  0.9251  0.1102
19894SOL     OW64528   6.778   3.062   7.481 -0.1274  0.3621  0.0236
19894SOL    HW164529   6.845   2.999   7.508 -0.3807  0.8627  1.8946
19894SOL    HW264530   6.807   3.092   7.395  0.3821 -1.7353 -0.5839
19895SOL     OW64531   7.020   3.996   6.719  0.0649 -0.2363 -0.1363
19895SOL    HW164532   7.070   4.004   6.638 -2.0158  0.4823 -1.3801
19895SOL    HW264533   6.963   3.920   6.704 -0.0244 -0.3753  0.8496
19896SOL     OW64534   7.383   7.073   6.065 -0.3801 -0.4627 -0.0405
19896SOL    HW164535   7.442   7.096   5.993  1.8345  0.7754  2.0846
19896SOL    HW264536   7.317   7.143   6.066  0.4166  0.2993 -0.0064
19897SOL     OW64537   8.799   6.132   8.022 -0.2608  0.1221 -0.4292
19897SOL    HW164538   8.857   6.208   8.026 -0.5760  0.3313  0.3094
19897SOL    HW264539   8.775   6.124   7.930  2.0872 -0.8328 -1.0078
19898SOL     OW64540   7.649   5.781   7.641  0.6062  0.5594 -0.0768
19898SOL    HW164541   7.643   5.795   7.735 -2.3412 -1.1205  0.0216
19898SOL    HW264542   7.695   5.698   7.632 -1.1393 -0.4277 -0.0293
19899SOL     OW64543   8.502   4.687   8.203  0.2195 -0.2819 -0.0808
19899SOL    HW164544   8.540   4.602   8.227 -0.2075 -0.9476 -1.6752
19899SOL    HW264545   8.570   4.750   8.227 -0.2265 -0.8603  2.9162
19900SOL     OW64546   5.954   2.677   2.545 -0.2845 -0.9275 -0.5003
19900SOL    HW164547   6.032   2.722   2.512 -0.0369 -0.0425  1.2312
19900SOL    HW264548   5.894   2.748   2.568 -1.0158 -1.5748 -0.4014
19901SOL     OW64549   7.757   5.209   5.283 -0.1517  0.5686  0.0668
19901SOL    HW164550   7.662   5.221   5.286 -0.1678  0.3210  0.6469
19901SOL    HW264551   7.782   5.197   5.375 -0.2396 -4.4447 -0.3972
19902SOL     OW64552   6.832   4.065   9.636  0.4310 -0.2526  0.1698
19902SOL    HW164553   6.833   4.125   9.710 -2.0117 -0.5853  0.5093
19902SOL    HW264554   6.871   3.985   9.670 -0.7694 -0.4395  1.1499
19903SOL     OW64555   6.926   4.908   5.412  0.0389  0.5528  0.2745
19903SOL    HW164556   6.902   4.998   5.390 -0.4333  0.2691 -0.3744
19903SOL    HW264557   6.953   4.913   5.504 -2.9985  0.8078  1.1996
19904SOL     OW64558   7.775   3.049   6.346 -0.1144 -0.2315  0.4868
19904SOL    HW164559   7.862   3.008   6.345 -0.4890 -1.0338 -1.2492
19904SOL    HW264560   7.742   3.036   6.257 -1.3472  1.5201  0.6786
19905SOL     OW64561   8.470   2.954   5.754  0.3622 -0.2704 -0.1983
19905SOL    HW164562   8.424   2.912   5.682  0.8472  0.0456 -0.7014
19905SOL    HW264563   8.499   2.882   5.810 -0.0529 -0.5128 -0.2975
19906SOL     OW64564   7.411   5.070   4.995  0.1604  0.3812 -0.0230
19906SOL    HW164565   7.468   5.105   4.926  0.0936  1.5552  0.5062
19906SOL    HW264566   7.469   5.061   5.071  0.2412 -0.9354 -0.2224
19907SOL     OW64567   7.416   4.522   8.994 -0.4920  0.7165 -0.2677
19907SOL    HW164568   7.430   4.433   8.961 -1.3674  0.4996 -0.0767
19907SOL    HW264569   7.500   4.566   8.981 -0.8661  0.7099 -3.0086
19908SOL     OW64570   6.881   5.476   8.504  0.2300 -0.2269  0.0702
19908SOL    HW164571   6.896   5.386   8.475  1.4106  0.8311 -2.7905
19908SOL    HW264572   6.785   5.485   8.503  0.1251 -1.2243 -0.3909
19909SOL     OW64573   8.593   3.441   7.618  0.6187  0.4089 -0.5456
19909SOL    HW164574   8.644   3.521   7.614 -0.5747  1.1794 -0.6366
19909SOL    HW264575   8.598   3.413   7.709 -0.2624  1.4645 -0.1563
19910SOL     OW64576   7.320   4.370   5.925 -0.4065  0.7611  0.1954
19910SOL    HW164577   7.410   4.397   5.942 -0.3020  0.6769 -0.2192
19910SOL    HW264578   7.280   4.446   5.882  0.1225 -0.0233 -1.7487
19911SOL     OW64579   7.015   5.264   6.515 -0.0543 -0.6015 -0.3347
19911SOL    HW164580   6.944   5.249   6.453 -0.1451 -1.9523  0.0808
19911SOL    HW264581   7.004   5.195   6.581  2.3144 -1.5885 -0.9067
19912SOL     OW64582   5.925   8.233   6.833  0.2187  0.1265 -0.1533
19912SOL    HW164583   5.953   8.141   6.836 -2.5747 -0.8348 -1.6273
19912SOL    HW264584   5.831   8.230   6.854 -0.0392  2.5863 -0.8113
19913SOL     OW64585   6.933   4.413   6.931  0.4672  0.0069 -0.3244
19913SOL    HW164586   6.845   4.399   6.896 -0.0820 -1.5182  1.6010
19913SOL    HW264587   6.966   4.325   6.948  2.0242  0.6095 -0.1759
19914SOL     OW64588   4.107   1.575   7.695 -0.5874 -0.4220  0.3128
19914SOL    HW164589   4.054   1.553   7.619 -1.3611 -1.0931  1.0341
19914SOL    HW264590   4.081   1.665   7.717 -3.5274 -1.6451  2.3143
19915SOL     OW64591   5.617   2.748   9.003  0.2825 -0.8025  0.5848
19915SOL    HW164592   5.622   2.843   8.989  3.1085 -0.6627  2.0817
19915SOL    HW264593   5.647   2.736   9.093  1.5005 -3.2590 -0.1137
19916SOL     OW64594   7.368   3.937   8.112 -0.3138 -0.4922  0.1074
19916SOL    HW164595   7.444   3.987   8.081 -0.4506  0.7903  1.8021
19916SOL    HW264596   7.399   3.846   8.114  1.1545  0.0083  0.7228
19917SOL     OW64597   7.771   5.021   9.203  0.5504 -0.2181 -0.4179
19917SOL    HW164598   7.794   5.014   9.295 -0.3474 -1.5164 -0.2842
19917SOL    HW264599   7.754   5.114   9.190  0.7909 -0.0119  0.6903
19918SOL     OW64600   8.212   4.731   8.243 -0.1068  0.2263 -0.0207
19918SOL    HW164601   8.214   4.636   8.248 -0.1979  0.1906 -0.6964
19918SOL    HW264602   8.274   4.754   8.174  0.7845  0.7197  0.9198
19919SOL     OW64603   7.238   3.741   7.451 -0.0685 -0.1991  0.2842
19919SOL    HW164604   7.267   3.832   7.444 -0.4083  0.0470  1.9369
19919SOL    HW264605   7.195   3.736   7.536  0.8516 -2.1687  0.6599
19920SOL     OW64606   5.601   5.556   8.492  1.1244  0.4187  0.3974
19920SOL    HW164607   5.684   5.531   8.533  2.9173  3.5400 -1.0969
19920SOL    HW264608   5.608   5.651   8.481 -2.9169  0.8449  0.7500
19921SOL     OW64609   6.840   4.965   0.113 -0.1880 -0.6074  0.0131
19921SOL    HW164610   6.746   4.983   0.109 -0.3230 -0.8445  1.6263
19921SOL    HW264611   6.846   4.871   0.130  0.3040 -0.4164  0.9596
19922SOL     OW64612   6.208   3.905   8.223 -0.0291  0.2165 -0.3738
19922SOL    HW164613   6.189   3.981   8.278  0.8336  0.6564 -0.6774
19922SOL    HW264614   6.230   3.942   8.138  0.9374 -0.3497 -0.3727
19923SOL     OW64615   5.847   6.733   9.974 -0.7435  0.4010  0.1571
19923SOL    HW164616   5.846   6.745   9.879  2.0162  0.7252  0.1263
19923SOL    HW264617   5.855   6.821  10.010 -1.0547  0.2269  0.6561
19924SOL     OW64618   5.435   6.560   9.889  0.2684  0.6019  0.0992
19924SOL    HW164619   5.512   6.511   9.862  1.2783  1.4137  1.4201
19924SOL    HW264620   5.439   6.561   9.985 -2.1607 -0.5623  0.2532
19925SOL     OW64621   8.115   5.889   9.295  0.3313 -0.1170 -0.2753
19925SOL    HW164622   8.102   5.881   9.389 -1.8094  0.1570 -0.5186
19925SOL    HW264623   8.177   5.961   9.285  1.5633 -0.9927  0.9692
19926SOL     OW64624   6.199   3.004   8.708  0.1034  0.1227  0.6253
19926SOL    HW164625   6.200   2.912   8.734  1.2872 -0.0028  0.1930
19926SOL    HW264626   6.107   3.023   8.689 -0.4618 -0.3938  2.6873
19927SOL     OW64627   6.727   3.116   9.062  0.4741  0.5438 -0.7192
19927SOL    HW164628   6.678   3.054   9.116  1.3046  0.0907 -0.4663
19927SOL    HW264629   6.816   3.114   9.098  0.8514  0.8059 -1.6181
19928SOL     OW64630   8.186   5.571   7.632  0.6916  0.3031 -0.2536
19928SOL    HW164631   8.254   5.635   7.654 -0.9014  1.9897 -0.1600
19928SOL    HW264632   8.111   5.623   7.604 -0.0787 -1.5828 -1.8380
19929SOL     OW64633   6.763   4.579   9.118  0.0956 -0.2146 -0.1481
19929SOL    HW164634   6.764   4.492   9.076  2.0361 -0.9974  1.4263
19929SOL    HW264635   6.852   4.589   9.152 -0.5675  1.7452  1.0383
19930SOL     OW64636   6.815   4.367   0.154  0.0100  0.5899 -0.1151
19930SOL    HW164637   6.796   4.280   0.119  1.0363  0.9171 -1.5198
19930SOL    HW264638   6.737   4.419   0.133 -0.5779  0.0352  0.6711
19931SOL     OW64639   6.804   2.064   8.691  0.3064  0.1874  0.4348
19931SOL    HW164640   6.859   2.034   8.764  1.9946  0.4702 -0.6760
19931SOL    HW264641   6.845   2.026   8.613 -2.0977 -1.0044 -0.2877
19932SOL     OW64642   6.851   6.204   0.489  0.0961 -0.4687 -0.3334
19932SOL    HW164643   6.940   6.172   0.502 -0.1110 -0.8213  0.2332
19932SOL    HW264644   6.796   6.127   0.501 -0.3519 -0.0517  0.3418
19933SOL     OW64645   7.899   5.417   7.436 -0.3977 -0.5753  1.0041
19933SOL    HW164646   7.945   5.500   7.431 -1.5491  0.0674  0.7588
19933SOL    HW264647   7.964   5.354   7.465  0.3908  0.4866  1.5436
19934SOL     OW64648   5.118   4.647   8.738 -0.4728  0.1385 -0.2838
19934SOL    HW164649   5.101   4.665   8.830 -1.5795 -1.5919 -0.1330
19934SOL    HW264650   5.213   4.658   8.729 -0.3530  0.2847  1.0518
19935SOL     OW64651   7.375   2.874   8.078  0.2651  0.7121 -0.4868
19935SOL    HW164652   7.402   2.832   8.160 -1.0304 -2.2185 -1.4796
19935SOL    HW264653   7.455   2.876   8.025  0.6526  0.7907  0.0886
19936SOL     OW64654   8.626   4.459   8.276  0.2610 -0.6992  0.1661
19936SOL    HW164655   8.655   4.435   8.364  0.9544 -2.2012 -0.4590
19936SOL    HW264656   8.573   4.384   8.248 -0.3331 -0.0214 -0.5232
19937SOL     OW64657   5.208   6.358   8.195  0.0104 -0.0640 -0.2572
19937SOL    HW164658   5.161   6.333   8.275 -1.7841 -0.6481 -1.4829
19937SOL    HW264659   5.143   6.354   8.126  1.3534  1.2467 -1.6448
19938SOL     OW64660   8.297   3.235   7.032  0.0152 -0.5117  0.2420
19938SOL    HW164661   8.233   3.206   7.098  0.3420  0.6827  1.1016
19938SOL    HW264662   8.379   3.242   7.081  1.0260 -2.8386 -1.0287
19939SOL     OW64663   8.236   4.934   7.706  0.0936 -0.4613 -0.1715
19939SOL    HW164664   8.167   4.911   7.643  0.6505 -1.6277 -0.3740
19939SOL    HW264665   8.313   4.885   7.676  0.9028  0.5072  0.2880
19940SOL     OW64666   6.622   3.352   8.865 -0.1980  0.2787  0.1403
19940SOL    HW164667   6.575   3.284   8.817  1.4669 -0.3804 -0.5882
19940SOL    HW264668   6.609   3.328   8.957  0.2790 -0.9961 -0.1044
19941SOL     OW64669   8.310   5.186   8.495 -0.0268  0.0943 -0.2672
19941SOL    HW164670   8.218   5.207   8.508  0.2152  1.6817 -0.9133
19941SOL    HW264671   8.320   5.181   8.399  0.5577 -0.0523 -0.2036
19942SOL     OW64672   6.696   6.450   9.096  0.6906 -0.1446 -0.1895
19942SOL    HW164673   6.756   6.389   9.137  0.7116  0.5263  0.7847
19942SOL    HW264674   6.682   6.519   9.161  0.1470  0.5481 -1.0152
19943SOL     OW64675   7.124   3.471   8.703 -0.1410  0.0723  0.0177
19943SOL    HW164676   7.088   3.559   8.700 -0.5210 -0.1202 -1.7812
19943SOL    HW264677   7.066   3.422   8.760 -0.4145  0.7709  0.3385
19944SOL     OW64678   5.035   4.801   9.874 -0.2965 -0.1056  0.6966
19944SOL    HW164679   5.042   4.890   9.909 -0.4452  0.3592 -0.4311
19944SOL    HW264680   4.973   4.808   9.801 -1.7171 -1.4895  1.7348
19945SOL     OW64681   9.046   4.534   8.182  0.0482  0.2560  0.1052
19945SOL    HW164682   8.977   4.573   8.128 -1.3577 -1.5811  0.5414
19945SOL    HW264683   9.115   4.511   8.120 -0.9705 -0.5741 -0.7235
19946SOL     OW64684   7.265   4.591   9.227 -0.7020 -0.1187 -0.2820
19946SOL    HW164685   7.328   4.564   9.160  1.1436 -0.0894  1.3980
19946SOL    HW264686   7.288   4.683   9.244 -2.2529  0.3716 -0.7932
19947SOL     OW64687   6.638   3.838   8.664 -0.1328 -0.2022 -0.2914
19947SOL    HW164688   6.623   3.909   8.602 -0.7322  0.7765  0.9401
19947SOL    HW264689   6.597   3.762   8.624  1.0029 -0.0063 -1.8907
19948SOL     OW64690   8.522   5.531   8.088 -0.4580  0.0900  0.3329
19948SOL    HW164691   8.498   5.536   8.181  0.7190  0.2800  0.6353
19948SOL    HW264692   8.521   5.437   8.069 -2.1076  0.1279  0.1456
19949SOL     OW64693   7.562   4.468   8.718  0.5271 -0.5491 -0.5601
19949SOL    HW164694   7.485   4.442   8.667 -0.0765  1.7537 -0.8563
19949SOL    HW264695   7.599   4.542   8.670 -0.5472  2.2479  2.7269
19950SOL     OW64696   8.531   4.066   8.785  0.5416  0.2106  0.6757
19950SOL    HW164697   8.493   4.117   8.857 -0.4363  1.7360 -0.8807
19950SOL    HW264698   8.625   4.076   8.795  0.4273  0.1294  1.9310
19951SOL     OW64699   7.269   5.304   8.914 -0.0253 -0.0635  0.2519
19951SOL    HW164700   7.317   5.269   8.989 -0.1692  1.7889  1.2224
19951SOL    HW264701   7.242   5.391   8.941 -2.1690 -0.2839 -1.0714
19952SOL     OW64702   6.807   5.746   7.810 -0.1868  0.1896  0.4367
19952SOL    HW164703   6.764   5.683   7.751 -0.7640  1.1861 -0.2169
19952SOL    HW264704   6.862   5.799   7.752 -1.4705  1.7881  0.6228
19953SOL     OW64705   8.278   4.184   9.416  0.0356  0.1622  0.2728
19953SOL    HW164706   8.300   4.254   9.478 -0.6838  0.8659 -0.2645
19953SOL    HW264707   8.342   4.193   9.346 -0.5417  0.7725 -0.1761
19954SOL     OW64708   7.606   3.540   0.552 -0.2920 -0.0967  0.3791
19954SOL    HW164709   7.639   3.486   0.481  0.6206 -0.4395  1.0593
19954SOL    HW264710   7.512   3.524   0.552  0.0621 -2.3598  1.1199
19955SOL     OW64711   6.611   3.966   9.218 -0.0669  0.7673  0.1447
19955SOL    HW164712   6.614   3.933   9.308  0.9308 -0.0995 -0.1896
19955SOL    HW264713   6.530   3.932   9.182  0.9814 -1.4591 -0.2222
19956SOL     OW64714   8.045   2.060   8.558 -0.0845  0.4780 -0.4950
19956SOL    HW164715   8.093   1.977   8.555  0.3334  0.7431 -1.2942
19956SOL    HW264716   7.993   2.054   8.637  1.4301  0.2649  0.5153
19957SOL     OW64717   9.297   5.332   0.013  0.4239  0.0421 -0.6722
19957SOL    HW164718   9.202   5.336   0.008  0.4467 -0.1130 -1.2381
19957SOL    HW264719   9.321   5.250  -0.030  0.8894  0.7010 -1.6975
19958SOL     OW64720   7.302   3.801   7.150 -0.1721 -0.1124  0.1254
19958SOL    HW164721   7.300   3.740   7.224 -0.1532 -0.4776 -0.1708
19958SOL    HW264722   7.377   3.858   7.167 -2.0234  1.8476  1.9957
19959SOL     OW64723   4.675   3.292   9.046 -0.1284  0.1825  0.2671
19959SOL    HW164724   4.644   3.275   9.135  0.0655  1.0748  0.5052
19959SOL    HW264725   4.687   3.387   9.041  1.7770 -0.0368 -0.0682
19960SOL     OW64726   5.570   4.933   8.633  0.0182 -0.4017  0.2420
19960SOL    HW164727   5.598   4.846   8.662  0.4232  0.3078  2.0469
19960SOL    HW264728   5.514   4.965   8.704  0.8528  1.3027  0.1555
19961SOL     OW64729   6.797   3.944   8.283 -0.2705 -0.3233 -0.6345
19961SOL    HW164730   6.844   3.888   8.345  3.0199  0.8641 -1.8929
19961SOL    HW264731   6.759   4.013   8.337  1.1165 -0.2470  0.2859
19962SOL     OW64732   7.975   5.424   9.485 -0.1535 -0.3844  0.4268
19962SOL    HW164733   8.047   5.486   9.486  1.1458 -1.8037 -1.7210
19962SOL    HW264734   7.922   5.450   9.410 -1.0924 -0.2734  1.1061
19963SOL     OW64735   6.322   6.475   8.500  0.4337  0.6227 -0.1480
19963SOL    HW164736   6.379   6.400   8.517  3.6927  3.0939  0.3286
19963SOL    HW264737   6.335   6.533   8.575 -3.1190  1.0964  0.1854
19964SOL     OW64738   7.341   2.857   8.843 -0.0143 -0.3585  0.3025
19964SOL    HW164739   7.371   2.778   8.797  0.4828 -0.3157  0.5539
19964SOL    HW264740   7.302   2.911   8.774  0.4451 -0.4352 -0.0210
19965SOL     OW64741   8.048   5.637   8.286 -0.6244  0.2922  0.0224
19965SOL    HW164742   8.091   5.599   8.362  1.1664  0.2344 -0.9939
19965SOL    HW264743   7.985   5.698   8.322  1.7216  1.8959  1.5245
19966SOL     OW64744   6.760   4.485   8.314  0.3012 -0.8494 -0.2360
19966SOL    HW164745   6.725   4.561   8.268 -0.5502  0.6605  2.7555
19966SOL    HW264746   6.684   4.430   8.332  0.4343 -0.8615  0.3172
19967SOL     OW64747   0.276   4.664   9.261 -0.3705 -0.3785  0.5803
19967SOL    HW164748   0.372   4.666   9.254 -0.2509 -1.3458  1.6887
19967SOL    HW264749   0.256   4.725   9.333 -0.5320 -0.7388  0.8405
19968SOL     OW64750   7.017   5.266   9.738  0.4261 -0.0902 -0.3028
19968SOL    HW164751   6.966   5.347   9.732  1.8488  0.8835  0.5938
19968SOL    HW264752   6.989   5.226   9.820  1.4366  0.6876  0.4308
19969SOL     OW64753   8.146   5.928   7.471  0.4926  0.6270 -0.1034
19969SOL    HW164754   8.162   6.005   7.416  1.3167  0.7754  0.3309
19969SOL    HW264755   8.180   5.954   7.557 -0.2167  0.1714  0.3114
19970SOL     OW64756   6.521   3.744   9.491 -0.3573  0.3071 -0.5187
19970SOL    HW164757   6.526   3.811   9.559 -0.5771 -0.0496 -0.1469
19970SOL    HW264758   6.582   3.676   9.519  1.0422  1.0503 -1.6925
19971SOL     OW64759   0.013   6.392   7.893 -0.8258 -0.2777 -0.6008
19971SOL    HW164760   0.034   6.381   7.800  3.6826 -1.7035  0.4309
19971SOL    HW264761  -0.004   6.303   7.924  3.5062 -0.6784  1.0249
19972SOL     OW64762   8.532   5.586   7.651  0.2765  0.6308 -0.2857
19972SOL    HW164763   8.574   5.624   7.728  0.4925  0.3653 -0.2713
19972SOL    HW264764   8.480   5.657   7.614  0.2244  0.7781  0.0690
19973SOL     OW64765   6.300   1.646   6.947 -0.5838  0.3618 -0.1421
19973SOL    HW164766   6.355   1.692   6.883  0.6988  1.2839  1.5819
19973SOL    HW264767   6.317   1.553   6.931 -2.1969  0.4677 -2.7927
19974SOL     OW64768   5.079   5.968   8.854 -0.4126  0.0248  0.4046
19974SOL    HW164769   5.172   5.977   8.871 -0.4130  0.7669  0.0162
19974SOL    HW264770   5.037   6.006   8.931 -0.4004 -0.8165  0.8352
19975SOL     OW64771   6.773   3.893   9.962  0.1303  0.1938 -1.1013
19975SOL    HW164772   6.848   3.950   9.948 -1.0054  2.1971  0.6780
19975SOL    HW264773   6.715   3.943  10.020 -2.6955 -1.1902 -2.6407
19976SOL     OW64774   9.758   4.142   8.724 -0.2086  0.3028  0.3847
19976SOL    HW164775   9.838   4.090   8.732 -0.3595  0.1483  0.9141
19976SOL    HW264776   9.697   4.085   8.678  0.5179  1.0238 -1.4986
19977SOL     OW64777   7.838   2.843   8.744 -0.1323  0.2797 -0.1491
19977SOL    HW164778   7.784   2.846   8.665 -0.6641  0.0843  0.2015
19977SOL    HW264779   7.923   2.811   8.715  0.2643  2.0380 -0.9725
19978SOL     OW64780   7.996   2.782   8.010  0.0316 -0.0883  0.2292
19978SOL    HW164781   7.996   2.811   7.919  2.1381 -0.0220  0.2249
19978SOL    HW264782   8.081   2.740   8.022 -0.8768 -1.5782  1.7127
19979SOL     OW64783   7.397   4.276   9.507 -0.1795  0.4051 -0.1645
19979SOL    HW164784   7.365   4.237   9.588 -0.4657  0.3384 -0.3070
19979SOL    HW264785   7.318   4.297   9.458  0.0093 -0.6768 -0.9615
19980SOL     OW64786   8.135   3.335   9.236 -0.1435 -0.2828  0.1114
19980SOL    HW164787   8.074   3.261   9.239  0.3574 -0.8434 -2.2619
19980SOL    HW264788   8.220   3.294   9.222  0.3885  0.6528  0.5803
19981SOL     OW64789   5.974   8.235   8.725 -0.3338  0.5123 -0.4831
19981SOL    HW164790   5.940   8.172   8.662 -1.6423 -1.0812  1.7586
19981SOL    HW264791   5.916   8.310   8.718 -0.3358  0.4334 -1.3165
19982SOL     OW64792   7.919   3.179   7.962 -0.0882 -0.5993  0.5041
19982SOL    HW164793   7.905   3.191   8.056 -0.6263 -0.0284  0.3566
19982SOL    HW264794   7.990   3.239   7.941  0.1870 -0.8967  0.5922
19983SOL     OW64795   8.905   4.876   6.868 -0.3759  0.0227  0.5262
19983SOL    HW164796   8.924   4.965   6.898  0.2591  0.0483  0.0562
19983SOL    HW264797   8.867   4.887   6.781 -1.3005 -0.1122  0.8986
19984SOL     OW64798   6.735   2.326   9.908  0.1320 -0.0962  0.2110
19984SOL    HW164799   6.808   2.348   9.966  2.1011 -2.2201 -1.3808
19984SOL    HW264800   6.681   2.266   9.958 -0.0918  0.8401  1.1020
19985SOL     OW64801   5.433   4.391   8.902  0.1428  0.5054 -0.5010
19985SOL    HW164802   5.415   4.447   8.826 -0.2496 -0.5745 -1.2098
19985SOL    HW264803   5.502   4.437   8.950  1.8376  0.2218 -2.5991
19986SOL     OW64804   5.711   3.714   9.934 -0.5573 -0.3486 -0.4236
19986SOL    HW164805   5.630   3.742   9.977 -0.7672 -0.6676 -0.5992
19986SOL    HW264806   5.690   3.627   9.900  0.5072 -1.3401  1.3338
19987SOL     OW64807   7.724   6.698   8.676 -0.0340 -0.6771  0.1152
19987SOL    HW164808   7.635   6.689   8.711  0.6196 -2.0017  1.4937
19987SOL    HW264809   7.743   6.612   8.638  1.7015 -1.3897  2.4307
19988SOL     OW64810   5.468   3.405   9.212  0.0517  0.1337  0.0123
19988SOL    HW164811   5.444   3.496   9.228  0.9942  0.4209 -0.1568
19988SOL    HW264812   5.557   3.410   9.176 -0.1351 -0.8141 -0.5880
19989SOL     OW64813   7.607   7.131   7.630  0.3572 -0.0974 -0.1203
19989SOL    HW164814   7.641   7.220   7.643 -0.6410  0.2968 -0.2112
19989SOL    HW264815   7.675   7.088   7.578  0.5768  0.7928 -0.5933
19990SOL     OW64816   6.238   3.939   8.894  1.0129 -0.5306  0.5738
19990SOL    HW164817   6.291   3.913   8.819 -1.0604 -1.7248 -0.5106
19990SOL    HW264818   6.189   4.016   8.865  2.7148  1.0864  1.8456
19991SOL     OW64819   6.932   2.998   8.638  0.5168 -0.4056 -0.1079
19991SOL    HW164820   6.966   3.086   8.623  0.0819  0.0091  1.3174
19991SOL    HW264821   6.960   2.976   8.726 -1.4659 -0.7195  0.4667
19992SOL     OW64822   6.545   3.319   9.156  0.2855 -0.8196 -0.2355
19992SOL    HW164823   6.508   3.340   9.242  1.3481  1.6246 -0.3217
19992SOL    HW264824   6.609   3.250   9.173  0.1452 -0.6932  0.8650
19993SOL     OW64825   8.211   3.848   7.765  0.1893 -0.1306 -0.0784
19993SOL    HW164826   8.217   3.824   7.672  0.7062  0.0226 -0.0855
19993SOL    HW264827   8.299   3.876   7.788 -0.6956  3.1552 -0.4239
19994SOL     OW64828   9.025   2.969   9.206  0.5928 -0.1977  0.3463
19994SOL    HW164829   8.980   2.926   9.279 -0.9667 -0.4531 -0.7242
19994SOL    HW264830   9.046   3.057   9.239 -2.3293  0.5783  0.3420
19995SOL     OW64831   6.484   4.201   9.709  0.3663 -0.2233  0.1950
19995SOL    HW164832   6.464   4.258   9.635  0.1183 -1.6871 -0.9082
19995SOL    HW264833   6.463   4.252   9.786 -0.8499  0.7974 -0.7941
19996SOL     OW64834   8.319   4.585   8.986  0.2857 -0.1398  0.3110
19996SOL    HW164835   8.266   4.650   8.939  1.9906  1.4332  0.4902
19996SOL    HW264836   8.373   4.545   8.918 -1.4549 -2.1022  0.0484
19997SOL     OW64837   4.877   4.139   8.732 -0.0577  0.3385  0.3786
19997SOL    HW164838   4.916   4.118   8.817 -1.8163  0.9198  1.3436
19997SOL    HW264839   4.917   4.222   8.707  0.2822  0.2836  0.7339
19998SOL     OW64840   7.774   7.257   8.759  0.2287  0.4637  0.0300
19998SOL    HW164841   7.726   7.328   8.801 -2.6118 -0.6293 -1.2691
19998SOL    HW264842   7.707   7.193   8.736  2.5037 -1.7892 -0.5337
19999SOL     OW64843   6.573   3.166   8.056  0.3622  0.5484 -0.0230
19999SOL    HW164844   6.499   3.205   8.104  1.5045  2.7447  0.0277
19999SOL    HW264845   6.640   3.153   8.123  1.0728  1.3426 -0.5609
20000SOL     OW64846   7.462   2.796   9.218  0.1781  0.3094  0.6157
20000SOL    HW164847   7.432   2.753   9.298 -0.9007 -0.9366 -0.4432
20000SOL    HW264848   7.492   2.725   9.162  0.3486  1.1205 -0.3452
20001SOL     OW64849   6.426   4.884   8.828  0.3421 -0.1097 -0.0825
20001SOL    HW164850   6.505   4.937   8.812  0.9278 -1.5174 -2.0585
20001SOL    HW264851   6.459   4.804   8.870 -0.0525 -0.5922 -0.6824
20002SOL     OW64852   5.921   4.716   9.239 -0.0078 -0.2833  0.6652
20002SOL    HW164853   5.959   4.643   9.191  0.5151  0.7028 -0.4627
20002SOL    HW264854   5.984   4.734   9.309  0.4001 -0.2165  0.2830
20003SOL     OW64855   7.565   5.065   8.781 -0.2555 -0.2898 -0.3976
20003SOL    HW164856   7.604   4.993   8.732 -1.2605 -0.6751 -0.6298
20003SOL    HW264857   7.578   5.142   8.724 -1.3914 -0.7283 -1.2841
20004SOL     OW64858   7.857   5.780   8.433 -0.0232  0.1128  0.2203
20004SOL    HW164859   7.818   5.832   8.362  1.5544 -1.1946 -1.6588
20004SOL    HW264860   7.930   5.833   8.464  0.1417  0.0618 -0.0815
20005SOL     OW64861   5.909   5.279   9.961 -0.5867  0.3252 -0.4463
20005SOL    HW164862   5.825   5.306   9.997  0.0026 -0.1364  1.2949
20005SOL    HW264863   5.893   5.191   9.927 -0.9066  0.4128 -0.5285
20006SOL     OW64864   6.123   4.965   9.117  0.3564 -0.5349 -0.1969
20006SOL    HW164865   6.054   5.031   9.113  0.3839 -0.4969 -0.0137
20006SOL    HW264866   6.202   5.011   9.088  0.4008 -0.4567  0.0542
20007SOL     OW64867   7.611   5.409   8.978 -0.3168 -0.1335 -0.0468
20007SOL    HW164868   7.598   5.426   8.885  1.8860  1.3866 -0.1295
20007SOL    HW264869   7.553   5.471   9.022 -1.1887 -0.6931 -0.4064
20008SOL     OW64870   6.361   5.115   9.061 -0.3490 -0.2150 -0.0424
20008SOL    HW164871   6.384   5.088   8.972  0.5628  2.6513 -0.7420
20008SOL    HW264872   6.443   5.106   9.110 -0.1519  0.6881 -0.1763
20009SOL     OW64873   7.582   5.132   8.386  0.0317  0.4421  0.0450
20009SOL    HW164874   7.639   5.068   8.428  1.9700  1.3225 -1.2221
20009SOL    HW264875   7.561   5.195   8.456  2.7475  1.5629 -0.1044
20010SOL     OW64876   7.916   3.543   8.834  0.9366 -0.2932  0.0200
20010SOL    HW164877   8.003   3.505   8.839  1.6662  1.3675  0.1946
20010SOL    HW264878   7.901   3.581   8.921  0.5104  0.4071 -0.3533
20011SOL     OW64879   5.898   4.881   8.787  0.2978 -0.4907  0.1499
20011SOL    HW164880   5.869   4.909   8.874  1.2600  0.1308  0.2777
20011SOL    HW264881   5.989   4.910   8.781 -0.4328  1.5356 -1.9515
20012SOL     OW64882   5.333   3.883   9.489  0.0542  0.1862 -1.1085
20012SOL    HW164883   5.238   3.878   9.496 -0.0277  0.4468 -1.9017
20012SOL    HW264884   5.366   3.844   9.570 -0.7490  1.4184 -0.1775
20013SOL     OW64885   8.511   3.836   9.020 -0.3563 -0.4063 -0.5444
20013SOL    HW164886   8.523   3.853   8.926  0.4278  2.2961 -0.0041
20013SOL    HW264887   8.600   3.821   9.053 -0.6012 -1.0550 -0.1815
20014SOL     OW64888   8.609   5.139   8.644  0.5982 -0.1433  0.7900
20014SOL    HW164889   8.705   5.132   8.648  0.7292  0.2840 -1.1495
20014SOL    HW264890   8.590   5.228   8.674  0.8637  0.0392  0.4172
20015SOL     OW64891   7.981   5.235   9.201 -0.5278  0.4005 -0.3034
20015SOL    HW164892   7.912   5.286   9.244 -0.5046 -0.1217  0.3683
20015SOL    HW264893   8.031   5.299   9.152  0.5859  1.3208  1.9511
20016SOL     OW64894   9.298   4.654   8.545 -0.2511  0.1713  0.0354
20016SOL    HW164895   9.323   4.567   8.576 -1.7968 -0.0615  0.6623
20016SOL    HW264896   9.373   4.709   8.566  0.6452 -0.9586 -0.1553
20017SOL     OW64897   5.722   6.258   8.939  0.2980  0.2038  0.1098
20017SOL    HW164898   5.764   6.217   9.014 -3.6773  0.0946  2.4098
20017SOL    HW264899   5.696   6.185   8.883  0.2670  0.0591  0.3129
20018SOL     OW64900   7.020   4.243   0.582  0.4604 -0.1045  0.3222
20018SOL    HW164901   6.951   4.255   0.648  0.0161 -0.5193 -0.0681
20018SOL    HW264902   7.019   4.149   0.563 -0.4862  0.2607 -1.4501
20019SOL     OW64903   8.842   5.210   7.588  0.1006 -0.8547 -0.2751
20019SOL    HW164904   8.901   5.185   7.660  0.2183 -0.0206 -0.0727
20019SOL    HW264905   8.755   5.192   7.621  0.1376 -0.2112  0.1971
20020SOL     OW64906   5.490   3.050   8.368 -0.1083 -0.5319  0.5505
20020SOL    HW164907   5.545   3.125   8.390 -2.2843  0.8140  1.5134
20020SOL    HW264908   5.526   2.978   8.419  2.0296 -0.2005 -0.4176
20021SOL     OW64909   6.767   5.249   8.105  0.1322  0.2978 -0.3068
20021SOL    HW164910   6.802   5.213   8.023 -1.8532 -0.3257 -0.8990
20021SOL    HW264911   6.844   5.255   8.162  1.3188 -0.5184 -1.7632
20022SOL     OW64912   6.540   5.423   8.878 -0.2051  0.3586 -0.5908
20022SOL    HW164913   6.590   5.463   8.807  0.1365  1.4284  0.2328
20022SOL    HW264914   6.572   5.333   8.882 -0.1735  0.3179 -1.7393
20023SOL     OW64915   6.923   4.852   9.053  0.0817  1.0273 -0.2474
20023SOL    HW164916   7.005   4.864   9.102  0.8235  0.2232 -1.2723
20023SOL    HW264917   6.860   4.909   9.098  1.1248  1.4351  0.7316
20024SOL     OW64918   7.336   3.271   7.252  0.0461  0.0414 -0.8444
20024SOL    HW164919   7.383   3.256   7.170  0.1890 -0.8563 -0.6034
20024SOL    HW264920   7.391   3.231   7.319 -0.3037  0.3478 -0.3714
20025SOL     OW64921   5.665   2.640   8.720 -0.1859 -0.2484 -0.6139
20025SOL    HW164922   5.708   2.625   8.805 -0.6271  1.3215 -0.0852
20025SOL    HW264923   5.582   2.592   8.727 -0.4341  0.2606  0.0385
20026SOL     OW64924   7.101   5.786   7.485 -0.3319 -0.1291 -0.1599
20026SOL    HW164925   7.189   5.824   7.491  0.0508 -1.0621  0.2292
20026SOL    HW264926   7.116   5.697   7.454 -1.1758 -0.1912 -0.3961
20027SOL     OW64927   6.934   4.714   8.586  0.3907  0.3382  0.4038
20027SOL    HW164928   7.023   4.685   8.568 -0.0637 -0.3793 -0.7463
20027SOL    HW264929   6.908   4.764   8.509 -1.3171 -2.1749 -0.7310
20028SOL     OW64930   9.569   3.923   8.207 -0.1305 -0.0778 -0.0751
20028SOL    HW164931   9.593   3.832   8.189  0.6447  0.3613 -1.3533
20028SOL    HW264932   9.610   3.972   8.136  0.1697  1.3705  1.0886
20029SOL     OW64933   6.135   4.144   9.113 -0.4777 -0.6066  0.1648
20029SOL    HW164934   6.213   4.156   9.060 -0.8116  0.0402 -0.1898
20029SOL    HW264935   6.063   4.176   9.058 -0.5939  2.1502  1.8210
20030SOL     OW64936   7.986   4.868   6.727 -0.6582 -0.1044  0.3538
20030SOL    HW164937   7.942   4.793   6.686  0.0472  0.1185 -0.8122
20030SOL    HW264938   8.016   4.922   6.654 -2.6650  2.2263  1.1777
20031SOL     OW64939   5.849   5.421   8.557  0.2295 -0.7972 -0.6360
20031SOL    HW164940   5.839   5.327   8.541 -2.2652 -0.2163 -2.8403
20031SOL    HW264941   5.900   5.452   8.481  0.3406 -0.2256 -0.3288
20032SOL     OW64942   0.702   4.767   8.474  0.1539 -0.0460  0.4122
20032SOL    HW164943   0.650   4.803   8.545  2.4697  1.6764  1.2889
20032SOL    HW264944   0.744   4.843   8.433  0.2738 -1.1817 -1.6552
20033SOL     OW64945   9.135   5.844   7.651 -0.1969 -0.3458  0.0828
20033SOL    HW164946   9.135   5.843   7.556 -1.2462 -0.5406  0.0740
20033SOL    HW264947   9.076   5.917   7.674 -0.3438 -0.6161  0.5755
20034SOL     OW64948   5.574   2.705   7.469 -0.2892  1.2386 -0.4379
20034SOL    HW164949   5.489   2.670   7.496 -0.5925  1.8351 -0.6224
20034SOL    HW264950   5.553   2.769   7.401  0.2373  2.0845  0.1843
20035SOL     OW64951   7.275   2.552   7.400 -0.3344  0.2599  0.0301
20035SOL    HW164952   7.359   2.559   7.445 -0.9798  2.3173  1.0234
20035SOL    HW264953   7.295   2.566   7.308  0.5014  0.0478  0.1785
20036SOL     OW64954   6.257   4.131   8.422  0.0284  0.0617 -0.2487
20036SOL    HW164955   6.328   4.137   8.486  0.1305  1.7234 -0.5089
20036SOL    HW264956   6.181   4.101   8.473  0.6859 -0.9123  0.1843
20037SOL     OW64957   6.838   7.266   7.673  0.1352  0.1756  0.6784
20037SOL    HW164958   6.762   7.216   7.702  1.6875 -2.5157  0.2462
20037SOL    HW264959   6.841   7.252   7.579  1.6481 -0.4558  0.8108
20038SOL     OW64960   8.085   3.640   7.903 -0.2694  0.2409  0.0084
20038SOL    HW164961   8.126   3.709   7.850 -0.1680 -0.8627 -1.3495
20038SOL    HW264962   8.157   3.606   7.956 -0.0071  0.1621 -0.3965
20039SOL     OW64963   7.095   3.218   7.981  0.0005 -0.5566 -0.1295
20039SOL    HW164964   7.049   3.135   7.975 -1.9113  0.4369  0.3232
20039SOL    HW264965   7.052   3.275   7.917  0.7533  0.3193  0.1272
20040SOL     OW64966   8.227   5.972   7.728 -0.2647  0.0114 -0.5904
20040SOL    HW164967   8.176   6.038   7.775 -2.0920 -1.0503 -1.0436
20040SOL    HW264968   8.267   5.919   7.796 -0.6508  0.1774 -0.2318
20041SOL     OW64969   6.833   4.062   0.382 -0.3535  0.2215  0.0402
20041SOL    HW164970   6.918   4.094   0.351 -1.4544  1.0696 -2.2738
20041SOL    HW264971   6.826   3.974   0.346 -0.5796  0.2884 -0.0830
20042SOL     OW64972   8.464   4.032   8.527 -0.0995 -0.8157  1.0327
20042SOL    HW164973   8.369   4.018   8.520 -0.0763 -1.5578  2.1326
20042SOL    HW264974   8.481   4.034   8.621  0.9299 -0.3560  0.8364
20043SOL     OW64975   6.782   4.779   7.839 -0.4222  0.6637 -0.5284
20043SOL    HW164976   6.704   4.730   7.813 -0.8458  1.8974 -1.6233
20043SOL    HW264977   6.749   4.862   7.872  0.3514  0.6101  0.4026
20044SOL     OW64978   8.398   4.324   8.157  0.3611 -0.4191  0.2528
20044SOL    HW164979   8.437   4.308   8.071 -1.0082 -0.2987 -0.3996
20044SOL    HW264980   8.345   4.246   8.175 -0.4028  0.1202  0.3898
20045SOL     OW64981   7.440   5.016   9.047  0.4714  0.2442 -0.2312
20045SOL    HW164982   7.515   5.069   9.073  1.7607 -1.6008 -0.0993
20045SOL    HW264983   7.466   4.977   8.964 -0.4718 -0.1514 -0.3435
20046SOL     OW64984   5.377   4.951   8.825 -0.1994 -0.1154 -0.2917
20046SOL    HW164985   5.435   4.934   8.900 -0.9155  0.0570  0.3048
20046SOL    HW264986   5.291   4.920   8.854 -0.5815  0.4258 -0.8531
20047SOL     OW64987   6.103   4.220   8.048 -0.1083  0.0007  0.1652
20047SOL    HW164988   6.175   4.160   8.032  0.0787 -0.1050  1.3661
20047SOL    HW264989   6.069   4.242   7.961  1.5149  0.2318 -0.4186
20048SOL     OW64990   8.056   3.290   9.565  0.6962  0.7574  0.6263
20048SOL    HW164991   8.051   3.217   9.504 -0.1365 -0.2273  1.8586
20048SOL    HW264992   8.145   3.287   9.600  0.4708 -0.0520  1.1373
20049SOL     OW64993   7.868   4.295   8.508 -0.5405  0.4114  0.1874
20049SOL    HW164994   7.909   4.279   8.424 -0.2154  0.1119  0.4042
20049SOL    HW264995   7.797   4.358   8.489  0.4532  1.4694 -0.0720
20050SOL     OW64996   7.357   6.480   7.948  0.3566  0.1137  1.1760
20050SOL    HW164997   7.399   6.464   8.033 -1.4160 -1.2791  1.8294
20050SOL    HW264998   7.300   6.555   7.964  0.4806  0.2344  1.0502
20051SOL     OW64999   5.573   5.203   0.258  0.3896 -0.3960  0.0106
20051SOL    HW165000   5.587   5.142   0.186  2.3914  0.4394 -0.3629
20051SOL    HW265001   5.553   5.286   0.216  2.9214  0.4211  0.3257
20052SOL     OW65002   7.404   4.804   7.851 -0.4645 -0.0744 -0.2466
20052SOL    HW165003   7.472   4.851   7.802 -1.0594  0.6188 -0.4185
20052SOL    HW265004   7.349   4.765   7.784 -0.4963 -0.2647 -0.1100
20053SOL     OW65005   6.359   5.998   9.145 -0.0160 -0.1457 -0.2309
20053SOL    HW165006   6.453   5.986   9.136  0.3853  0.5167  2.6049
20053SOL    HW265007   6.338   5.962   9.231 -2.1765  0.6590 -0.3814
20054SOL     OW65008   5.437   2.929   7.793  0.1093 -0.0801  0.0060
20054SOL    HW165009   5.389   2.987   7.852  2.4112  1.0963  0.8172
20054SOL    HW265010   5.384   2.850   7.787 -0.5181  0.0785  3.0840
20055SOL     OW65011   7.028   5.133   8.101 -0.3163  0.0178  0.1128
20055SOL    HW165012   7.034   5.069   8.030 -2.0215  1.5581 -1.4938
20055SOL    HW265013   7.100   5.110   8.160  0.2547 -2.1958 -1.3705
20056SOL     OW65014   6.996   6.053   9.420 -0.6296  0.3741 -0.0792
20056SOL    HW165015   6.974   6.048   9.513 -1.8117  1.2425 -0.2992
20056SOL    HW265016   6.990   6.147   9.400  0.9560  0.3487 -0.7162
20057SOL     OW65017   6.841   2.597   9.089  0.8516  0.0825 -0.2131
20057SOL    HW165018   6.864   2.514   9.131  1.4630  0.5681  0.4114
20057SOL    HW265019   6.795   2.646   9.157 -1.6725 -0.6903 -1.2917
20058SOL     OW65020   8.644   4.415   8.587  0.1908  0.1669  0.5806
20058SOL    HW165021   8.652   4.324   8.558 -0.2605 -0.2780  1.8082
20058SOL    HW265022   8.589   4.410   8.665  0.0584  1.5126  0.5802
20059SOL     OW65023   6.092   4.852   0.330 -0.3491  0.5730 -0.5766
20059SOL    HW165024   6.132   4.927   0.286 -1.3913  0.7574 -1.2194
20059SOL    HW265025   6.021   4.825   0.273  1.0622 -1.9995 -1.1989
20060SOL     OW65026   7.184   6.549   8.862  0.1954 -0.1436  0.3968
20060SOL    HW165027   7.202   6.640   8.885 -1.9855  0.2991  0.4922
20060SOL    HW265028   7.096   6.533   8.896  0.3260 -2.1062 -0.1445
20061SOL     OW65029   5.872   5.495   8.819 -0.0821 -0.0580 -0.4236
20061SOL    HW165030   5.839   5.582   8.798 -1.0012 -0.7621 -1.9243
20061SOL    HW265031   5.890   5.455   8.734  0.3371 -1.3370  0.2622
20062SOL     OW65032   5.101   1.776   8.354  0.6338  0.4759  0.2452
20062SOL    HW165033   5.185   1.740   8.326  1.0556  1.0297  0.7605
20062SOL    HW265034   5.044   1.700   8.363  1.4629 -0.0565  1.1570
20063SOL     OW65035   8.105   5.917   8.559  0.1730 -0.2818  0.2055
20063SOL    HW165036   8.066   6.004   8.574 -0.1598 -0.1761 -1.1767
20063SOL    HW265037   8.197   5.935   8.539  0.4589 -0.3690  1.4516
20064SOL     OW65038   8.760   4.815   8.279 -0.2717 -0.7938  0.2387
20064SOL    HW165039   8.816   4.757   8.331 -1.2085 -2.3552 -0.4580
20064SOL    HW265040   8.794   4.808   8.190 -0.7882 -0.7637  0.0371
20065SOL     OW65041   6.153   3.501   9.453 -0.0659  0.7157 -0.5656
20065SOL    HW165042   6.129   3.548   9.533 -0.4313  1.1138 -0.9068
20065SOL    HW265043   6.106   3.418   9.459  1.9196 -0.3768  0.8651
20066SOL     OW65044   6.375   8.472   8.461 -0.5158  0.5072  0.3179
20066SOL    HW165045   6.305   8.520   8.505 -0.7956 -0.7715  1.3174
20066SOL    HW265046   6.441   8.458   8.529  0.3306  0.9755 -0.4021
20067SOL     OW65047   6.927   5.181   9.031 -0.2887 -0.1303 -0.2455
20067SOL    HW165048   6.943   5.253   8.970  1.8166  0.1398  0.5848
20067SOL    HW265049   7.011   5.136   9.037 -0.0029  0.7323  3.5608
20068SOL     OW65050   6.432   4.791   8.094 -0.7319  0.1099  0.1370
20068SOL    HW165051   6.473   4.842   8.024 -2.2199  1.7787  0.4456
20068SOL    HW265052   6.428   4.701   8.060  2.0198  0.1432 -0.3620
20069SOL     OW65053   4.350   3.001   7.133  0.0193 -0.4042  0.5277
20069SOL    HW165054   4.443   2.983   7.119  0.1963  0.8207  0.1068
20069SOL    HW265055   4.320   2.928   7.186  1.3895 -0.4457  1.2749
20070SOL     OW65056   7.336   3.506   6.708  0.5177 -0.6465 -0.5872
20070SOL    HW165057   7.295   3.553   6.781 -1.1332 -0.1864 -1.7741
20070SOL    HW265058   7.347   3.417   6.740 -0.0057 -0.3935  0.3109
20071SOL     OW65059   7.932   4.196   7.958 -0.3308  0.2840 -0.8023
20071SOL    HW165060   7.932   4.233   7.870 -1.5326 -0.8202 -1.2768
20071SOL    HW265061   7.847   4.220   7.995 -0.5818 -0.8128 -0.6315
20072SOL     OW65062   7.073   3.981   8.862  0.1156  0.2454 -0.0813
20072SOL    HW165063   7.009   3.966   8.932  0.5627  0.3119  0.3482
20072SOL    HW265064   7.054   4.070   8.831 -0.4608  0.0015 -0.4448
20073SOL     OW65065   8.362   4.945   8.730 -0.5745 -0.0097  0.3866
20073SOL    HW165066   8.414   4.890   8.789 -0.4728 -0.3599 -0.0260
20073SOL    HW265067   8.285   4.891   8.708 -0.6837  0.1736  0.3163
20074SOL     OW65068   5.922   5.099   9.335  0.7808 -0.0262 -0.2839
20074SOL    HW165069   5.976   5.023   9.357  0.8395  0.1416  0.1495
20074SOL    HW265070   5.963   5.172   9.380  0.8379  0.3057 -0.8626
20075SOL     OW65071   8.264   3.666   9.001 -0.0042 -0.3198  0.4209
20075SOL    HW165072   8.352   3.700   8.984  0.2815 -1.0731  0.3855
20075SOL    HW265073   8.205   3.728   8.958  0.5055  0.2108  0.4818
20076SOL     OW65074   6.349   4.258   8.929  0.0728 -0.0503 -0.1734
20076SOL    HW165075   6.414   4.245   8.860 -1.1940  0.0338 -1.4016
20076SOL    HW265076   6.398   4.248   9.010  1.8531  1.2024 -1.0740
20077SOL     OW65077   7.718   3.784   8.777 -0.6393  0.7193 -0.4892
20077SOL    HW165078   7.744   3.746   8.861  1.3042  0.1334 -1.3348
20077SOL    HW265079   7.764   3.868   8.772 -0.6247  0.6849 -1.0207
20078SOL     OW65080   6.959   1.749   7.844 -0.3012 -0.3443 -0.8214
20078SOL    HW165081   6.940   1.655   7.848  0.6985 -0.6060 -1.8099
20078SOL    HW265082   6.997   1.770   7.929 -0.6185 -0.8060 -0.5613
20079SOL     OW65083   4.640   3.956   0.354 -0.4979  0.4824  0.0430
20079SOL    HW165084   4.735   3.951   0.342 -0.5990 -1.3110 -0.1895
20079SOL    HW265085   4.629   3.971   0.448  0.0170  0.3425  0.1309
20080SOL     OW65086   6.233   5.078   0.238 -0.1237 -0.1975 -0.4394
20080SOL    HW165087   6.172   5.151   0.240  0.1556  0.0021  2.2813
20080SOL    HW265088   6.320   5.119   0.241  0.0373 -0.6129  0.9097
20081SOL     OW65089   6.973   4.218   8.187 -0.5125  0.3460  0.3682
20081SOL    HW165090   7.035   4.269   8.240 -1.0441  1.1660  0.2156
20081SOL    HW265091   6.949   4.145   8.243  3.0961 -1.8383 -0.7727
20082SOL     OW65092   6.039   5.487   8.365 -0.4695  0.8554  0.2390
20082SOL    HW165093   6.057   5.566   8.315  0.3877  1.2086  1.0939
20082SOL    HW265094   6.121   5.437   8.361 -0.5317  0.6933  0.9159
20083SOL     OW65095   7.524   2.146   8.698 -0.1215  0.3998 -0.1860
20083SOL    HW165096   7.603   2.106   8.734  0.2060 -0.2026 -1.5218
20083SOL    HW265097   7.526   2.123   8.605 -1.6801  0.6812 -0.3097
20084SOL     OW65098   3.955   3.286   7.946 -0.0463  0.0375 -0.2806
20084SOL    HW165099   3.976   3.342   8.021  0.4943 -0.6725  0.1033
20084SOL    HW265100   3.904   3.214   7.983  0.3586 -0.4014 -0.5659
20085SOL     OW65101   6.962   6.174   8.429  0.3793  0.1324 -0.3324
20085SOL    HW165102   6.907   6.237   8.382  0.9691  0.1676 -0.9990
20085SOL    HW265103   6.914   6.154   8.509  0.3630  1.7150  0.0585
20086SOL     OW65104   6.723   2.300   8.779 -0.7316 -0.1747  0.0849
20086SOL    HW165105   6.715   2.209   8.750 -0.3879 -0.0328 -0.4826
20086SOL    HW265106   6.758   2.295   8.867  2.9678 -0.5201 -1.3173
20087SOL     OW65107   8.032   5.774   0.320  0.4041  0.0547  0.1249
20087SOL    HW165108   8.023   5.848   0.261  0.5814  0.3415  0.4563
20087SOL    HW265109   7.950   5.773   0.370  0.5850  0.2913  0.4243
20088SOL     OW65110   7.794   3.828   9.607 -0.5241  0.3124 -0.0192
20088SOL    HW165111   7.827   3.845   9.695  1.7411  1.2983 -1.0074
20088SOL    HW265112   7.747   3.908   9.583 -2.0760 -0.3623  0.6563
20089SOL     OW65113   7.176   3.691   0.011 -1.1392  0.3707 -0.0125
20089SOL    HW165114   7.201   3.773  -0.031 -2.8868  1.2519  0.6491
20089SOL    HW265115   7.224   3.624  -0.039  1.1971  1.8405  0.1572
20090SOL     OW65116   5.394   5.658   9.868 -0.6937  0.0343  0.3654
20090SOL    HW165117   5.444   5.731   9.832  0.1854 -0.3194  0.8431
20090SOL    HW265118   5.418   5.583   9.814 -1.4981  0.0686 -0.0456
20091SOL     OW65119   8.553   4.661   0.480  0.3190 -0.1804 -0.2255
20091SOL    HW165120   8.528   4.619   0.562 -1.7655 -0.8960 -1.2128
20091SOL    HW265121   8.495   4.738   0.474  0.1309 -0.3993 -1.2607
20092SOL     OW65122   6.780   3.538   8.434 -0.3099  0.2117 -0.2401
20092SOL    HW165123   6.766   3.508   8.344  0.1415 -0.3452 -0.1264
20092SOL    HW265124   6.805   3.459   8.482 -0.2664  0.5604  0.3148
20093SOL     OW65125   6.094   5.725   8.839 -0.5336 -0.6941 -0.6810
20093SOL    HW165126   6.057   5.738   8.927  0.0403  0.0988 -0.5528
20093SOL    HW265127   6.142   5.642   8.846 -1.4183 -1.1990 -0.5581
20094SOL     OW65128   6.324   4.589   9.369  0.3890 -0.7717 -0.1600
20094SOL    HW165129   6.270   4.667   9.352  2.5541  0.3398 -2.2135
20094SOL    HW265130   6.369   4.608   9.451 -0.5000 -0.6710  0.3093
20095SOL     OW65131   6.382   5.329   9.686 -0.1839 -0.0358  0.1113
20095SOL    HW165132   6.409   5.327   9.778  0.7474  1.2661 -0.1303
20095SOL    HW265133   6.382   5.422   9.663 -1.0543 -0.3064 -1.0299
20096SOL     OW65134   6.962   4.943   8.360 -0.2326  0.0149  0.0877
20096SOL    HW165135   7.047   4.965   8.399  0.2117 -0.6570 -0.5013
20096SOL    HW265136   6.976   4.858   8.319 -1.3504 -0.3604  0.4759
20097SOL     OW65137   6.263   3.774   8.601  0.1431 -0.0228  0.7074
20097SOL    HW165138   6.316   3.752   8.524  2.1465  2.8592  1.1825
20097SOL    HW265139   6.248   3.690   8.644  0.4900 -1.4676 -1.8539
20098SOL     OW65140   8.439   3.943   9.523  0.1163  0.2027  0.1949
20098SOL    HW165141   8.433   3.944   9.427 -1.3812  0.7359  0.2791
20098SOL    HW265142   8.425   4.034   9.549 -0.6281 -0.1302  0.9757
20099SOL     OW65143   7.241   5.295   8.396 -0.4589 -0.0691  0.0659
20099SOL    HW165144   7.239   5.390   8.394  0.1060  0.0317  2.3882
20099SOL    HW265145   7.163   5.270   8.446 -1.6575 -0.9280 -2.1834
20100SOL     OW65146   8.107   6.267   7.206  0.0642  0.2995 -0.3769
20100SOL    HW165147   8.171   6.329   7.169  0.8026 -1.4834 -2.2014
20100SOL    HW265148   8.134   6.256   7.297  1.2824  0.9342 -0.6501
20101SOL     OW65149   7.193   5.374   9.198 -0.4855  0.7001  0.6294
20101SOL    HW165150   7.182   5.281   9.216  1.6296  0.5013  0.9773
20101SOL    HW265151   7.171   5.418   9.280 -2.3084  0.5935  0.2266
20102SOL     OW65152   6.424   4.212   8.650  0.1608 -0.3713  0.1653
20102SOL    HW165153   6.497   4.172   8.698  0.5734 -0.3326 -0.4181
20102SOL    HW265154   6.437   4.306   8.662  0.0658 -0.3710  0.2646
20103SOL     OW65155   7.615   5.711   8.534  0.0840  0.7769  1.0806
20103SOL    HW165156   7.552   5.781   8.513 -0.2083  0.7362  1.8399
20103SOL    HW265157   7.688   5.727   8.474 -2.2249 -1.4124 -2.4926
20104SOL     OW65158   7.072   3.108   9.713  0.1740 -0.4222  0.2199
20104SOL    HW165159   7.024   3.185   9.684 -0.4179 -1.1838 -0.8526
20104SOL    HW265160   7.054   3.102   9.807 -0.6469  0.1373  0.0963
20105SOL     OW65161   7.896   3.983   8.824 -0.5064 -0.0906  0.2521
20105SOL    HW165162   7.869   4.008   8.913 -0.8620  1.2796 -0.2235
20105SOL    HW265163   7.983   3.945   8.835  0.2307  1.7414  0.9728
20106SOL     OW65164   8.336   4.834   8.446  0.0428 -0.3098  0.1537
20106SOL    HW165165   8.284   4.805   8.370 -0.0396 -0.6628  0.3473
20106SOL    HW265166   8.349   4.755   8.498 -2.4277  0.4810  2.0314
20107SOL     OW65167   6.693   2.730   9.264 -0.0387 -0.0510 -0.2506
20107SOL    HW165168   6.615   2.782   9.243  0.2525  1.5520  2.3768
20107SOL    HW265169   6.660   2.662   9.324  0.3300 -0.2684 -0.2952
20108SOL     OW65170   6.729   6.881   6.447 -0.5128  0.2433 -0.3100
20108SOL    HW165171   6.734   6.878   6.543 -0.6119  0.4053 -0.3004
20108SOL    HW265172   6.688   6.965   6.428 -0.5589  0.1784 -0.4930
20109SOL     OW65173   8.514   4.945   7.359  0.0725  0.1950 -0.0545
20109SOL    HW165174   8.472   4.909   7.281 -0.6094 -0.2344  0.5092
20109SOL    HW265175   8.608   4.932   7.343 -0.0836 -0.1987 -0.6521
20110SOL     OW65176   7.828   3.543   7.896 -0.1125 -0.3170  0.5848
20110SOL    HW165177   7.914   3.583   7.889  0.1228 -0.4835  2.4636
20110SOL    HW265178   7.779   3.580   7.822  1.4796 -0.0429 -0.3547
20111SOL     OW65179   5.748   3.641   9.602  0.1342  0.0824  0.1876
20111SOL    HW165180   5.731   3.563   9.655 -2.6992 -0.2287 -1.1035
20111SOL    HW265181   5.701   3.711   9.648  2.7430  1.1035  1.3920
20112SOL     OW65182   6.932   6.557   8.957 -0.0688 -0.4207  0.5183
20112SOL    HW165183   6.859   6.572   9.018 -2.6354  1.3146 -2.7935
20112SOL    HW265184   6.907   6.478   8.909 -0.6956  1.1127 -1.7853
20113SOL     OW65185   7.911   2.865   9.372  0.1959 -0.3674  0.2639
20113SOL    HW165186   7.940   2.896   9.458 -0.8400  1.2454  0.0462
20113SOL    HW265187   7.828   2.820   9.390  1.0827 -2.0214  0.3978
20114SOL     OW65188   7.328   3.819   9.582  0.2848  0.1864  0.1533
20114SOL    HW165189   7.280   3.737   9.586 -0.5431  0.6415 -0.3220
20114SOL    HW265190   7.298   3.869   9.658  0.2592  0.3413  0.0405
20115SOL     OW65191   7.023   2.627   9.826 -0.0500  0.9495  0.0119
20115SOL    HW165192   6.931   2.603   9.814  0.2587 -0.4205  0.2898
20115SOL    HW265193   7.056   2.641   9.737  0.5786 -2.8662 -0.4405
20116SOL     OW65194   7.073   5.905   8.407 -0.0115 -0.4870 -0.0212
20116SOL    HW165195   7.027   5.988   8.413  0.1210 -0.4973  1.4450
20116SOL    HW265196   7.058   5.863   8.492  2.6100 -0.5134  0.4642
20117SOL     OW65197   6.355   5.511   8.500  0.0237 -0.5750 -0.5932
20117SOL    HW165198   6.321   5.421   8.494  1.1720 -0.9611 -1.5783
20117SOL    HW265199   6.315   5.556   8.425  0.5500 -0.6503 -0.9241
20118SOL     OW65200   5.045   6.873   9.388  0.3295  0.5359  0.5523
20118SOL    HW165201   4.950   6.882   9.380  0.3104  0.5380  0.7982
20118SOL    HW265202   5.075   6.960   9.414  0.5565  0.9421 -1.0100
20119SOL     OW65203   6.302   3.172   9.191  0.2082 -0.1515  0.4392
20119SOL    HW165204   6.306   3.158   9.286  0.8445 -1.4499  0.2318
20119SOL    HW265205   6.390   3.205   9.169  0.9971 -2.5748 -0.1117
20120SOL     OW65206   5.554   4.504   0.251 -0.0578 -0.1154  0.2331
20120SOL    HW165207   5.599   4.430   0.293  0.2823 -1.1256 -1.8440
20120SOL    HW265208   5.568   4.491   0.157 -2.2381  1.1457 -0.3135
20121SOL     OW65209   6.344   4.468   0.156  0.3023 -0.1353  0.0693
20121SOL    HW165210   6.262   4.494   0.114  1.2146  0.1255 -1.5891
20121SOL    HW265211   6.335   4.497   0.247 -0.9754  0.9008 -0.3810
20122SOL     OW65212   5.445   3.766   0.247 -0.4634 -0.4883 -0.1226
20122SOL    HW165213   5.478   3.783   0.335 -1.5064 -1.1883  0.4190
20122SOL    HW265214   5.357   3.804   0.246 -1.6672 -3.1183  0.1484
20123SOL     OW65215   7.630   6.728   1.717 -0.2448  0.3094 -0.1574
20123SOL    HW165216   7.648   6.674   1.640  1.3315 -0.3120  0.6208
20123SOL    HW265217   7.589   6.667   1.779  0.6964  0.2141  0.3802
20124SOL     OW65218   7.095   5.559   9.005  0.4852 -0.1806  0.2361
20124SOL    HW165219   7.086   5.480   9.058 -0.7083 -0.3077 -0.1441
20124SOL    HW265220   7.076   5.631   9.066  0.2584 -0.2610  0.2619
20125SOL     OW65221   7.019   4.438   9.986 -0.3245 -0.8378  0.1489
20125SOL    HW165222   6.951   4.416  10.049 -0.5723  1.1505  0.5813
20125SOL    HW265223   6.977   4.500   9.926  0.9304 -0.0695  0.0585
20126SOL     OW65224   6.157   6.075   9.920 -0.1175 -0.0552  0.2584
20126SOL    HW165225   6.098   6.150   9.926 -0.7324 -0.5054 -0.0916
20126SOL    HW265226   6.235   6.101   9.969 -0.1155  1.0085 -0.3102
20127SOL     OW65227   5.901   2.452   7.658 -0.3401  0.1266 -0.1495
20127SOL    HW165228   5.871   2.415   7.575  0.2071 -0.8534  0.0718
20127SOL    HW265229   5.895   2.546   7.646  0.6048  0.0238 -1.6559
20128SOL     OW65230   8.808   4.231   8.945  0.0352  0.0555 -0.2370
20128SOL    HW165231   8.786   4.138   8.936  1.4672 -0.4071  0.7978
20128SOL    HW265232   8.890   4.241   8.898  1.5227  0.0878  2.2508
20129SOL     OW65233   6.054   3.978   9.503 -0.0102 -0.3776  0.4152
20129SOL    HW165234   6.133   3.927   9.484  0.7806  0.6024  1.0443
20129SOL    HW265235   6.071   4.018   9.588 -1.3719 -0.5102  0.7658
20130SOL     OW65236   8.751   4.603   9.056  0.1511  0.1363 -0.1928
20130SOL    HW165237   8.827   4.658   9.040 -1.6504  3.1860  1.2036
20130SOL    HW265238   8.757   4.580   9.149  1.3258 -2.7977 -0.9547
20131SOL     OW65239   7.830   5.364   0.892 -0.4181  0.1493  0.7076
20131SOL    HW165240   7.750   5.336   0.937 -1.0563  0.5857 -0.1380
20131SOL    HW265241   7.815   5.341   0.800  0.6689 -0.2826  0.6309
20132SOL     OW65242   5.914   4.243   0.782  0.3280  0.2515 -0.5277
20132SOL    HW165243   5.914   4.165   0.726 -1.4652  0.5491 -0.9711
20132SOL    HW265244   5.979   4.224   0.850 -1.1044 -2.2434  0.1959
20133SOL     OW65245   7.335   4.432   1.438 -0.0720 -0.2405  0.2675
20133SOL    HW165246   7.332   4.390   1.523  0.6710 -0.3750  0.2260
20133SOL    HW265247   7.244   4.459   1.422 -0.1904 -0.0996  1.1478
20134SOL     OW65248   7.665   5.296   9.219 -0.0604  0.4860 -0.3554
20134SOL    HW165249   7.690   5.386   9.243 -0.3936  0.5477 -0.2285
20134SOL    HW265250   7.639   5.302   9.127  0.2078  0.4608 -0.4322
20135SOL     OW65251   6.095   3.680   9.687  0.1177  0.0018  0.4001
20135SOL    HW165252   6.132   3.744   9.626 -0.6365 -0.8035 -0.9248
20135SOL    HW265253   6.002   3.676   9.663  0.0353 -1.1277  0.8955
20136SOL     OW65254   5.182   5.515   0.136  0.0926  0.1541 -0.6564
20136SOL    HW165255   5.200   5.539   0.227  0.6285  0.4846 -0.8502
20136SOL    HW265256   5.086   5.515   0.130  0.0705  1.5658 -0.4663
20137SOL     OW65257   8.490   3.268   8.482  0.1801  0.5027 -0.5534
20137SOL    HW165258   8.504   3.264   8.577 -0.8015  0.8864 -0.3865
20137SOL    HW265259   8.434   3.345   8.470  0.8889  0.8722 -1.5175
20138SOL     OW65260   7.213   4.919   9.370 -0.3644  0.2057 -0.2851
20138SOL    HW165261   7.148   4.977   9.411  1.2406  1.5799  0.3808
20138SOL    HW265262   7.290   4.926   9.427 -0.4170 -3.3332  0.3151
20139SOL     OW65263   6.161   6.779   1.419 -0.1940  0.1625  0.0295
20139SOL    HW165264   6.088   6.840   1.414 -1.2516 -1.1458 -0.8938
20139SOL    HW265265   6.187   6.764   1.328  0.4227 -0.3237  0.2788
20140SOL     OW65266   6.915   4.505   9.318 -0.4755 -0.6747  0.1429
20140SOL    HW165267   6.934   4.411   9.313  0.8168 -0.4380  0.4862
20140SOL    HW265268   6.994   4.544   9.355 -0.0498  0.8876 -2.3215
20141SOL     OW65269   5.609   4.777   0.321 -0.2184 -0.4412 -0.2543
20141SOL    HW165270   5.575   4.689   0.302  0.7586 -0.6565 -1.0447
20141SOL    HW265271   5.531   4.831   0.331 -0.9908 -2.0968  3.8678
20142SOL     OW65272   4.534   4.697   9.859 -0.5436  0.3597 -0.1246
20142SOL    HW165273   4.544   4.746   9.941 -0.9430 -0.4784  0.4347
20142SOL    HW265274   4.446   4.660   9.864 -0.7552  0.7170 -1.1626
20143SOL     OW65275   5.426   3.131   0.206 -0.1629 -0.3155  0.2145
20143SOL    HW165276   5.382   3.170   0.282  0.2998  0.6526 -0.0132
20143SOL    HW265277   5.472   3.203   0.165 -0.3408 -0.8491 -0.9519
20144SOL     OW65278   8.874   4.568   9.907  1.2637 -0.0202  0.2860
20144SOL    HW165279   8.790   4.522   9.917 -0.8955  3.8229  1.0345
20144SOL    HW265280   8.918   4.555   9.991  0.4736 -0.2985  0.6656
20145SOL     OW65281   5.611   3.917   9.242  0.1784  0.3122  0.4049
20145SOL    HW165282   5.595   3.893   9.333 -2.1621  0.7920  0.1552
20145SOL    HW265283   5.594   3.838   9.192  0.2375  0.3793  0.2779
20146SOL     OW65284   6.643   4.202   9.442 -0.2848 -0.3647  0.3491
20146SOL    HW165285   6.615   4.111   9.455  0.1928 -0.3355  1.6272
20146SOL    HW265286   6.702   4.220   9.515 -0.1754  0.8993 -0.0362
20147SOL     OW65287   6.382   4.632   0.550 -0.0171 -0.1132 -1.0904
20147SOL    HW165288   6.453   4.690   0.578 -1.4028  1.2545 -0.2965
20147SOL    HW265289   6.324   4.627   0.626  0.3765 -3.0861 -0.9223
20148SOL     OW65290   8.546   4.661  10.000 -0.1738  0.0743  0.3000
20148SOL    HW165291   8.558   4.587  10.059 -0.9409  0.0986  0.4838
20148SOL    HW265292   8.566   4.738  10.053  1.2199 -0.0292 -0.0576
20149SOL     OW65293   6.844   5.209   8.402 -0.0558 -0.3090 -0.1375
20149SOL    HW165294   6.893   5.137   8.362  0.4841 -0.6663  1.1684
20149SOL    HW265295   6.756   5.174   8.413 -0.8754  0.5920 -3.2123
20150SOL     OW65296   6.641   4.496   9.749 -0.4432  0.0320  0.4189
20150SOL    HW165297   6.568   4.547   9.785  0.7277  1.6458  0.5691
20150SOL    HW265298   6.616   4.480   9.658 -1.7696 -0.9397  0.9345
20151SOL     OW65299   8.213   2.516   9.353 -0.1681  0.2029 -0.1228
20151SOL    HW165300   8.184   2.523   9.444  1.6570  1.4414  0.3823
20151SOL    HW265301   8.133   2.502   9.303 -1.2468  0.1273  1.6043
20152SOL     OW65302   5.012   6.829   8.861  0.3774  0.0175 -0.0149
20152SOL    HW165303   5.001   6.891   8.789 -0.7255 -0.6012 -0.3945
20152SOL    HW265304   5.045   6.882   8.934  1.8869  0.5729 -1.0815
20153SOL     OW65305   6.539   4.224   9.143  0.3792 -0.3800 -0.0540
20153SOL    HW165306   6.615   4.282   9.150  0.0556 -0.0489  0.7844
20153SOL    HW265307   6.571   4.139   9.173  0.6927 -0.4899 -0.6961
20154SOL     OW65308   3.499   4.154   0.733 -0.0321  0.1004  0.4391
20154SOL    HW165309   3.418   4.203   0.747  0.1935  0.6617 -0.1478
20154SOL    HW265310   3.484   4.106   0.652  0.4381  0.6872 -0.0043
20155SOL     OW65311   6.573   5.619   0.267  0.6232  0.2788  0.1275
20155SOL    HW165312   6.511   5.547   0.260  0.2985  0.5809 -0.1225
20155SOL    HW265313   6.558   5.655   0.355  1.0858 -0.2272  0.4177
20156SOL     OW65314   5.980   3.589   8.041  0.0976  1.1788 -0.3712
20156SOL    HW165315   6.066   3.547   8.029 -0.7025 -0.4220 -0.5734
20156SOL    HW265316   5.927   3.556   7.969 -1.1374  0.9930  0.6101
20157SOL     OW65317   8.824   4.278   9.313  0.1700  0.3723 -0.7367
20157SOL    HW165318   8.809   4.235   9.397  1.0279  0.9801 -0.2711
20157SOL    HW265319   8.847   4.206   9.253  2.2377  0.2301  0.1926
20158SOL     OW65320   5.949   4.448   0.274 -0.7233  0.7921 -0.9071
20158SOL    HW165321   5.969   4.426   0.365  0.5138 -3.2446 -2.0354
20158SOL    HW265322   6.023   4.502   0.245  1.4018 -1.9033 -0.7963
20159SOL     OW65323   5.496   3.775   9.685 -0.2825  0.0757 -0.0054
20159SOL    HW165324   5.447   3.693   9.688 -0.1736  0.0281  0.4862
20159SOL    HW265325   5.526   3.789   9.775 -0.0039  0.4747 -0.1579
20160SOL     OW65326   9.088   3.633   9.310  0.0151  0.4630  0.2335
20160SOL    HW165327   9.124   3.567   9.368 -0.1805  0.2316  0.0949
20160SOL    HW265328   8.994   3.632   9.328  0.1162  1.3002  0.8374
20161SOL     OW65329   7.291   3.426   9.880  0.0086 -0.0540 -0.5139
20161SOL    HW165330   7.296   3.393   9.969 -0.1305 -0.2868 -0.5919
20161SOL    HW265331   7.341   3.363   9.828 -0.0333  0.0019 -0.6238
20162SOL     OW65332   8.490   5.196   9.869 -0.0155 -0.1532  0.3192
20162SOL    HW165333   8.434   5.150   9.805 -1.4265  0.6308  0.9663
20162SOL    HW265334   8.533   5.264   9.818 -0.1354 -0.3584 -0.0646
20163SOL     OW65335   7.718   3.541   9.381  0.4192 -0.0250 -0.3896
20163SOL    HW165336   7.688   3.468   9.434 -2.4001  2.7545  2.0332
20163SOL    HW265337   7.682   3.524   9.294 -0.3074 -1.4281  0.1739
20164SOL     OW65338   4.163   4.273   9.326 -0.1565  0.4325 -0.3398
20164SOL    HW165339   4.231   4.320   9.279 -0.5716  0.6370 -0.7420
20164SOL    HW265340   4.081   4.302   9.286 -0.4614 -0.0440 -0.0734
20165SOL     OW65341   8.112   3.802   9.504  0.4226 -0.6463  0.9215
20165SOL    HW165342   8.118   3.885   9.457 -3.1434 -0.3552  0.8782
20165SOL    HW265343   8.195   3.758   9.485  1.3142  1.8018 -1.1446
20166SOL     OW65344   8.516   4.539   0.735  0.0158  0.3161 -0.2420
20166SOL    HW165345   8.439   4.483   0.728 -0.3767  0.5921  1.6503
20166SOL    HW265346   8.590   4.478   0.727 -0.4077 -0.3833  1.0194
20167SOL     OW65347   8.471   4.379   0.093  0.9395 -0.2442 -0.2637
20167SOL    HW165348   8.510   4.326   0.163 -1.3705 -3.1022 -1.0411
20167SOL    HW265349   8.524   4.361   0.016  0.4658 -1.0706 -0.4038
20168SOL     OW65350   6.629   4.989   0.376  0.9584 -0.0378  0.2963
20168SOL    HW165351   6.626   4.902   0.416 -0.4068  0.8822  2.2738
20168SOL    HW265352   6.713   5.024   0.404  0.4361  0.2209  1.5687
20169SOL     OW65353   6.094   5.929   9.290 -1.1727  0.3811 -0.1610
20169SOL    HW165354   6.022   5.921   9.352 -2.0546  0.6454 -1.1327
20169SOL    HW265355   6.171   5.899   9.338 -1.8419  0.5808  1.0515
20170SOL     OW65356   6.387   3.480   0.904 -0.3271  0.3577  0.2269
20170SOL    HW165357   6.306   3.498   0.950 -1.8291  0.0914 -2.2223
20170SOL    HW265358   6.386   3.539   0.829  1.4936 -0.0229 -0.1319
20171SOL     OW65359   6.156   4.331   9.658  0.1693  0.6128  0.7517
20171SOL    HW165360   6.197   4.253   9.696  0.6855  0.3661 -0.2744
20171SOL    HW265361   6.228   4.374   9.611 -0.3101  1.2359  0.5925
20172SOL     OW65362   6.558   5.083   0.717 -0.0708  0.2196  0.3016
20172SOL    HW165363   6.630   5.044   0.766  0.7570  0.0095 -1.0578
20172SOL    HW265364   6.480   5.060   0.768  0.6906 -0.6347  1.1201
20173SOL     OW65365   6.155   3.615   7.737 -0.1480  0.0751 -0.1724
20173SOL    HW165366   6.122   3.673   7.668 -0.1810  0.4527  0.1532
20173SOL    HW265367   6.141   3.527   7.704 -0.1405  0.2546 -0.6578
20174SOL     OW65368   5.998   3.596   9.968  0.1895  0.1350  0.3401
20174SOL    HW165369   5.949   3.519   9.938  1.7086 -0.3518 -0.9072
20174SOL    HW265370   5.932   3.649  10.014 -1.2442 -1.0868 -0.2574
20175SOL     OW65371   5.549   2.860   8.604  0.1092  0.2726  0.3780
20175SOL    HW165372   5.463   2.830   8.633 -0.1918 -0.2092 -0.9718
20175SOL    HW265373   5.610   2.797   8.642 -0.1162  0.6495  1.3874
20176SOL     OW65374   6.794   4.976   9.260 -0.1929  0.0043  0.2570
20176SOL    HW165375   6.882   4.992   9.292 -0.0134  0.2177 -0.3270
20176SOL    HW265376   6.738   5.033   9.312 -0.1065 -0.8205  1.2706
20177SOL     OW65377   7.996   4.323   9.325  0.0908  0.1926 -0.2481
20177SOL    HW165378   7.943   4.388   9.278 -0.2826  0.2257  0.2062
20177SOL    HW265379   8.086   4.352   9.313 -0.2142  2.3358  2.1829
20178SOL     OW65380   9.056   4.304   7.606  0.0795 -0.1867 -0.1242
20178SOL    HW165381   9.037   4.214   7.633  1.1450  0.3427  2.6274
20178SOL    HW265382   9.131   4.329   7.661  0.3823  2.0681 -1.5285
20179SOL     OW65383   5.967   4.674   0.581 -0.4648 -0.0829 -0.0418
20179SOL    HW165384   6.040   4.672   0.520  0.4863  1.8355  0.9901
20179SOL    HW265385   5.912   4.746   0.551 -1.3322 -0.7524 -0.1027
20180SOL     OW65386   6.272   2.376   9.287  0.1343  0.1641 -0.0499
20180SOL    HW165387   6.287   2.471   9.291 -1.9487  0.6232 -2.2650
20180SOL    HW265388   6.359   2.339   9.273  1.0542  1.6867  1.4387
20181SOL     OW65389   8.182   3.811   8.246 -0.2040  0.1025  0.3922
20181SOL    HW165390   8.276   3.806   8.231  0.5648  1.3013  4.1622
20181SOL    HW265391   8.148   3.724   8.224  1.4844  0.1221 -2.4899
20182SOL     OW65392   7.368   4.371   8.535  0.1141 -0.0162 -0.2735
20182SOL    HW165393   7.317   4.388   8.614  0.6187  3.2884 -0.5832
20182SOL    HW265394   7.304   4.340   8.471 -0.7751  0.0878  0.5622
20183SOL     OW65395   5.221   5.632   0.531  0.0387 -0.0460 -0.0595
20183SOL    HW165396   5.210   5.724   0.506 -1.1879 -0.0201  0.5381
20183SOL    HW265397   5.312   5.625   0.558  0.8519  0.4058 -2.4998
20184SOL     OW65398   3.443   5.608   1.795  0.5504 -0.4445 -0.5788
20184SOL    HW165399   3.487   5.524   1.789  0.3234 -0.5975 -0.1092
20184SOL    HW265400   3.356   5.588   1.830  0.9755  0.1436  0.8285
20185SOL     OW65401   6.411   7.005   0.907  0.4662 -0.4535  0.7063
20185SOL    HW165402   6.436   6.994   0.816 -1.4562 -2.6314  0.3987
20185SOL    HW265403   6.354   7.082   0.907  2.2437  0.8948  0.4666
20186SOL     OW65404   6.177   5.562   0.083  0.4893  0.0628  0.1022
20186SOL    HW165405   6.235   5.548   0.158 -1.2812 -0.1423  1.4648
20186SOL    HW265406   6.095   5.595   0.122 -0.2217  0.5752 -1.7959
20187SOL     OW65407   4.904   8.033   0.997 -0.0382  0.0804 -0.2806
20187SOL    HW165408   4.942   8.083   0.925  0.4010  0.8686  0.4895
20187SOL    HW265409   4.881   8.098   1.063 -0.4421 -0.6310  0.3004
20188SOL     OW65410   5.931   7.164   0.776 -0.3183  0.1656 -0.6262
20188SOL    HW165411   5.890   7.213   0.705 -1.0496  0.5931  0.0902
20188SOL    HW265412   5.951   7.229   0.843  0.3330 -0.2428 -0.4161
20189SOL     OW65413   6.780   5.965   1.328 -0.2371 -0.2028 -0.2165
20189SOL    HW165414   6.761   5.887   1.276  0.1515 -0.6948  0.3739
20189SOL    HW265415   6.839   6.017   1.273  1.1464 -1.2938  0.2362
20190SOL     OW65416   7.684   5.525   0.287  0.1004 -0.9456  1.2681
20190SOL    HW165417   7.773   5.536   0.252  0.2496 -2.3035  1.1935
20190SOL    HW265418   7.629   5.575   0.227  0.6544 -1.2213  0.5217
20191SOL     OW65419   7.081   5.192   9.397 -0.1456  0.5764  0.0440
20191SOL    HW165420   7.043   5.149   9.473  0.8746  0.5645  0.5574
20191SOL    HW265421   7.102   5.280   9.427  0.3282  0.5496 -0.1975
20192SOL     OW65422   7.316   7.155   1.142 -0.2435 -0.3099  0.5648
20192SOL    HW165423   7.348   7.232   1.095 -0.0766 -0.2766  0.7297
20192SOL    HW265424   7.377   7.085   1.119 -1.7906 -1.0380 -1.5458
20193SOL     OW65425   4.843   6.062   0.494 -0.3094 -0.3669 -0.0395
20193SOL    HW165426   4.821   5.969   0.484 -0.4348 -0.4531  1.0432
20193SOL    HW265427   4.921   6.073   0.439 -0.1066 -1.1837  0.0746
20194SOL     OW65428   5.025   7.158   1.143 -0.5521 -0.4435  0.0747
20194SOL    HW165429   4.971   7.237   1.140  0.0637 -0.0307 -0.3673
20194SOL    HW265430   5.029   7.129   1.052  2.4722  1.2723 -0.4176
20195SOL     OW65431   5.941   7.841   9.945 -0.4972  0.0270 -0.3315
20195SOL    HW165432   6.021   7.815   9.901 -1.0885  1.6137 -2.4571
20195SOL    HW265433   5.970   7.900  10.015  0.2034  0.5015 -1.0154
20196SOL     OW65434   9.126   6.999   2.823  0.4686  0.4102 -0.2339
20196SOL    HW165435   9.147   7.092   2.818  0.2901  0.4575 -0.1210
20196SOL    HW265436   9.132   6.978   2.916 -0.4580  0.5391 -0.1363
20197SOL     OW65437   5.213   5.892   0.412 -0.0619 -0.2038 -0.1461
20197SOL    HW165438   5.144   5.951   0.382 -1.0940 -0.4845  1.5804
20197SOL    HW265439   5.293   5.924   0.371 -0.8393  1.5862 -0.2721
20198SOL     OW65440   5.961   4.826   0.928 -0.8122  0.1495  0.5186
20198SOL    HW165441   5.967   4.909   0.880 -2.7864  0.7583  1.2346
20198SOL    HW265442   6.000   4.845   1.013  0.1344 -0.1143  0.1488
20199SOL     OW65443   7.373   7.871   9.911 -0.4649 -0.4073 -0.6270
20199SOL    HW165444   7.365   7.845   9.819  0.0959 -2.1565 -0.1939
20199SOL    HW265445   7.460   7.843   9.937  0.2916  2.2198 -0.1943
20200SOL     OW65446   6.421   6.061   1.638  0.0144  0.6074 -0.2281
20200SOL    HW165447   6.403   6.061   1.544 -0.0235  0.9030 -0.2212
20200SOL    HW265448   6.443   6.152   1.658 -0.3569  0.6203  0.1198
20201SOL     OW65449   6.251   6.839   0.744  0.1398  0.4280  0.3150
20201SOL    HW165450   6.158   6.829   0.729  0.2322  0.7172 -0.4957
20201SOL    HW265451   6.258   6.911   0.807 -0.1668  0.7332  0.0017
20202SOL     OW65452   3.252   6.824   0.692 -0.0087 -0.1912 -0.0907
20202SOL    HW165453   3.245   6.837   0.597 -1.5774  1.8787  0.2828
20202SOL    HW265454   3.165   6.795   0.719 -1.3950  4.9886  1.5257
20203SOL     OW65455   5.545   8.110   2.783 -0.1156 -0.3965  0.0032
20203SOL    HW165456   5.565   8.057   2.706  2.0614  0.1215  0.1762
20203SOL    HW265457   5.630   8.144   2.811 -0.8463 -0.7868  2.7826
20204SOL     OW65458   7.409   5.743   1.054  0.4760  0.0188  0.1136
20204SOL    HW165459   7.411   5.648   1.068  3.0979  0.2638  1.6621
20204SOL    HW265460   7.489   5.761   1.006 -1.0400  1.2292 -2.0521
20205SOL     OW65461   4.221   5.732   9.661 -0.1455 -0.2474  0.6542
20205SOL    HW165462   4.187   5.819   9.639 -0.8963 -1.0771 -1.6552
20205SOL    HW265463   4.170   5.705   9.737  0.8606  1.7607  2.0921
20206SOL     OW65464   7.323   7.755   9.651 -0.0334 -0.4048  0.0387
20206SOL    HW165465   7.350   7.670   9.686  1.0435 -0.3833 -0.6973
20206SOL    HW265466   7.247   7.736   9.596 -0.7634 -0.6575  1.1134
20207SOL     OW65467   5.760   7.828   9.107  0.4779 -0.5306 -0.1538
20207SOL    HW165468   5.806   7.872   9.035 -0.7963  1.3164  0.1167
20207SOL    HW265469   5.816   7.841   9.183 -0.3609  1.6087  0.1527
20208SOL     OW65470   8.102   5.514   0.391  0.0027  0.2053  0.4877
20208SOL    HW165471   8.049   5.517   0.311  1.2870  0.5105 -0.3543
20208SOL    HW265472   8.124   5.605   0.409  1.3953 -0.0425  0.0630
20209SOL     OW65473   4.955   7.817   1.403  0.1470 -0.2287 -0.4105
20209SOL    HW165474   5.035   7.870   1.398  0.5610 -0.8273 -0.2428
20209SOL    HW265475   4.886   7.874   1.370  0.1069  1.3492  2.3092
20210SOL     OW65476   6.251   7.654   0.691 -0.6078 -0.0536 -0.3921
20210SOL    HW165477   6.249   7.643   0.595  1.1944  0.1011 -0.4654
20210SOL    HW265478   6.324   7.599   0.719 -0.4635  0.7403  0.7934
20211SOL     OW65479   8.657   6.285   2.615  0.0924  0.5152  0.2075
20211SOL    HW165480   8.742   6.240   2.623 -0.4478 -0.7287 -0.8214
20211SOL    HW265481   8.602   6.243   2.681 -0.7917 -1.2648 -1.6260
20212SOL     OW65482   7.324   6.822   1.132  0.2998 -0.5384  0.0867
20212SOL    HW165483   7.269   6.795   1.058  0.8682 -1.0210 -0.1599
20212SOL    HW265484   7.383   6.888   1.096 -0.8087  0.7625  0.5935
20213SOL     OW65485   6.512   7.071   2.402 -0.1051  0.5576  0.2210
20213SOL    HW165486   6.557   7.107   2.478 -2.1722  3.6186  0.0594
20213SOL    HW265487   6.578   7.069   2.333  1.1167  0.0864  1.3869
20214SOL     OW65488   5.074   7.054   0.140  0.2427 -0.0575  0.0253
20214SOL    HW165489   5.161   7.032   0.174  0.2282 -0.6857 -0.3480
20214SOL    HW265490   5.066   7.148   0.156  1.5622  0.2854 -1.2180
20215SOL     OW65491   7.071   6.926   1.927  0.0963  0.0598 -0.1644
20215SOL    HW165492   7.005   6.923   1.858 -0.6799  0.1569  0.5708
20215SOL    HW265493   7.105   7.015   1.924 -0.9615  0.4908  0.5297
20216SOL     OW65494   8.365   6.638   1.725 -0.0740 -0.3378  0.1880
20216SOL    HW165495   8.334   6.616   1.813 -0.6953 -0.0892  0.0371
20216SOL    HW265496   8.454   6.603   1.722 -0.3083 -0.9993  0.6617
20217SOL     OW65497   5.168   6.529   0.009  0.2352 -0.2936  0.2536
20217SOL    HW165498   5.205   6.609  -0.029 -2.3805  1.3216  0.9501
20217SOL    HW265499   5.089   6.559   0.053  0.5849 -2.8952  2.7667
20218SOL     OW65500   7.746   5.175   9.826  0.0029  0.2586 -0.1617
20218SOL    HW165501   7.723   5.192   9.734 -1.0369 -0.0406  0.0318
20218SOL    HW265502   7.665   5.192   9.874  0.8180  1.4423  0.8366
20219SOL     OW65503   6.776   6.528   9.858 -0.6792  0.3585 -0.4923
20219SOL    HW165504   6.773   6.617   9.893  0.3966 -0.5410  1.9966
20219SOL    HW265505   6.852   6.528   9.799  0.8674  0.4633  1.4409
20220SOL     OW65506   5.968   6.026   0.154  0.1647  0.9420  0.0725
20220SOL    HW165507   5.975   6.022   0.058  0.5377 -0.5289  0.1364
20220SOL    HW265508   5.904   6.094   0.171  0.1332  1.2551 -1.2302
20221SOL     OW65509   8.341   6.245   1.867 -0.0355  0.4270 -0.2603
20221SOL    HW165510   8.408   6.195   1.820 -2.0618 -2.2831 -0.4395
20221SOL    HW265511   8.260   6.225   1.820 -1.5070  0.7309  2.0798
20222SOL     OW65512   7.301   7.501   1.931 -0.2490  0.2099  0.1352
20222SOL    HW165513   7.344   7.576   1.890  0.4828 -0.4076 -0.2398
20222SOL    HW265514   7.223   7.486   1.878 -0.0680  0.3200 -0.1627
20223SOL     OW65515   6.924   5.771   0.931  0.1152  0.3166  0.9048
20223SOL    HW165516   6.997   5.800   0.986  1.1844  0.5763 -0.6166
20223SOL    HW265517   6.846   5.806   0.975  1.0721  1.8780  1.4071
20224SOL     OW65518   8.669   6.895   0.068 -0.0876  0.3144  0.5135
20224SOL    HW165519   8.637   6.809   0.042 -0.5378  0.4123  0.7382
20224SOL    HW265520   8.737   6.877   0.134  1.9670  0.0104 -1.6239
20225SOL     OW65521   5.807   6.339   1.625 -0.0611  0.8701  0.9326
20225SOL    HW165522   5.796   6.371   1.715 -0.8097  0.7939  0.8717
20225SOL    HW265523   5.759   6.256   1.624  1.2661  0.0832  0.8939
20226SOL     OW65524   6.723   5.434   9.542 -0.0623  0.1711 -0.9611
20226SOL    HW165525   6.654   5.481   9.588 -0.2304  0.0010 -1.0347
20226SOL    HW265526   6.804   5.478   9.566  0.0226 -0.8122  0.6637
20227SOL     OW65527   7.566   7.169   2.050  0.0095 -0.6715  0.4739
20227SOL    HW165528   7.618   7.099   2.011  0.0248 -0.2534 -0.2569
20227SOL    HW265529   7.624   7.244   2.053 -1.1314  0.3993 -2.2470
20228SOL     OW65530   7.070   5.478   0.986  0.1854  0.3748  0.0546
20228SOL    HW165531   7.050   5.506   0.896  0.1527  2.1181  0.5883
20228SOL    HW265532   6.996   5.511   1.038  0.1286 -0.7592  0.7044
20229SOL     OW65533   4.893   4.604   1.114 -0.0720  0.4061  0.0908
20229SOL    HW165534   4.856   4.628   1.199  0.4979 -0.5311  0.6153
20229SOL    HW265535   4.955   4.674   1.094  0.4660  0.1638  0.8892
20230SOL     OW65536   4.996   8.943   1.175  0.3514  0.8648  0.2697
20230SOL    HW165537   4.991   8.850   1.197 -1.3221  0.6415 -0.9148
20230SOL    HW265538   4.984   8.988   1.258 -1.1031  0.0123  0.5473
20231SOL     OW65539   5.883   8.963   0.445  0.6582 -0.0440 -0.2412
20231SOL    HW165540   5.855   8.875   0.420 -0.9817  0.2624  0.4582
20231SOL    HW265541   5.816   9.021   0.409  1.3260  0.8572 -0.0566
20232SOL     OW65542   5.576   6.078   0.397  0.3388  0.5944 -0.2712
20232SOL    HW165543   5.520   6.048   0.325  1.1005  0.0834 -0.6611
20232SOL    HW265544   5.532   6.155   0.431 -0.4150  0.4135 -0.8140
20233SOL     OW65545   7.124   7.177   0.877 -0.0713 -0.4459 -0.2744
20233SOL    HW165546   7.124   7.143   0.966 -0.7567 -0.0109 -0.1062
20233SOL    HW265547   7.217   7.185   0.854  0.1005 -0.8557  0.2805
20234SOL     OW65548   4.980   6.774   1.106 -0.4961  0.0570 -1.0128
20234SOL    HW165549   5.034   6.805   1.033 -1.4664 -0.2560 -1.8747
20234SOL    HW265550   4.892   6.767   1.069 -1.1689  0.7404  0.4275
20235SOL     OW65551   5.412   6.665   0.886  0.1841 -0.2649 -0.1755
20235SOL    HW165552   5.402   6.729   0.816 -0.7172 -0.3494 -0.1271
20235SOL    HW265553   5.468   6.708   0.951  0.0628  0.2508 -0.4142
20236SOL     OW65554   7.519   6.997   1.038  0.0709 -0.4196 -0.2166
20236SOL    HW165555   7.545   7.082   1.003 -0.3859 -1.4189 -3.0827
20236SOL    HW265556   7.590   6.938   1.015 -0.5163 -1.2407  0.0501
20237SOL     OW65557   5.205   7.630   9.465 -0.0364 -0.2082  0.3821
20237SOL    HW165558   5.229   7.722   9.456 -1.2958  0.2153  1.2587
20237SOL    HW265559   5.189   7.618   9.558 -0.5512 -1.1465  0.1816
20238SOL     OW65560   7.502   5.310   0.373 -0.3648  0.3975  0.4275
20238SOL    HW165561   7.534   5.221   0.389 -1.4370  0.2367  1.8125
20238SOL    HW265562   7.566   5.348   0.312  0.5825 -1.0189  0.5052
20239SOL     OW65563   5.203   7.377   0.233  0.3749 -1.0803  0.0540
20239SOL    HW165564   5.210   7.391   0.138  2.6512  1.9070  0.5782
20239SOL    HW265565   5.278   7.323   0.255  2.5330  2.0555  0.7347
20240SOL     OW65566   5.308   9.003   0.883 -0.8180  0.1450 -0.3759
20240SOL    HW165567   5.216   9.029   0.882 -0.6323  1.3216  3.4756
20240SOL    HW265568   5.310   8.928   0.943  0.6600 -0.2807 -0.9422
20241SOL     OW65569   7.317   7.515   9.807  0.1180 -0.7052 -0.2245
20241SOL    HW165570   7.273   7.546   9.886  0.2520 -1.1308  0.0197
20241SOL    HW265571   7.406   7.496   9.835  0.7579  1.1622 -0.9542
20242SOL     OW65572   6.983   8.016   2.060 -0.3795 -0.0723 -0.3914
20242SOL    HW165573   6.937   7.937   2.032  1.1126 -0.8791 -0.6247
20242SOL    HW265574   6.978   8.075   1.985 -0.1481 -0.5677 -0.8044
20243SOL     OW65575   5.721   5.729   0.032 -0.0431  0.6625 -0.0390
20243SOL    HW165576   5.675   5.656   0.074  2.3006 -1.1852 -0.6353
20243SOL    HW265577   5.769   5.690  -0.040  1.3410  2.7922 -0.3153
20244SOL     OW65578   5.796   8.126   0.885  0.0881 -0.1813  0.5077
20244SOL    HW165579   5.886   8.157   0.895  0.3840 -1.1682  1.0635
20244SOL    HW265580   5.764   8.115   0.975  0.1362 -1.8096  0.3533
20245SOL     OW65581   6.501   6.806   9.712 -1.2571 -0.1964  0.1532
20245SOL    HW165582   6.497   6.901   9.726 -1.1164 -0.3575  1.3054
20245SOL    HW265583   6.431   6.771   9.767  0.2315 -0.9575  1.5897
20246SOL     OW65584   7.060   7.507   1.525  0.3535  0.6238 -0.4092
20246SOL    HW165585   7.130   7.506   1.590  0.1116  2.0365 -0.1099
20246SOL    HW265586   7.082   7.579   1.466  0.4884 -0.5377 -1.8198
20247SOL     OW65587   5.907   6.172   0.739 -0.1408  0.1756 -0.4548
20247SOL    HW165588   5.857   6.243   0.698  0.7011  1.3736  0.5272
20247SOL    HW265589   5.885   6.178   0.832  0.0537 -0.7772 -0.3413
20248SOL     OW65590   7.837   4.696   1.147  0.1423  0.0261 -0.0952
20248SOL    HW165591   7.820   4.611   1.107 -0.6688  0.4946 -0.7701
20248SOL    HW265592   7.789   4.758   1.092  2.3557  1.1605 -0.7758
20249SOL     OW65593   5.257   4.989   0.045  0.4369 -0.7821  0.3411
20249SOL    HW165594   5.303   4.925  -0.009  1.2173  0.2423 -0.1978
20249SOL    HW265595   5.230   5.058  -0.015 -1.6854 -1.2723  0.6613
20250SOL     OW65596   5.929   8.350   2.152 -0.4489 -0.6892  0.1608
20250SOL    HW165597   5.879   8.338   2.072 -0.6180  0.0279  0.1524
20250SOL    HW265598   5.877   8.412   2.204  1.3210  1.5424 -0.6413
20251SOL     OW65599   5.568   5.374   2.610 -0.1409  0.2572  0.0609
20251SOL    HW165600   5.501   5.430   2.569 -1.4397 -1.1727  0.1669
20251SOL    HW265601   5.594   5.314   2.540 -0.5446 -0.5743  0.6095
20252SOL     OW65602   7.462   5.818   0.303 -0.2405 -0.1535 -0.7507
20252SOL    HW165603   7.433   5.760   0.373 -2.7970  1.4016 -0.4878
20252SOL    HW265604   7.517   5.883   0.346 -1.7506  0.7579 -0.1806
20253SOL     OW65605   6.298   7.693   0.181 -0.6063 -0.0855  0.4277
20253SOL    HW165606   6.290   7.691   0.276  3.4479  0.9696  0.8771
20253SOL    HW265607   6.325   7.783   0.161 -2.2985 -0.0189 -1.8593
20254SOL     OW65608   5.110   7.606   0.650  1.1347  0.2379  0.0059
20254SOL    HW165609   5.021   7.612   0.686  1.8811  3.3421  1.5284
20254SOL    HW265610   5.166   7.632   0.723  3.2195 -0.4615 -1.3259
20255SOL     OW65611   6.482   6.275   2.677  0.2570  0.5637  0.2528
20255SOL    HW165612   6.497   6.266   2.583 -2.9850  3.2863 -0.6464
20255SOL    HW265613   6.482   6.186   2.710  0.5665 -0.5217 -2.5075
20256SOL     OW65614   7.322   4.917   0.415  0.0446  0.2718 -0.2477
20256SOL    HW165615   7.389   4.879   0.359 -1.3155 -0.6211 -1.3158
20256SOL    HW265616   7.291   4.994   0.368 -0.3733  0.1149 -0.2320
20257SOL     OW65617   4.844   6.395   0.262 -0.0194 -0.4495 -0.0022
20257SOL    HW165618   4.871   6.395   0.353 -0.0118 -0.6533 -0.0047
20257SOL    HW265619   4.898   6.463   0.221 -1.2951  0.8797  0.5166
20258SOL     OW65620   5.371   6.125   1.159 -0.1918  0.0435 -0.3683
20258SOL    HW165621   5.357   6.074   1.080  2.2845  0.2589 -0.9990
20258SOL    HW265622   5.320   6.205   1.146  2.7874  1.5831 -3.2795
20259SOL     OW65623   5.223   7.929   1.437 -0.2029  0.2364 -0.0384
20259SOL    HW165624   5.241   7.902   1.347  0.0466  0.2627  0.0027
20259SOL    HW265625   5.181   8.015   1.429 -1.7948 -0.5543 -0.2094
20260SOL     OW65626   5.889   6.864   9.439 -0.0989 -0.6340  0.6116
20260SOL    HW165627   5.891   6.828   9.527  0.5921 -2.6940 -0.2318
20260SOL    HW265628   5.801   6.844   9.407  0.2124 -1.4142  0.2233
20261SOL     OW65629   7.430   6.064   1.407  0.3864 -0.0090  0.0396
20261SOL    HW165630   7.495   6.084   1.474  0.5153  2.2483 -0.7337
20261SOL    HW265631   7.474   6.003   1.347  1.2227  0.2153  0.4270
20262SOL     OW65632   7.560   7.100   0.156  0.0843 -0.6460 -0.5108
20262SOL    HW165633   7.651   7.074   0.169 -0.5569 -2.6476  0.1959
20262SOL    HW265634   7.509   7.022   0.181 -1.8215  0.5105 -0.6927
20263SOL     OW65635   7.023   6.974   9.229 -0.3364 -0.1533  0.5944
20263SOL    HW165636   6.949   7.028   9.255 -0.2278 -0.3675  1.3455
20263SOL    HW265637   7.079   6.969   9.306 -0.8601 -2.1955  0.8847
20264SOL     OW65638   6.984   6.800   9.822 -0.7935  0.3051 -0.2538
20264SOL    HW165639   6.926   6.807   9.897 -1.4904 -2.0918 -0.5322
20264SOL    HW265640   7.025   6.886   9.815 -0.9423  0.6553  2.6645
20265SOL     OW65641   8.143   7.781   9.611 -0.0494 -0.0481  0.8792
20265SOL    HW165642   8.201   7.840   9.563  0.0788 -0.4673  0.5134
20265SOL    HW265643   8.081   7.749   9.546 -1.0360  0.8146  1.3847
20266SOL     OW65644   5.767   6.678   0.462  0.2231 -0.7945 -0.4181
20266SOL    HW165645   5.751   6.772   0.472 -0.3955 -0.9248 -0.1568
20266SOL    HW265646   5.852   6.672   0.420  0.6409 -0.1253  0.3253
20267SOL     OW65647   6.051   4.736   9.694  0.0114  0.2000 -0.1335
20267SOL    HW165648   5.960   4.743   9.723 -0.4616 -4.2282 -0.2150
20267SOL    HW265649   6.102   4.749   9.774 -0.7557  0.8419  0.2593
20268SOL     OW65650   7.287   5.182   2.531  0.8808  0.0578  0.5862
20268SOL    HW165651   7.196   5.198   2.558  0.5678 -1.6502  0.6252
20268SOL    HW265652   7.311   5.260   2.482 -1.1162 -0.0766 -0.6778
20269SOL     OW65653   6.265   5.787   0.441 -0.7404  0.0197  0.3529
20269SOL    HW165654   6.256   5.863   0.499 -0.9586  0.4513 -0.2451
20269SOL    HW265655   6.311   5.722   0.495 -0.5559  0.5683  0.8713
20270SOL     OW65656   7.135   7.799   2.754  0.1310 -0.6315  0.1927
20270SOL    HW165657   7.194   7.728   2.730 -0.7274 -0.8184 -1.4478
20270SOL    HW265658   7.168   7.875   2.705  1.2057  0.1897  2.1397
20271SOL     OW65659   7.014   6.133   9.902  0.1480  0.6040  0.0768
20271SOL    HW165660   6.993   6.082   9.980 -0.1303 -1.3348 -1.2475
20271SOL    HW265661   6.930   6.167   9.873  0.0577  0.1548 -0.1861
20272SOL     OW65662   7.306   6.235   2.509 -0.2234 -0.7775  0.0959
20272SOL    HW165663   7.274   6.181   2.436 -2.0948 -2.1670  1.9154
20272SOL    HW265664   7.320   6.322   2.470 -3.7938 -0.7804 -1.3333
20273SOL     OW65665   7.184   7.144   2.248 -0.2230  0.4600 -0.6710
20273SOL    HW165666   7.110   7.090   2.277  0.8616 -1.0063 -0.5577
20273SOL    HW265667   7.151   7.234   2.249 -0.9399  0.2111  2.7887
20274SOL     OW65668   5.292   7.122   2.069 -0.3269  0.1951  0.2225
20274SOL    HW165669   5.214   7.158   2.111  0.3608  0.6374  1.1341
20274SOL    HW265670   5.351   7.100   2.141  0.4167 -0.1029 -0.4568
20275SOL     OW65671   6.458   7.432   1.057  0.4265  0.2857  0.3731
20275SOL    HW165672   6.525   7.364   1.046  0.0909  0.1016 -0.6116
20275SOL    HW265673   6.506   7.515   1.048  0.3785  0.1497 -1.3273
20276SOL     OW65674   6.942   6.745   0.690  0.5228 -0.4424  0.0147
20276SOL    HW165675   7.008   6.801   0.649 -0.9213  1.8606  0.7144
20276SOL    HW265676   6.905   6.694   0.618 -0.6712  2.1738 -1.2945
20277SOL     OW65677   7.747   4.548   0.316 -0.0929  0.1966  0.1969
20277SOL    HW165678   7.665   4.520   0.275  0.2442 -2.0212  0.9429
20277SOL    HW265679   7.737   4.525   0.408  0.9844  0.8051  0.4717
20278SOL     OW65680   3.393   7.496   0.392 -0.0901 -0.0288  0.0354
20278SOL    HW165681   3.425   7.553   0.322  2.2924 -0.8293  0.4603
20278SOL    HW265682   3.392   7.552   0.470  0.6518 -0.1279  0.1107
20279SOL     OW65683   5.647   5.016   0.589  0.1117 -0.6532  0.2189
20279SOL    HW165684   5.717   5.063   0.544 -0.5667  2.3585  2.1690
20279SOL    HW265685   5.693   4.958   0.650  0.9541 -0.1987  0.0250
20280SOL     OW65686   6.979   5.848   8.693 -0.3425 -0.0996 -0.3530
20280SOL    HW165687   7.073   5.837   8.701 -0.2783 -0.1771 -1.1949
20280SOL    HW265688   6.943   5.813   8.775  0.2358 -1.5668 -0.7297
20281SOL     OW65689   7.147   6.670   1.313  0.5371 -0.4579 -0.0067
20281SOL    HW165690   7.197   6.736   1.265 -0.0185 -0.3753 -0.4819
20281SOL    HW265691   7.076   6.720   1.354  0.0869 -0.7695 -0.4061
20282SOL     OW65692   4.906   7.379   0.966 -0.0137 -0.4189  0.1325
20282SOL    HW165693   4.883   7.433   0.890 -0.6200 -0.3925  0.3350
20282SOL    HW265694   4.933   7.442   1.033  2.1648 -0.5247 -0.6085
20283SOL     OW65695   8.293   6.174   1.359  0.1180  0.5743 -0.1197
20283SOL    HW165696   8.210   6.127   1.366 -0.4385  1.6723  0.9254
20283SOL    HW265697   8.359   6.106   1.357 -0.7969 -0.3149 -0.8249
20284SOL     OW65698   6.045   5.705   1.068  0.4776  0.1181  0.2166
20284SOL    HW165699   6.097   5.783   1.049  1.9943 -1.0056 -0.3746
20284SOL    HW265700   6.094   5.633   1.029 -0.8603 -1.1556  0.8050
20285SOL     OW65701   4.612   6.871   1.401  0.4589 -0.0636 -0.6994
20285SOL    HW165702   4.545   6.921   1.354 -0.1386 -2.3015 -2.3182
20285SOL    HW265703   4.646   6.809   1.337  3.0142 -0.0297  0.5486
20286SOL     OW65704   7.559   5.861   0.586 -0.3451 -0.3102  0.1069
20286SOL    HW165705   7.555   5.912   0.666 -4.2182  1.4185 -1.0812
20286SOL    HW265706   7.488   5.797   0.594 -0.6787 -0.2251 -1.8459
20287SOL     OW65707   7.580   5.355   2.588  0.2905 -0.5891  0.0245
20287SOL    HW165708   7.543   5.320   2.507 -1.0046 -0.9004  0.7372
20287SOL    HW265709   7.600   5.446   2.568 -2.5570  0.1095  0.1245
20288SOL     OW65710   6.155   6.451   1.034 -0.5704  0.2941  0.1094
20288SOL    HW165711   6.067   6.485   1.016 -0.6486 -0.4752 -1.0331
20288SOL    HW265712   6.211   6.494   0.970 -0.4821 -0.8654 -0.6005
20289SOL     OW65713   5.070   6.194   0.645 -0.1142 -1.1491  0.1386
20289SOL    HW165714   5.120   6.216   0.566 -1.3228  1.7881  0.1264
20289SOL    HW265715   4.987   6.160   0.611  1.1692 -4.5818  0.1772
20290SOL     OW65716   7.736   5.924   2.859 -0.5676  0.4170 -0.1096
20290SOL    HW165717   7.812   5.979   2.837 -1.7224  1.1455 -2.4295
20290SOL    HW265718   7.771   5.835   2.862  0.3789  0.7453 -1.1903
20291SOL     OW65719   7.202   6.062   1.857  0.0664 -0.4441 -0.1255
20291SOL    HW165720   7.227   6.064   1.765  1.5342 -1.2839  0.2374
20291SOL    HW265721   7.198   5.968   1.879  1.3592 -0.2408  1.0779
20292SOL     OW65722   6.041   5.373   9.254  0.3200 -0.0376 -0.2656
20292SOL    HW165723   6.031   5.389   9.348 -0.8445 -2.6385  0.0879
20292SOL    HW265724   6.114   5.311   9.248 -0.2508 -0.6433 -1.0038
20293SOL     OW65725   4.955   7.552   1.379  0.0624  0.0559  0.2618
20293SOL    HW165726   5.012   7.538   1.304  0.2042  0.6332  0.2622
20293SOL    HW265727   4.949   7.647   1.388 -0.8768  0.0000  0.2770
20294SOL     OW65728   6.481   6.335   1.725 -0.7432 -0.1026  0.2229
20294SOL    HW165729   6.420   6.406   1.704  0.1321  0.6009  0.0198
20294SOL    HW265730   6.563   6.360   1.683  0.3685  0.1227  2.4228
20295SOL     OW65731   7.667   7.200   1.737 -0.0626  0.2549 -0.5899
20295SOL    HW165732   7.577   7.190   1.768 -0.2575  0.5883 -1.0323
20295SOL    HW265733   7.689   7.291   1.757  0.6026 -0.1706  0.6126
20296SOL     OW65734   6.483   5.795   1.020 -0.2023 -0.4430 -0.2103
20296SOL    HW165735   6.442   5.719   0.979 -0.2496 -0.1609 -0.6906
20296SOL    HW265736   6.464   5.868   0.960 -0.7389  0.0775  0.5840
20297SOL     OW65737   6.602   7.669   0.737 -0.7124 -0.1757  0.1196
20297SOL    HW165738   6.563   7.586   0.708 -1.6488 -0.1935  1.4227
20297SOL    HW265739   6.549   7.697   0.811 -2.8390  3.6081 -2.6637
20298SOL     OW65740   8.008   5.804   1.730 -0.1114 -0.4212  0.5062
20298SOL    HW165741   8.042   5.715   1.737  0.0248 -0.4399 -0.3687
20298SOL    HW265742   8.005   5.822   1.636  2.3110  1.4365  0.7293
20299SOL     OW65743   8.280   7.288   1.979 -0.4117  0.4602 -0.4136
20299SOL    HW165744   8.359   7.238   1.957 -0.1379  1.1033 -0.9444
20299SOL    HW265745   8.269   7.276   2.073  0.4485  0.5298 -0.2947
20300SOL     OW65746   7.929   6.807   0.766 -0.3615  0.5547  0.1874
20300SOL    HW165747   8.009   6.859   0.764  0.6378 -0.9662 -0.6760
20300SOL    HW265748   7.901   6.801   0.675 -0.5835 -0.2237  0.2972
20301SOL     OW65749   6.584   5.010   0.053  0.2225 -0.0514 -0.2058
20301SOL    HW165750   6.554   5.095   0.087  0.5743 -0.0596  0.1254
20301SOL    HW265751   6.515   4.984  -0.008 -0.0266  0.3405 -0.0995
20302SOL     OW65752   7.553   6.030   9.645 -0.2939 -0.1868  0.1984
20302SOL    HW165753   7.604   5.950   9.627 -0.6921 -0.6888  1.2655
20302SOL    HW265754   7.468   6.013   9.605 -0.0904  0.0672 -0.3434
20303SOL     OW65755   6.739   6.011   1.595  0.9454  0.1816  0.7970
20303SOL    HW165756   6.647   5.987   1.604  1.5494 -1.6644  2.4769
20303SOL    HW265757   6.761   5.987   1.505  0.1720 -0.7918  0.8555
20304SOL     OW65758   6.042   7.667   1.957  0.2312 -0.3177  0.5517
20304SOL    HW165759   6.077   7.618   1.883  1.7199 -0.5491  1.4030
20304SOL    HW265760   6.074   7.756   1.944 -2.4577  0.5014 -0.9877
20305SOL     OW65761   5.399   6.394   0.774 -0.2522  0.0120 -0.0769
20305SOL    HW165762   5.311   6.361   0.794 -0.7306  0.3142 -1.6161
20305SOL    HW265763   5.401   6.482   0.812 -1.5078  0.9774 -2.1359
20306SOL     OW65764   6.984   7.074   0.594 -0.1464  0.1844 -0.2757
20306SOL    HW165765   7.060   7.054   0.539 -1.0332 -0.5551 -1.2708
20306SOL    HW265766   6.922   7.116   0.534 -1.9681 -2.5301 -0.3796
20307SOL     OW65767   5.432   6.264   0.520 -0.0602 -0.9145 -0.1171
20307SOL    HW165768   5.414   6.324   0.592  0.0335 -2.3370  1.1286
20307SOL    HW265769   5.348   6.250   0.478 -0.3988 -1.2853  0.6816
20308SOL     OW65770   4.149   6.679   9.902 -0.2085 -0.2519 -0.2975
20308SOL    HW165771   4.198   6.702   9.981  0.8287  0.8777 -1.2592
20308SOL    HW265772   4.071   6.734   9.906  0.8462  1.3178 -1.0998
20309SOL     OW65773   6.184   7.086   9.516  0.6169 -0.1505 -0.8681
20309SOL    HW165774   6.152   7.176   9.509 -2.0881 -1.0814 -1.0171
20309SOL    HW265775   6.141   7.051   9.594 -0.7910 -2.2343 -2.5039
20310SOL     OW65776   5.747   7.491   0.266 -0.4325  0.5791 -0.1953
20310SOL    HW165777   5.696   7.572   0.255 -0.3436  0.7191  0.4487
20310SOL    HW265778   5.706   7.446   0.340  0.5475  0.8216  0.4974
20311SOL     OW65779   7.981   6.558   1.481  0.4392  0.1300  1.4278
20311SOL    HW165780   8.075   6.572   1.488  0.9930 -1.6851 -1.3110
20311SOL    HW265781   7.967   6.473   1.523  0.4224 -0.6641 -0.1392
20312SOL     OW65782   5.340   8.357   0.080  0.4808  0.2652 -0.5498
20312SOL    HW165783   5.352   8.309  -0.001 -0.2843 -0.5598 -0.1786
20312SOL    HW265784   5.381   8.303   0.148  1.7520  1.2860 -0.4709
20313SOL     OW65785   4.775   5.426   9.895 -0.3851  0.1226  0.3710
20313SOL    HW165786   4.765   5.332   9.887  1.7018  0.0309 -1.9572
20313SOL    HW265787   4.794   5.441   9.988  0.8265 -1.9391  0.4760
20314SOL     OW65788   6.587   8.565   2.602  0.6180 -0.4840  0.3770
20314SOL    HW165789   6.593   8.508   2.679  0.0537 -1.1534 -0.0696
20314SOL    HW265790   6.603   8.653   2.636 -3.1590 -0.3175  1.8885
20315SOL     OW65791   5.727   7.581   2.449  0.1044  0.0011  0.1933
20315SOL    HW165792   5.787   7.541   2.511  0.2169 -0.7460 -0.3908
20315SOL    HW265793   5.640   7.567   2.487  0.2823  0.9772  0.9773
20316SOL     OW65794   8.386   8.439   1.630  0.0119 -0.2993  0.0946
20316SOL    HW165795   8.302   8.484   1.641  0.7051  0.8514  0.7232
20316SOL    HW265796   8.375   8.357   1.679 -1.3913 -1.0354 -1.3946
20317SOL     OW65797   5.888   6.201   2.566  0.0933  0.3473 -0.0437
20317SOL    HW165798   5.842   6.120   2.543  0.7977  0.5760 -2.4870
20317SOL    HW265799   5.944   6.177   2.640 -1.4585 -0.7712  0.8022
20318SOL     OW65800   4.390   6.688   1.269 -0.4482 -0.0002 -0.0498
20318SOL    HW165801   4.354   6.774   1.252  1.1542  0.8196  0.6072
20318SOL    HW265802   4.373   6.638   1.188  0.7542  1.6644 -1.3618
20319SOL     OW65803   5.500   7.571   0.856  0.0873  0.1577 -0.4513
20319SOL    HW165804   5.595   7.576   0.870  0.3677 -0.9828 -1.8567
20319SOL    HW265805   5.488   7.593   0.764 -1.1126  1.1511 -0.0743
20320SOL     OW65806   7.372   5.591   9.836  0.7351  0.1620  0.0864
20320SOL    HW165807   7.388   5.507   9.878  0.9540 -0.0092 -0.3306
20320SOL    HW265808   7.278   5.607   9.847  1.0991  0.9529  2.1397
20321SOL     OW65809   3.794   7.253   0.709  0.2980 -0.3774 -0.4005
20321SOL    HW165810   3.840   7.227   0.629  0.0070 -0.4443 -0.5460
20321SOL    HW265811   3.702   7.259   0.684  0.4157  1.3297 -0.5066
20322SOL     OW65812   6.577   6.475   0.321  0.4228 -0.3373 -0.3437
20322SOL    HW165813   6.514   6.416   0.364  0.0243  1.2130  1.2608
20322SOL    HW265814   6.661   6.455   0.364  0.3813 -0.1055 -0.1500
20323SOL     OW65815   7.529   7.332   0.532 -0.4735  0.6437  0.5080
20323SOL    HW165816   7.486   7.247   0.543  1.1778 -0.1559  0.9157
20323SOL    HW265817   7.460   7.396   0.550 -1.6307 -0.6098  0.6183
20324SOL     OW65818   6.730   7.283   0.710 -0.2596 -0.2832  0.1866
20324SOL    HW165819   6.722   7.374   0.680  0.8780  0.0018  0.7431
20324SOL    HW265820   6.705   7.231   0.633  0.2645  0.4750 -0.5050
20325SOL     OW65821   7.389   7.932   2.015  0.6187 -0.0676 -0.2042
20325SOL    HW165822   7.343   7.854   2.046 -0.8573  0.9441  0.2087
20325SOL    HW265823   7.353   8.003   2.068  1.3491  1.0132 -1.1498
20326SOL     OW65824   6.257   5.985   2.653 -0.2563 -0.4483  0.5717
20326SOL    HW165825   6.326   5.920   2.644 -1.1729 -1.7161  2.3671
20326SOL    HW265826   6.192   5.960   2.588 -0.1330 -0.7034  0.5467
20327SOL     OW65827   7.423   6.703   2.814 -0.0426  0.2608 -0.2558
20327SOL    HW165828   7.497   6.764   2.815  0.4460 -0.3424  0.0671
20327SOL    HW265829   7.376   6.721   2.895  2.3544 -2.5514  1.8660
20328SOL     OW65830   6.189   5.932   1.423 -0.5614 -0.2976  0.6672
20328SOL    HW165831   6.164   5.991   1.494 -0.7612 -0.0175  0.3652
20328SOL    HW265832   6.133   5.856   1.434 -2.4232  0.8301 -0.7237
20329SOL     OW65833   7.297   5.144   2.163  0.1857  0.2000  0.6929
20329SOL    HW165834   7.341   5.076   2.213  1.0653  0.6755  0.5899
20329SOL    HW265835   7.205   5.117   2.159  0.5186 -0.9454  0.6949
20330SOL     OW65836   6.025   7.850   0.775 -1.0784  0.1160  0.6589
20330SOL    HW165837   6.009   7.944   0.766 -3.1986  0.0472  2.9110
20330SOL    HW265838   6.035   7.819   0.686  0.0391  2.5261 -0.1133
20331SOL     OW65839   5.824   7.632   1.232  0.1068 -0.1125  0.1303
20331SOL    HW165840   5.907   7.638   1.280  0.2709  0.9147 -0.2840
20331SOL    HW265841   5.778   7.560   1.275  1.2313 -0.7427  0.3300
20332SOL     OW65842   6.908   5.131   0.664  0.7495  0.5356 -0.1654
20332SOL    HW165843   6.962   5.146   0.587  0.1032  0.3652 -0.6530
20332SOL    HW265844   6.878   5.218   0.690  1.4050  0.6547  0.2261
20333SOL     OW65845   3.900   9.407   1.221  0.1833  0.4673  0.4840
20333SOL    HW165846   3.806   9.393   1.234  0.0982 -0.4063 -0.9392
20333SOL    HW265847   3.905   9.469   1.149  0.6940  1.2017  1.1480
20334SOL     OW65848   6.784   7.507   0.572  0.3473  0.0314 -0.6261
20334SOL    HW165849   6.874   7.476   0.570  0.9484  1.6656  0.3575
20334SOL    HW265850   6.791   7.603   0.580 -1.4572  0.0600  1.1923
20335SOL     OW65851   6.478   9.007   1.618 -0.6035 -0.5562 -0.2694
20335SOL    HW165852   6.553   9.040   1.569 -1.8215  1.9650 -0.5326
20335SOL    HW265853   6.415   8.981   1.551 -1.6277  1.3776 -0.1087
20336SOL     OW65854   8.087   4.962   1.445  0.1611  0.1616 -0.7354
20336SOL    HW165855   8.155   4.902   1.474 -0.6039 -0.5373 -0.3485
20336SOL    HW265856   8.125   5.049   1.458  1.1199 -0.2246 -0.9020
20337SOL     OW65857   6.802   6.969   9.414 -0.3528 -0.0225  1.3115
20337SOL    HW165858   6.749   6.942   9.489 -0.0520  0.8725  1.8598
20337SOL    HW265859   6.761   7.051   9.384 -2.0197 -1.6671 -1.1006
20338SOL     OW65860   7.940   7.790   0.094 -0.2566  0.1582  0.0804
20338SOL    HW165861   8.034   7.807   0.097 -0.5306  1.6096  0.8123
20338SOL    HW265862   7.928   7.732   0.018  1.2357 -0.1927  0.1014
20339SOL     OW65863   6.676   6.511   1.627 -0.2095  0.3349  0.4360
20339SOL    HW165864   6.760   6.466   1.618  1.1078  2.2886  2.3494
20339SOL    HW265865   6.665   6.558   1.545  1.4465  1.4709  0.8480
20340SOL     OW65866   8.273   5.785   1.298  0.6694  0.1596  0.4160
20340SOL    HW165867   8.339   5.731   1.254 -0.8016 -1.0670 -0.3532
20340SOL    HW265868   8.224   5.826   1.227  0.2617  0.6377  0.9693
20341SOL     OW65869   7.637   9.184   9.669 -0.2033  0.5788 -0.1273
20341SOL    HW165870   7.649   9.108   9.726 -0.3395  0.6410 -0.0136
20341SOL    HW265871   7.556   9.166   9.621 -0.3418  0.7385  0.0422
20342SOL     OW65872   5.345   7.530   1.665  0.2652  0.1232  0.5815
20342SOL    HW165873   5.263   7.497   1.629  0.5101 -1.6479  1.6261
20342SOL    HW265874   5.401   7.453   1.673  1.3542  1.0103  1.6771
20343SOL     OW65875   8.865   6.899   1.160  0.1304 -0.0495 -0.5051
20343SOL    HW165876   8.915   6.874   1.237 -0.8173  0.4160  0.2810
20343SOL    HW265877   8.778   6.862   1.176  0.1014 -0.4986 -1.6547
20344SOL     OW65878   5.981   6.898   9.059 -0.2275  0.5040 -0.0281
20344SOL    HW165879   6.069   6.862   9.069  1.1596  3.2264 -1.7515
20344SOL    HW265880   5.966   6.948   9.140  0.4367  1.2471 -0.3558
20345SOL     OW65881   7.998   4.854   9.954 -0.0897  0.2923  0.1186
20345SOL    HW165882   7.967   4.788  10.016 -0.6912 -0.3269 -0.8350
20345SOL    HW265883   8.092   4.836   9.945  0.0109  0.4139  0.8726
20346SOL     OW65884   5.733   7.833   0.846  0.3186  0.1710  0.3602
20346SOL    HW165885   5.733   7.925   0.819  0.2081  0.4049  1.1335
20346SOL    HW265886   5.792   7.790   0.784  0.1245  0.7072 -0.1981
20347SOL     OW65887   9.812   6.023   0.940 -0.2778  0.3279 -0.0518
20347SOL    HW165888   9.722   6.041   0.913 -0.4727 -1.4379 -0.6168
20347SOL    HW265889   9.804   5.956   1.007  0.6047  0.4134  0.1464
20348SOL     OW65890   6.236   7.300   9.739  0.0734 -0.1127  0.7785
20348SOL    HW165891   6.233   7.369   9.806 -0.8923 -0.0961  0.7276
20348SOL    HW265892   6.178   7.332   9.670  0.5753 -0.4225  0.2058
20349SOL     OW65893   2.851   6.448   0.852  0.1974 -0.1475 -0.2146
20349SOL    HW165894   2.882   6.442   0.762  1.0273 -1.3307  0.1273
20349SOL    HW265895   2.833   6.357   0.877 -2.3418  0.3960  0.0259
20350SOL     OW65896   6.481   6.244   0.831  0.1935  0.2580  0.2841
20350SOL    HW165897   6.388   6.256   0.849 -0.3455 -0.7072 -1.6596
20350SOL    HW265898   6.515   6.194   0.905 -0.8703  0.4278  0.8861
20351SOL     OW65899   4.615   4.266   1.735 -0.6598 -0.5339  0.2145
20351SOL    HW165900   4.669   4.230   1.805  0.2147  1.1663  0.4556
20351SOL    HW265901   4.673   4.269   1.659  0.1863  2.8665  0.9051
20352SOL     OW65902   6.706   7.896   1.354 -0.0805 -0.3212 -0.0140
20352SOL    HW165903   6.799   7.914   1.368 -0.1245 -0.9281  1.0474
20352SOL    HW265904   6.666   7.983   1.348  0.9310  0.0037 -3.1941
20353SOL     OW65905   3.974   6.141   2.734 -0.1824 -0.1510  0.2892
20353SOL    HW165906   3.903   6.078   2.751 -0.6653  0.2165 -0.3494
20353SOL    HW265907   3.936   6.226   2.754  0.0758  0.0482 -0.0583
20354SOL     OW65908   6.486   6.894   8.598  0.0590 -0.4704  0.2462
20354SOL    HW165909   6.477   6.945   8.679  0.0813 -0.7624  0.4338
20354SOL    HW265910   6.579   6.877   8.590  0.1458  0.2249 -0.2531
20355SOL     OW65911   5.624   6.816   0.991  0.1493  0.1144 -0.5671
20355SOL    HW165912   5.703   6.791   0.943  1.4953  1.8589  0.6408
20355SOL    HW265913   5.608   6.906   0.963 -0.5865  0.2351  0.2376
20356SOL     OW65914   6.934   7.054   2.363 -0.2136  0.4425 -0.4941
20356SOL    HW165915   6.886   7.017   2.437  0.3085  0.8330  0.0408
20356SOL    HW265916   6.967   7.138   2.394  0.5284  0.3391 -0.9624
20357SOL     OW65917   5.770   6.198   0.225  0.0855  0.1520  0.3403
20357SOL    HW165918   5.693   6.228   0.178  1.1056  0.5733 -1.0974
20357SOL    HW265919   5.735   6.150   0.301 -1.5682  0.0236 -0.4860
20358SOL     OW65920   7.070   4.662   1.919 -0.0478 -0.1113 -0.0364
20358SOL    HW165921   7.074   4.593   1.852 -0.9859  0.4926 -0.7266
20358SOL    HW265922   7.160   4.693   1.927  0.4928 -1.7928  0.6792
20359SOL     OW65923   6.232   8.152   1.286  0.0753  0.3122 -1.5820
20359SOL    HW165924   6.191   8.141   1.200 -2.7073  1.4188 -0.4464
20359SOL    HW265925   6.229   8.246   1.302  0.6652  0.1188 -0.3125
20360SOL     OW65926   4.441   7.714   1.483  0.1458  0.1911  0.0378
20360SOL    HW165927   4.512   7.676   1.432  0.1055 -0.5601  0.5252
20360SOL    HW265928   4.432   7.655   1.558 -0.5158  0.6755  0.3412
20361SOL     OW65929   8.355   6.108   8.300 -0.0783 -0.3496  1.0200
20361SOL    HW165930   8.393   6.136   8.383 -1.0755  0.8925  1.0712
20361SOL    HW265931   8.409   6.151   8.234  0.5516 -1.1272  1.0184
20362SOL     OW65932   7.881   6.405   1.736 -0.1233  0.1527  0.3363
20362SOL    HW165933   7.961   6.382   1.783  0.3365  0.8739 -0.0782
20362SOL    HW265934   7.811   6.387   1.799  0.5415  2.0717  1.6990
20363SOL     OW65935   5.846   6.591   1.319  0.0739  0.5304 -0.6355
20363SOL    HW165936   5.864   6.583   1.225  0.2732  0.3020 -0.5784
20363SOL    HW265937   5.753   6.612   1.324 -0.2056 -0.6459 -0.8310
20364SOL     OW65938   5.081   7.056   0.439 -0.2522 -0.4065 -0.4003
20364SOL    HW165939   5.064   7.132   0.495 -1.9453  0.0606 -1.5057
20364SOL    HW265940   5.154   7.084   0.383  1.1661 -0.7294  1.2517
20365SOL     OW65941   6.562   7.590   0.117 -0.3448  0.1743 -0.5260
20365SOL    HW165942   6.558   7.681   0.144  0.6613 -0.2509  1.1664
20365SOL    HW265943   6.471   7.560   0.115 -0.6162  0.9921 -0.3155
20366SOL     OW65944   6.575   5.482   0.891  0.6380 -0.1574  0.0674
20366SOL    HW165945   6.492   5.529   0.882  1.7757  2.0666  0.8059
20366SOL    HW265946   6.551   5.400   0.934 -1.3019  0.0087 -0.6176
20367SOL     OW65947   6.543   6.140   9.372 -0.7051  0.4292  0.4212
20367SOL    HW165948   6.539   6.047   9.394  0.4923  0.1405 -0.5794
20367SOL    HW265949   6.624   6.150   9.323 -1.4632  1.7711 -0.5858
20368SOL     OW65950   7.799   6.559   2.365 -0.1582  0.5941 -0.5212
20368SOL    HW165951   7.852   6.542   2.287 -1.4365 -0.0398 -1.2629
20368SOL    HW265952   7.859   6.602   2.425  1.2191 -0.1358 -1.3352
20369SOL     OW65953   6.348   8.125   3.324 -0.5261 -0.3444  0.2158
20369SOL    HW165954   6.386   8.121   3.411  0.6627 -0.9900 -0.3255
20369SOL    HW265955   6.379   8.046   3.280 -0.7779  0.1774 -0.9247
20370SOL     OW65956   5.583   6.814   9.933 -0.0576  0.3476  0.3283
20370SOL    HW165957   5.532   6.735   9.914  0.4020  0.2038 -0.3433
20370SOL    HW265958   5.526   6.886   9.906  0.3866  0.1601 -1.1738
20371SOL     OW65959   5.885   9.042   3.259 -0.8422  0.7075 -0.3385
20371SOL    HW165960   5.799   9.003   3.277 -1.0720 -0.1469 -3.1373
20371SOL    HW265961   5.948   8.974   3.285 -1.0831  0.3571 -0.6814
20372SOL     OW65962   8.758   5.916   1.305 -0.1200 -0.4657 -0.1407
20372SOL    HW165963   8.764   5.825   1.334  0.2624 -0.6437 -0.7598
20372SOL    HW265964   8.837   5.958   1.340 -0.5442 -0.2419  0.5677
20373SOL     OW65965   7.509   4.337   9.940  0.3453  0.0858  0.0037
20373SOL    HW165966   7.453   4.259   9.950  2.0172 -1.3712 -1.5571
20373SOL    HW265967   7.554   4.345  10.024  0.2488 -0.7262  0.1354
20374SOL     OW65968   7.237   7.582   0.921  0.0421 -0.6993  0.0719
20374SOL    HW165969   7.234   7.675   0.944 -0.3641 -0.3805 -1.2618
20374SOL    HW265970   7.306   7.576   0.855  0.3914 -1.4226  0.5032
20375SOL     OW65971   8.139   6.031   0.905 -0.6062 -0.7320  0.6688
20375SOL    HW165972   8.123   6.057   0.814  0.4041 -1.5069  0.2504
20375SOL    HW265973   8.126   6.111   0.956 -0.0500 -0.0227 -0.2874
20376SOL     OW65974   6.023   6.728   0.354 -0.6696 -0.1715  0.0036
20376SOL    HW165975   6.097   6.783   0.380 -1.1063  0.6345 -0.4393
20376SOL    HW265976   6.058   6.673   0.284 -0.3078 -0.2709  0.2569
20377SOL     OW65977   6.860   4.867   1.673  0.3779  0.1087  1.1834
20377SOL    HW165978   6.917   4.892   1.746 -0.5039  1.5644  1.3953
20377SOL    HW265979   6.849   4.948   1.622 -2.4745  0.1981  1.8279
20378SOL     OW65980   7.695   6.592   1.361 -0.0128 -0.1857  0.1466
20378SOL    HW165981   7.756   6.650   1.406  0.6580 -0.5497 -0.2744
20378SOL    HW265982   7.622   6.648   1.337 -1.1756 -0.3292  3.1574
20379SOL     OW65983   6.229   6.687   1.166 -0.0874  0.1749  0.5308
20379SOL    HW165984   6.218   6.753   1.097  1.5016 -0.3700 -0.2546
20379SOL    HW265985   6.173   6.614   1.138 -1.1240  0.7942  0.9325
20380SOL     OW65986   4.716   7.722   0.552  0.0334  0.2308 -0.4211
20380SOL    HW165987   4.666   7.650   0.514 -1.4416  1.6702 -1.2964
20380SOL    HW265988   4.723   7.786   0.480 -2.4871  2.8619  1.5749
20381SOL     OW65989   6.893   6.963   1.477 -0.2442  0.2442 -0.2523
20381SOL    HW165990   6.968   7.020   1.496 -1.3528  1.6371  0.0965
20381SOL    HW265991   6.874   6.979   1.384  0.7325 -1.1522 -0.7064
20382SOL     OW65992   8.430   5.821   1.523  0.0005  0.0359 -0.3165
20382SOL    HW165993   8.351   5.830   1.470 -0.5755 -0.1149  0.5091
20382SOL    HW265994   8.486   5.894   1.496 -0.8471  0.7431 -0.1504
20383SOL     OW65995   7.952   6.755   2.491  0.2748  0.3703 -0.4372
20383SOL    HW165996   8.039   6.718   2.503 -0.1523 -0.9118 -1.2532
20383SOL    HW265997   7.956   6.798   2.405 -0.2981 -0.8730 -1.0968
20384SOL     OW65998   4.218   7.486   0.139 -0.9633 -0.1033 -0.2321
20384SOL    HW165999   4.254   7.520   0.221 -0.6972 -1.1021  0.0778
20384SOL    HW266000   4.130   7.523   0.135 -0.9790 -0.0451  0.5161
20385SOL     OW66001   6.012   7.827   0.516  0.3549 -0.2453 -0.1307
20385SOL    HW166002   5.980   7.832   0.427 -0.6576  1.5450  0.3060
20385SOL    HW266003   6.107   7.836   0.508  0.3486 -1.0342 -1.0925
20386SOL     OW66004   5.175   5.240   2.397  0.6940 -0.0388  0.0543
20386SOL    HW166005   5.201   5.286   2.477 -0.9983  0.6753  0.2185
20386SOL    HW266006   5.149   5.310   2.337  1.2684 -0.6111 -0.8731
20387SOL     OW66007   5.248   7.063   1.548 -0.4568  0.6200 -0.2208
20387SOL    HW166008   5.291   6.978   1.556  0.2367  0.9458 -0.4534
20387SOL    HW266009   5.205   7.076   1.632  1.8143  1.3197  0.8662
20388SOL     OW66010   7.359   5.357   3.159  0.4530 -0.3554  0.8188
20388SOL    HW166011   7.438   5.410   3.168  0.6479 -0.7791  1.6518
20388SOL    HW266012   7.346   5.348   3.064  1.0132  0.2832  0.6805
20389SOL     OW66013   7.834   6.160   2.753  0.4586 -0.1044 -0.7253
20389SOL    HW166014   7.907   6.209   2.792 -1.7317  1.4619  1.5503
20389SOL    HW266015   7.784   6.225   2.705 -0.1439 -0.9284 -1.2132
20390SOL     OW66016   8.646   5.474   1.744 -0.4650  0.4066 -0.4149
20390SOL    HW166017   8.721   5.461   1.686 -0.0793 -0.4753  0.2744
20390SOL    HW266018   8.598   5.391   1.742 -1.4841  0.9968 -0.9261
20391SOL     OW66019   7.005   5.735   3.225  0.1739  0.2565 -0.3205
20391SOL    HW166020   7.080   5.769   3.175 -0.2019  1.1864 -0.2655
20391SOL    HW266021   6.937   5.802   3.214 -0.2686 -0.0490  0.5579
20392SOL     OW66022   7.529   6.427   1.678  0.3093 -0.1431  0.2587
20392SOL    HW166023   7.537   6.491   1.748 -0.4353 -0.2750  0.4639
20392SOL    HW266024   7.486   6.352   1.718 -0.2209 -0.1745 -0.3642
20393SOL     OW66025   6.032   7.100   1.121 -0.6094  0.2560  0.6872
20393SOL    HW166026   6.097   7.164   1.092 -0.1599 -0.7241 -0.5408
20393SOL    HW266027   6.006   7.129   1.208  2.1838  0.1621  1.5995
20394SOL     OW66028   5.974   6.830   2.245  0.1968  0.2686  0.3909
20394SOL    HW166029   5.901   6.850   2.303 -1.0282 -0.0919 -0.9787
20394SOL    HW266030   5.998   6.739   2.266 -0.4716  0.0228  0.0917
20395SOL     OW66031   4.608   7.684   4.189 -0.1019 -0.1240 -0.1229
20395SOL    HW166032   4.686   7.639   4.220 -0.0459  0.1842  0.1795
20395SOL    HW266033   4.636   7.775   4.174 -0.3091 -0.0970 -0.3634
20396SOL     OW66034   7.663   6.897   1.978 -0.2738 -0.0095  0.0311
20396SOL    HW166035   7.571   6.872   1.983 -0.5897  1.3583  1.8240
20396SOL    HW266036   7.711   6.815   1.985 -1.3425 -0.5304  1.6163
20397SOL     OW66037   7.284   6.688   1.834 -0.1267  0.1058  0.2380
20397SOL    HW166038   7.262   6.763   1.889 -0.0259  0.4706 -0.2217
20397SOL    HW266039   7.351   6.642   1.885 -1.3028 -0.5407  1.2371
20398SOL     OW66040   6.777   6.044   5.249  0.1062  0.1681 -0.5283
20398SOL    HW166041   6.725   6.053   5.169  0.7218  0.3357 -0.9117
20398SOL    HW266042   6.852   6.102   5.236  1.8077 -2.1281 -1.1505
20399SOL     OW66043   5.386   6.765   3.146 -0.0890  0.6011 -0.3117
20399SOL    HW166044   5.377   6.788   3.054  0.7446 -0.9395 -0.7994
20399SOL    HW266045   5.324   6.693   3.158  1.3319 -0.6239 -0.2055
20400SOL     OW66046   7.720   6.806   4.135  0.5178 -0.3405  0.0713
20400SOL    HW166047   7.631   6.774   4.147  0.7874 -1.3734 -0.6674
20400SOL    HW266048   7.769   6.770   4.209  1.0703 -2.5984 -1.3551
20401SOL     OW66049   7.426   5.309   1.435 -0.0249 -0.2622 -0.0581
20401SOL    HW166050   7.366   5.321   1.361 -0.8721 -1.2560  0.4666
20401SOL    HW266051   7.482   5.236   1.408  0.8857  0.5743 -0.4889
20402SOL     OW66052   7.282   6.492   2.346 -0.0916  0.1192 -0.2645
20402SOL    HW166053   7.339   6.533   2.412  0.1844 -0.5026 -0.1124
20402SOL    HW266054   7.213   6.556   2.331 -1.4093 -0.6493  2.2859
20403SOL     OW66055   6.657   8.263   2.099 -0.1019  0.0840 -0.0073
20403SOL    HW166056   6.585   8.314   2.136 -1.3789 -2.0459  0.5518
20403SOL    HW266057   6.680   8.309   2.019 -2.4119  0.5570 -0.4444
20404SOL     OW66058   4.416   6.305   1.638  0.3512 -1.2673 -0.3826
20404SOL    HW166059   4.332   6.287   1.596  0.8165 -0.2914 -1.7690
20404SOL    HW266060   4.466   6.354   1.572  1.6912 -1.0987  0.7328
20405SOL     OW66061   7.575   4.686   3.627 -0.0969 -0.8244 -0.3180
20405SOL    HW166062   7.583   4.595   3.656 -0.7059 -0.8601 -0.2606
20405SOL    HW266063   7.518   4.727   3.692  0.3923 -0.3313 -0.1931
20406SOL     OW66064   4.200   7.712   0.761  0.1768 -0.8175  0.0589
20406SOL    HW166065   4.112   7.715   0.724 -0.2308  1.1367  1.1434
20406SOL    HW266066   4.217   7.801   0.791  1.3228 -1.8680  2.6694
20407SOL     OW66067   7.744   6.838   0.967  0.4829 -0.7301 -0.1837
20407SOL    HW166068   7.796   6.831   1.047 -0.6675 -2.7040  0.4379
20407SOL    HW266069   7.806   6.821   0.896  1.2656 -0.1500  0.3515
20408SOL     OW66070   5.885   7.388   2.632 -0.3315  0.2315 -0.0890
20408SOL    HW166071   5.967   7.421   2.595 -0.6558  0.9029 -0.2286
20408SOL    HW266072   5.894   7.400   2.726 -0.1403  0.0130 -0.0805
20409SOL     OW66073   6.460   6.593   3.450  0.5328  0.1428 -0.1087
20409SOL    HW166074   6.377   6.602   3.402  0.7112  0.5092 -0.3460
20409SOL    HW266075   6.449   6.512   3.500 -0.0655  0.3092  0.0423
20410SOL     OW66076   5.625   7.780   3.434  0.3451 -0.1024  0.6822
20410SOL    HW166077   5.566   7.754   3.504 -0.5173  0.7558  0.2812
20410SOL    HW266078   5.610   7.874   3.423  1.1034 -0.0599 -0.0552
20411SOL     OW66079   4.438   3.830   1.412 -0.2182 -0.0380 -0.3215
20411SOL    HW166080   4.357   3.879   1.399 -0.9849 -1.1200  0.3279
20411SOL    HW266081   4.481   3.874   1.486 -0.9998 -0.4497  0.3875
20412SOL     OW66082   6.246   5.296   3.277 -0.0873  0.1819 -0.3819
20412SOL    HW166083   6.283   5.216   3.239  0.2380  1.4333 -2.7646
20412SOL    HW266084   6.302   5.314   3.352  2.0313  0.0941 -1.8845
20413SOL     OW66085   6.385   7.269   3.310 -0.0726  0.3439 -0.1051
20413SOL    HW166086   6.340   7.241   3.390 -0.5128 -1.2241 -0.8806
20413SOL    HW266087   6.452   7.203   3.296 -0.5999  0.0952 -1.5287
20414SOL     OW66088   6.680   4.973   2.544  0.0312  0.0889 -0.5042
20414SOL    HW166089   6.644   4.968   2.455 -0.6180  1.7888 -0.3613
20414SOL    HW266090   6.637   5.049   2.583 -1.0079 -1.6404  1.8679
20415SOL     OW66091   4.554   6.998   2.899 -0.2002 -0.5567  0.3231
20415SOL    HW166092   4.639   6.963   2.923 -0.4374 -0.5563  1.1764
20415SOL    HW266093   4.574   7.074   2.843  0.3176 -1.6419 -1.0009
20416SOL     OW66094   8.218   8.747   1.590 -0.0960 -0.7699  0.4080
20416SOL    HW166095   8.192   8.698   1.512  0.3704 -0.6959  0.2056
20416SOL    HW266096   8.144   8.806   1.607  0.0872 -0.3084 -0.3746
20417SOL     OW66097   7.576   8.855   3.531  0.1683 -0.3453 -0.3524
20417SOL    HW166098   7.657   8.889   3.568  0.6447 -0.5539 -1.2140
20417SOL    HW266099   7.552   8.783   3.590  0.9264 -0.6731 -0.4494
20418SOL     OW66100   6.680   7.229   0.978  0.2913  0.0623 -0.3179
20418SOL    HW166101   6.688   7.272   0.893 -1.3799 -1.3373 -1.2205
20418SOL    HW266102   6.720   7.143   0.965 -2.0807 -1.0573 -0.3992
20419SOL     OW66103   7.058   6.874   3.326  0.0180  0.0255  0.6113
20419SOL    HW166104   7.023   6.816   3.394 -1.3978 -1.0472 -0.9883
20419SOL    HW266105   7.144   6.899   3.358  0.7204 -3.0454  1.3158
20420SOL     OW66106   7.536   5.360   2.178  0.2535 -0.0844  0.4851
20420SOL    HW166107   7.540   5.330   2.087 -0.8041 -0.3328  0.5157
20420SOL    HW266108   7.582   5.444   2.177  1.3680 -0.6859 -0.0206
20421SOL     OW66109   6.133   7.297   1.937  0.2119  0.8458 -0.2725
20421SOL    HW166110   6.170   7.380   1.904  1.0441  0.7568  0.4069
20421SOL    HW266111   6.206   7.235   1.932 -0.5453  0.0191 -1.2336
20422SOL     OW66112   6.732   7.389   1.232  1.0269  0.2060  0.0883
20422SOL    HW166113   6.772   7.475   1.242  1.3178  0.1606 -0.6518
20422SOL    HW266114   6.726   7.376   1.137 -0.0712 -0.0944  0.1903
20423SOL     OW66115   6.755   7.156   1.882  0.2468  0.0608 -0.2143
20423SOL    HW166116   6.842   7.171   1.846  0.1266 -0.6976 -0.8236
20423SOL    HW266117   6.763   7.181   1.975  1.6674 -1.9688  0.2336
20424SOL     OW66118   5.411   7.429   3.622  0.5968 -0.0116 -0.4386
20424SOL    HW166119   5.433   7.336   3.617  1.6188  0.2234 -0.4663
20424SOL    HW266120   5.361   7.438   3.703  0.2186 -0.6376 -0.6030
20425SOL     OW66121   7.578   6.173   2.864  0.2939  0.2871  0.2312
20425SOL    HW166122   7.655   6.116   2.873 -0.1236 -0.2060  0.7463
20425SOL    HW266123   7.599   6.249   2.918  0.0000 -0.3100  1.2026
20426SOL     OW66124   5.390   7.033   9.941 -0.4606 -0.4630 -0.1658
20426SOL    HW166125   5.322   7.008   9.879 -0.7026  0.7021 -0.3971
20426SOL    HW266126   5.371   7.125   9.961 -0.1044 -0.7018  1.2848
20427SOL     OW66127   7.592   4.673   2.635  0.1184  0.5840  0.2128
20427SOL    HW166128   7.617   4.720   2.555 -0.0899 -1.2223 -0.9297
20427SOL    HW266129   7.516   4.621   2.609  0.6936 -0.8256  1.3006
20428SOL     OW66130   7.415   6.956   1.706 -0.0387  0.1295  0.1741
20428SOL    HW166131   7.368   6.884   1.664 -0.3493 -1.3943  3.0262
20428SOL    HW266132   7.347   7.006   1.751  0.3761  1.3005 -0.4907
20429SOL     OW66133   5.814   6.641   2.741  0.0698 -0.0234 -0.1992
20429SOL    HW166134   5.862   6.647   2.823  1.1783 -1.3102 -0.7399
20429SOL    HW266135   5.723   6.656   2.765  0.7018  2.3960  0.8538
20430SOL     OW66136   6.712   7.074   2.213 -0.9770 -0.8739  0.2635
20430SOL    HW166137   6.713   7.157   2.166 -2.0456  0.9529  3.3172
20430SOL    HW266138   6.797   7.071   2.258 -1.3326 -0.9456  0.9366
20431SOL     OW66139   4.103   6.100   3.080 -0.0958 -0.0817 -0.1619
20431SOL    HW166140   4.124   6.193   3.066 -1.2423  0.3125  0.6426
20431SOL    HW266141   4.008   6.096   3.075 -0.0619 -1.1909  0.0132
20432SOL     OW66142   6.617   7.183   3.620  0.5023  0.6826 -0.0189
20432SOL    HW166143   6.545   7.129   3.653  0.4768 -0.8267 -2.4023
20432SOL    HW266144   6.580   7.271   3.613 -0.6867  0.2070  0.1465
20433SOL     OW66145   5.882   7.882   2.368  0.4525  0.2291 -0.2978
20433SOL    HW166146   5.974   7.905   2.379  0.4464 -0.0750  0.3944
20433SOL    HW266147   5.857   7.839   2.450 -0.3412  0.4255 -0.4252
20434SOL     OW66148   8.332   5.483   0.608  0.2476 -0.0011 -0.2211
20434SOL    HW166149   8.324   5.416   0.540 -1.3046 -1.3761  1.2980
20434SOL    HW266150   8.274   5.553   0.579  0.3602 -0.1534 -0.8267
20435SOL     OW66151   6.554   6.415   1.073  0.0419 -0.7487  0.1436
20435SOL    HW166152   6.504   6.436   0.994 -0.9193 -1.0001  0.6735
20435SOL    HW266153   6.597   6.332   1.053 -1.5770 -1.6897  0.5002
20436SOL     OW66154   7.488   5.873   2.154  0.0438 -0.0665 -0.2364
20436SOL    HW166155   7.553   5.878   2.224 -0.3444 -0.1135  0.1307
20436SOL    HW266156   7.528   5.921   2.081  0.6294 -0.3790 -0.1296
20437SOL     OW66157   6.095   7.735   3.690 -0.0554 -0.0775 -0.3401
20437SOL    HW166158   6.122   7.643   3.687 -2.3293 -0.7225 -2.3980
20437SOL    HW266159   6.092   7.756   3.784  0.2886 -2.1454  0.1569
20438SOL     OW66160   5.528   7.665   9.523 -0.2756  0.1732 -0.4591
20438SOL    HW166161   5.482   7.744   9.493  1.6892  1.1911 -0.8622
20438SOL    HW266162   5.492   7.648   9.611  0.6651  2.6754  0.4564
20439SOL     OW66163   6.101   7.003   2.494 -0.0969 -0.8215 -0.2486
20439SOL    HW166164   6.014   6.987   2.457 -0.6409 -0.2884  0.7800
20439SOL    HW266165   6.145   7.058   2.430 -1.3964  0.9545  0.3342
20440SOL     OW66166   7.162   6.537   1.071 -0.7047 -0.0878  0.4706
20440SOL    HW166167   7.215   6.463   1.102  0.4230  0.4214 -0.1895
20440SOL    HW266168   7.136   6.583   1.151  0.8851  0.3519  0.7478
20441SOL     OW66169   4.781   7.945   1.248 -0.1011  0.0995  0.1671
20441SOL    HW166170   4.786   8.041   1.242  0.7869  0.0459  0.0642
20441SOL    HW266171   4.779   7.916   1.157  0.4107 -0.0255  0.1989
20442SOL     OW66172   5.895   7.035   2.077  0.0475 -0.1756 -0.1281
20442SOL    HW166173   5.910   7.122   2.115  1.0973 -0.8231  0.9546
20442SOL    HW266174   5.934   6.974   2.139 -0.6396 -1.4380 -0.9054
20443SOL     OW66175   7.298   8.880   1.412 -0.3435  0.0635 -0.0961
20443SOL    HW166176   7.324   8.887   1.504 -0.6439 -1.2525  0.0962
20443SOL    HW266177   7.361   8.935   1.366 -0.6829  1.3881  0.9753
20444SOL     OW66178   5.799   5.964   1.439 -0.4258 -0.0942  0.5359
20444SOL    HW166179   5.742   6.004   1.373 -0.9275  1.0087  1.6222
20444SOL    HW266180   5.880   6.014   1.433 -0.0294 -0.7882 -0.0693
20445SOL     OW66181   7.422   4.964   2.365  0.5209 -0.8685 -0.1336
20445SOL    HW166182   7.511   5.000   2.366  0.7118 -1.3377 -0.2920
20445SOL    HW266183   7.377   5.011   2.435  0.3774  0.6674 -1.2363
20446SOL     OW66184   3.987   8.296   0.967 -0.2811  0.1666 -0.7492
20446SOL    HW166185   4.073   8.263   0.939 -0.7482  0.5182 -2.6180
20446SOL    HW266186   3.973   8.254   1.053  0.8597 -1.4670 -1.3233
20447SOL     OW66187   3.398   5.755   2.640  0.4121 -0.0269 -0.1452
20447SOL    HW166188   3.354   5.688   2.587  0.3816 -0.4766  0.4505
20447SOL    HW266189   3.370   5.737   2.730 -1.9818  2.5888 -0.2902
20448SOL     OW66190   7.214   5.924   1.560 -0.0686 -0.4644 -0.1710
20448SOL    HW166191   7.287   5.981   1.536 -0.5569  0.0817 -0.3704
20448SOL    HW266192   7.203   5.866   1.485  0.5428 -0.9487  0.1033
20449SOL     OW66193   6.881   6.277   3.052 -0.2318 -0.0121 -0.0748
20449SOL    HW166194   6.951   6.326   3.008 -0.8411 -0.5302 -1.6433
20449SOL    HW266195   6.816   6.260   2.984 -1.6213 -0.0576  1.2346
20450SOL     OW66196   5.470   6.737   0.484  0.0423  0.0451 -0.4456
20450SOL    HW166197   5.493   6.770   0.396 -0.0011 -0.3187 -0.5949
20450SOL    HW266198   5.549   6.691   0.513  0.7976  1.8925  0.5608
20451SOL     OW66199   6.788   6.501   2.489 -0.2838  0.1006 -0.1580
20451SOL    HW166200   6.715   6.546   2.532 -0.2133 -0.4946  0.6006
20451SOL    HW266201   6.790   6.537   2.401 -2.2369 -0.7076 -0.5599
20452SOL     OW66202   5.452   7.535   2.442  0.9912  0.0666  0.1396
20452SOL    HW166203   5.443   7.627   2.416  1.2540 -0.4094 -1.6703
20452SOL    HW266204   5.377   7.491   2.402 -0.2877 -0.1705  2.7195
20453SOL     OW66205   6.459   6.485   2.241  0.1214 -0.0165  0.1752
20453SOL    HW166206   6.489   6.569   2.207  1.4940 -1.1513 -1.5119
20453SOL    HW266207   6.529   6.424   2.218  0.0236 -1.2733  3.0792
20454SOL     OW66208   5.260   8.618   2.019  0.1087  0.5049 -0.6116
20454SOL    HW166209   5.279   8.526   2.003 -0.9429 -0.2296  2.1285
20454SOL    HW266210   5.335   8.665   1.981  1.1367 -1.5123 -1.1411
20455SOL     OW66211   7.400   5.759   1.376 -0.8038  0.2032 -0.5486
20455SOL    HW166212   7.427   5.766   1.284 -0.3617  1.3408 -0.3323
20455SOL    HW266213   7.324   5.701   1.374 -0.0539 -0.7701 -1.4936
20456SOL     OW66214   7.132   6.718   2.346 -0.9219  0.3582 -0.1584
20456SOL    HW166215   7.082   6.724   2.265 -0.8234 -0.7016 -0.3100
20456SOL    HW266216   7.193   6.791   2.344  0.6449 -0.9530 -2.1085
20457SOL     OW66217   7.195   7.960   1.745 -0.0558 -0.1642 -0.1351
20457SOL    HW166218   7.250   7.986   1.819 -1.9741 -1.5594  1.8410
20457SOL    HW266219   7.138   8.036   1.730  0.0131 -0.0563  0.1390
20458SOL     OW66220   6.552   6.783   0.932  0.0005 -0.2207 -0.1223
20458SOL    HW166221   6.511   6.867   0.914 -0.7978 -0.5871 -0.0154
20458SOL    HW266222   6.484   6.718   0.914  0.1110 -0.7520  1.3214
20459SOL     OW66223   7.512   7.265   2.308 -0.6220 -0.1256 -0.3339
20459SOL    HW166224   7.557   7.196   2.356  0.1786 -0.1815 -1.1358
20459SOL    HW266225   7.488   7.224   2.224  1.3396  1.0242 -1.4898
20460SOL     OW66226   6.512   8.053   3.530  0.1866  0.5061  0.2856
20460SOL    HW166227   6.566   8.068   3.607 -1.5350  0.7584  1.4795
20460SOL    HW266228   6.572   8.019   3.464  1.7981  0.8711  1.5369
20461SOL     OW66229   6.479   7.783   3.966 -0.0158 -0.0843  0.2945
20461SOL    HW166230   6.523   7.800   3.882 -1.0283 -0.6372 -0.3643
20461SOL    HW266231   6.438   7.866   3.989 -0.3784 -0.1312 -0.1563
20462SOL     OW66232   5.713   7.130   1.640 -0.4472  0.3408  0.0782
20462SOL    HW166233   5.798   7.142   1.683 -0.1113 -0.4332 -0.3661
20462SOL    HW266234   5.728   7.061   1.575 -0.9747  1.4526 -1.2466
20463SOL     OW66235   7.335   8.137   2.804  0.0762 -1.5600  0.7249
20463SOL    HW166236   7.272   8.103   2.867 -0.0875 -2.7055 -0.0556
20463SOL    HW266237   7.297   8.118   2.718  0.7306 -0.8315  0.2648
20464SOL     OW66238   6.644   7.154   1.590  0.2400 -0.4675  0.2655
20464SOL    HW166239   6.732   7.130   1.563 -0.0682 -1.9046  0.4876
20464SOL    HW266240   6.605   7.194   1.512  1.4906  1.3778  0.5459
20465SOL     OW66241   6.065   6.028   2.152  0.0877  0.2653 -0.4847
20465SOL    HW166242   6.051   6.099   2.089  0.8619  1.7405  0.9595
20465SOL    HW266243   6.119   5.965   2.105 -1.0320  0.3743 -1.9585
20466SOL     OW66244   6.762   6.305   1.371  0.4800 -0.5625  0.5669
20466SOL    HW166245   6.812   6.274   1.446  0.0078  2.2089  2.1036
20466SOL    HW266246   6.801   6.390   1.350 -0.9952 -0.1815 -0.7558
20467SOL     OW66247   6.607   4.287   2.623 -0.0554 -0.3675  0.9184
20467SOL    HW166248   6.617   4.382   2.621 -1.2341 -0.2381  0.6300
20467SOL    HW266249   6.696   4.253   2.630  0.9156  0.6324 -4.5762
20468SOL     OW66250   5.955   6.384   1.399 -0.0737 -0.5353  0.0191
20468SOL    HW166251   5.921   6.469   1.372  0.8618 -0.6344 -1.5321
20468SOL    HW266252   5.903   6.361   1.476 -1.5933  0.5953 -0.6317
20469SOL     OW66253   8.152   7.450   3.219  0.3124  0.5219 -0.4583
20469SOL    HW166254   8.113   7.412   3.297 -0.3258 -0.4326 -1.2245
20469SOL    HW266255   8.217   7.386   3.190 -0.4797  0.1807 -1.5294
20470SOL     OW66256   7.355   6.752   3.879  0.0527  0.8094  0.2491
20470SOL    HW166257   7.406   6.705   3.945 -0.5917  0.3429  0.4233
20470SOL    HW266258   7.266   6.753   3.915 -0.4699 -0.1659 -1.0067
20471SOL     OW66259   6.149   7.690   3.194 -0.1052  0.1706 -0.2077
20471SOL    HW166260   6.244   7.692   3.204  0.1950  0.9520 -2.8492
20471SOL    HW266261   6.116   7.748   3.263  1.1618 -1.7110  2.0447
20472SOL     OW66262   7.414   8.234   2.354  0.0954 -0.4569 -0.3357
20472SOL    HW166263   7.359   8.179   2.298 -0.8824 -1.5530  1.6354
20472SOL    HW266264   7.361   8.248   2.433  2.4897 -1.3211  1.5209
20473SOL     OW66265   5.800   7.363   1.998  0.1057  0.5438  0.0683
20473SOL    HW166266   5.876   7.321   2.038  1.0735  1.6978 -0.5538
20473SOL    HW266267   5.790   7.318   1.914  0.1589  0.4530  0.1099
20474SOL     OW66268   6.525   7.312   1.401  0.2596  0.7338  0.0830
20474SOL    HW166269   6.444   7.347   1.364 -0.3494 -0.2922  0.4114
20474SOL    HW266270   6.592   7.329   1.335 -1.1765 -2.9225 -2.4912
20475SOL     OW66271   6.797   7.070   1.228 -0.2661  0.1311 -0.0329
20475SOL    HW166272   6.723   7.010   1.232  1.1278 -1.8439 -2.7522
20475SOL    HW266273   6.768   7.141   1.170 -0.2405 -0.3342 -0.6127
20476SOL     OW66274   6.523   9.045   2.667 -0.5608 -0.1276 -0.9120
20476SOL    HW166275   6.599   9.089   2.629  1.6037 -2.9374 -0.0108
20476SOL    HW266276   6.498   8.980   2.601 -1.5162  0.0496 -0.7310
20477SOL     OW66277   7.050   6.547   2.621  0.2423 -0.4681  0.1893
20477SOL    HW166278   6.987   6.570   2.553 -0.6729  2.9538  2.0660
20477SOL    HW266279   7.135   6.570   2.583 -0.2511  1.3481  0.1248
20478SOL     OW66280   7.338   0.069   2.669  0.0190 -0.2673  0.4371
20478SOL    HW166281   7.273   0.075   2.598  0.4892  2.1426  0.1943
20478SOL    HW266282   7.313  -0.011   2.716 -1.5339 -0.8109 -1.2222
20479SOL     OW66283   5.505   7.828   2.928  0.4053  0.3728 -0.4874
20479SOL    HW166284   5.414   7.800   2.938  0.6463 -0.1693  0.2668
20479SOL    HW266285   5.499   7.915   2.890 -0.4340  0.3969 -0.3187
20480SOL     OW66286   6.606   6.821   3.455  0.1611  0.0819 -0.1491
20480SOL    HW166287   6.700   6.802   3.459  0.0135 -0.6227  0.0227
20480SOL    HW266288   6.565   6.735   3.446 -0.6542  0.1296  2.7993
20481SOL     OW66289   6.799   6.597   2.843 -0.3593  0.0254  0.5498
20481SOL    HW166290   6.842   6.588   2.928 -0.8861 -0.5389  0.7627
20481SOL    HW266291   6.871   6.606   2.781  0.0261  0.5165  1.0671
20482SOL     OW66292   5.995   7.253   2.236 -0.6443 -0.1288 -0.6558
20482SOL    HW166293   6.086   7.260   2.265 -0.9420 -0.0575  0.3065
20482SOL    HW266294   5.952   7.329   2.275 -1.2940 -0.6152 -0.4080
20483SOL     OW66295   7.031   7.382   0.578 -0.0797  0.2567  0.1884
20483SOL    HW166296   7.046   7.325   0.502 -1.2682 -0.3890  0.4186
20483SOL    HW266297   7.094   7.453   0.568  1.1993 -0.9325 -0.2811
20484SOL     OW66298   5.571   7.222   9.842 -0.4685 -0.0094  0.3280
20484SOL    HW166299   5.557   7.166   9.918 -1.8163  0.5013  0.4627
20484SOL    HW266300   5.637   7.176   9.790 -2.0165 -2.0332  0.1092
20485SOL     OW66301   7.661   6.876   2.580  0.1302 -0.5697 -0.3519
20485SOL    HW166302   7.748   6.872   2.542 -0.2862 -1.4512 -1.2470
20485SOL    HW266303   7.675   6.861   2.674  1.2414  2.4208  0.0087
20486SOL     OW66304   6.763   6.233   2.566 -0.4290  0.0876 -0.0955
20486SOL    HW166305   6.763   6.328   2.574  0.7519  0.1883 -1.0932
20486SOL    HW266306   6.856   6.210   2.558 -0.7526 -1.0789 -0.5865
20487SOL     OW66307   4.108   6.457   2.153 -0.8329 -0.1861 -0.1339
20487SOL    HW166308   4.194   6.419   2.137 -1.1025 -1.3394  1.1015
20487SOL    HW266309   4.116   6.501   2.238 -1.6667 -0.9280  0.3336
20488SOL     OW66310   6.875   6.271   2.044  0.5318  0.0669 -0.2013
20488SOL    HW166311   6.960   6.231   2.064 -0.1119 -0.2673  1.9976
20488SOL    HW266312   6.849   6.230   1.961  1.3325 -1.7500  0.4044
20489SOL     OW66313   8.545   6.086   1.743 -0.0787  0.0553 -0.2831
20489SOL    HW166314   8.559   6.062   1.651  1.0615  1.0817 -0.3924
20489SOL    HW266315   8.629   6.070   1.785 -0.9085 -1.4510  0.8409
20490SOL     OW66316   6.806   8.842   1.742 -0.1424  0.4122 -0.9773
20490SOL    HW166317   6.791   8.747   1.736  1.3199 -0.0141  1.3761
20490SOL    HW266318   6.773   8.877   1.659 -2.3363 -1.9321 -1.1655
20491SOL     OW66319   7.682   6.323   1.459  0.2844 -0.2991 -0.2347
20491SOL    HW166320   7.620   6.356   1.524 -1.3475 -3.0035 -0.3249
20491SOL    HW266321   7.732   6.400   1.432 -1.4263  1.5177  1.5898
20492SOL     OW66322   6.424   6.871   1.466  0.3575 -0.6184  0.2186
20492SOL    HW166323   6.352   6.816   1.496  0.7864 -1.4084 -0.1920
20492SOL    HW266324   6.389   6.919   1.391 -0.0980 -0.1188  0.7421
20493SOL     OW66325   6.561   6.602   1.991 -0.8656 -0.4114  0.6265
20493SOL    HW166326   6.491   6.608   1.926 -0.7292  0.8104  0.5925
20493SOL    HW266327   6.619   6.534   1.957  0.0529  1.3304 -1.3348
20494SOL     OW66328   7.225   8.569   2.356  0.4195 -0.3929  0.2686
20494SOL    HW166329   7.213   8.584   2.262 -0.3094  1.9804  0.7088
20494SOL    HW266330   7.190   8.481   2.370 -3.0309  0.6745 -1.0717
20495SOL     OW66331   8.207   5.474   3.656  0.5972 -0.0034 -0.5905
20495SOL    HW166332   8.263   5.539   3.700 -1.5606  0.6315  1.3548
20495SOL    HW266333   8.266   5.403   3.633  2.7045  1.8846 -1.1699
20496SOL     OW66334   7.828   6.142   3.134 -0.1778 -0.3304  0.1412
20496SOL    HW166335   7.857   6.107   3.050 -0.5386  0.5016 -0.3314
20496SOL    HW266336   7.781   6.222   3.112  0.6961  0.4930  1.2177
20497SOL     OW66337   6.206   8.632   1.694  0.9620  0.0431  0.4414
20497SOL    HW166338   6.207   8.607   1.787  0.6317  1.1826  0.7675
20497SOL    HW266339   6.114   8.629   1.669  1.2652 -2.3638 -0.4580
20498SOL     OW66340   9.038   7.065   3.407  0.7110  0.1143  0.2384
20498SOL    HW166341   9.117   7.015   3.384 -0.1344 -0.9353 -0.4575
20498SOL    HW266342   8.969   6.998   3.412  0.3073  0.7047  3.1127
20499SOL     OW66343   7.398   7.282   1.678 -0.0938  0.1687 -0.6705
20499SOL    HW166344   7.389   7.377   1.686  1.4543  0.3378 -0.6766
20499SOL    HW266345   7.420   7.267   1.586 -0.3955 -0.1980 -0.6845
20500SOL     OW66346   6.530   6.164   1.945  0.1303 -0.6508 -0.1512
20500SOL    HW166347   6.610   6.124   1.912  1.4932  0.2121  2.0645
20500SOL    HW266348   6.504   6.225   1.875  1.1157 -1.2681 -1.0772
20501SOL     OW66349   4.248   6.192   1.318  0.3765  0.3347  0.4332
20501SOL    HW166350   4.194   6.265   1.286 -0.0249 -0.7411 -1.4149
20501SOL    HW266351   4.312   6.178   1.249 -1.4832 -3.0891 -0.7110
20502SOL     OW66352   4.058   6.397   1.276  0.3447 -0.1033  0.6158
20502SOL    HW166353   4.076   6.489   1.296  0.0198  0.1149 -0.1138
20502SOL    HW266354   4.065   6.391   1.181  1.1942 -1.0132  0.7235
20503SOL     OW66355   8.120   6.517   4.288 -0.0989 -0.0049  0.5815
20503SOL    HW166356   8.152   6.429   4.311 -2.6912 -0.7927  1.3732
20503SOL    HW266357   8.167   6.539   4.208 -1.3464 -3.2872 -1.1623
20504SOL     OW66358   6.274   6.031   1.873  0.2056  0.6803 -0.0400
20504SOL    HW166359   6.312   6.006   1.789  0.2447 -0.9858  0.4540
20504SOL    HW266360   6.341   6.086   1.914  1.5720 -1.1473  0.2592
20505SOL     OW66361   7.659   5.766   1.915  0.2668 -0.7439 -0.3123
20505SOL    HW166362   7.708   5.848   1.914  0.9127 -1.1367 -0.9534
20505SOL    HW266363   7.604   5.770   1.836  1.3730 -1.5715 -1.1389
20506SOL     OW66364   7.527   8.151   3.058 -0.1646  0.2980 -0.5320
20506SOL    HW166365   7.604   8.165   3.112  0.3858 -1.5823 -0.7801
20506SOL    HW266366   7.533   8.217   2.989  0.2170  1.3710  0.5145
20507SOL     OW66367   8.745   7.619   3.885 -0.1642  0.1961 -0.0597
20507SOL    HW166368   8.693   7.544   3.856  0.4349 -1.6182  3.1865
20507SOL    HW266369   8.833   7.602   3.850  0.3112 -1.4333  1.7931
20508SOL     OW66370   6.549   5.862   1.787  0.1710  0.0049 -0.1813
20508SOL    HW166371   6.482   5.910   1.738 -0.4396  0.4654  1.0879
20508SOL    HW266372   6.523   5.771   1.780 -0.0393  0.0914 -0.5414
20509SOL     OW66373   7.362   5.157   1.885 -0.2753  0.0399 -0.6536
20509SOL    HW166374   7.344   5.191   1.973 -2.9410  0.4899 -1.3513
20509SOL    HW266375   7.362   5.234   1.829  0.1807 -0.3877 -1.2502
20510SOL     OW66376   6.816   5.400   1.143  0.7770  0.1559  0.5442
20510SOL    HW166377   6.791   5.387   1.051  2.6262  2.8325 -0.4066
20510SOL    HW266378   6.797   5.316   1.185 -0.5421 -0.9736 -2.1855
20511SOL     OW66379   7.009   7.649   2.490 -0.0666  0.3531 -0.2379
20511SOL    HW166380   6.945   7.717   2.510 -0.2415  0.2769 -0.5361
20511SOL    HW266381   6.996   7.584   2.559 -0.5548  0.1687 -0.5013
20512SOL     OW66382   6.348   4.790   3.273  0.0910  0.3780 -0.2250
20512SOL    HW166383   6.360   4.855   3.343  0.3596  0.6105 -0.4865
20512SOL    HW266384   6.415   4.811   3.209  1.9091 -1.8190  0.9120
20513SOL     OW66385   6.151   5.423   1.306 -0.3188 -0.1636  0.0376
20513SOL    HW166386   6.137   5.368   1.229 -0.5336  0.7252 -0.5720
20513SOL    HW266387   6.221   5.483   1.281 -0.7911  0.5149  0.3189
20514SOL     OW66388   6.061   7.953   1.961 -0.3700  0.1387  0.1767
20514SOL    HW166389   6.144   7.978   1.920 -0.7253 -1.5749 -1.7110
20514SOL    HW266390   5.994   7.999   1.910 -0.6217  1.3980  1.5994
20515SOL     OW66391   5.268   8.767   1.485 -0.1415 -0.7183 -0.4527
20515SOL    HW166392   5.301   8.850   1.520  0.0320 -1.2825  0.7438
20515SOL    HW266393   5.181   8.758   1.522  0.2898 -1.6325  0.3901
20516SOL     OW66394   6.627   8.509   2.332  0.6550  0.7081 -0.0603
20516SOL    HW166395   6.616   8.536   2.423 -0.6352 -0.1391  0.0620
20516SOL    HW266396   6.544   8.533   2.290  1.4344  1.5558 -1.1371
20517SOL     OW66397   5.162   6.778   2.755  0.2989 -0.5414 -0.1528
20517SOL    HW166398   5.192   6.862   2.719 -3.1426 -0.1150 -2.2282
20517SOL    HW266399   5.194   6.712   2.694  1.1730 -0.5751  0.3271
20518SOL     OW66400   5.885   6.404   0.360  0.8267 -0.2187  0.4339
20518SOL    HW166401   5.947   6.452   0.305  0.6023  0.3683  0.6874
20518SOL    HW266402   5.849   6.337   0.302  1.3843 -0.2910  0.1651
20519SOL     OW66403   5.816   3.889   2.829  0.3232  0.5093  0.2020
20519SOL    HW166404   5.817   3.793   2.831 -0.7246  0.4590 -0.8022
20519SOL    HW266405   5.796   3.910   2.737 -2.7106  1.6517  1.0760
20520SOL     OW66406   7.381   5.222   3.834 -0.0235  0.3014  0.7401
20520SOL    HW166407   7.342   5.307   3.812  1.1415  0.4623 -0.8062
20520SOL    HW266408   7.453   5.243   3.893  1.6045  0.6423 -1.2953
20521SOL     OW66409   5.029   7.504   1.868 -0.4666  0.1071  0.3052
20521SOL    HW166410   5.027   7.570   1.799 -1.0579 -0.5892 -0.3660
20521SOL    HW266411   4.939   7.470   1.870  0.2738 -2.0381 -0.7275
20522SOL     OW66412   7.922   8.413   3.142  0.5086 -0.1509  0.0927
20522SOL    HW166413   8.007   8.434   3.180  0.2966  2.2389 -0.6618
20522SOL    HW266414   7.943   8.374   3.057  0.8504  1.3455 -0.5198
20523SOL     OW66415   5.697   8.792   0.692  0.1830 -0.0424  0.6544
20523SOL    HW166416   5.634   8.722   0.672 -1.3048  1.7041 -1.0015
20523SOL    HW266417   5.782   8.754   0.671 -0.5155 -1.6666  0.6699
20524SOL     OW66418   6.807   6.998   3.213  0.1776  1.0272 -0.5238
20524SOL    HW166419   6.867   6.943   3.262  0.7150  0.2911 -1.9646
20524SOL    HW266420   6.835   7.087   3.231  1.4476  0.7007 -0.8483
20525SOL     OW66421   5.758   7.821   2.147  0.1041  0.1289 -0.2314
20525SOL    HW166422   5.750   7.909   2.111  2.6153  0.0679 -1.0297
20525SOL    HW266423   5.818   7.830   2.221 -0.8224 -0.6781  0.6425
20526SOL     OW66424   6.295   7.923   1.813  0.0964 -0.4588 -0.1590
20526SOL    HW166425   6.313   7.832   1.835  0.7973  0.0737  1.6362
20526SOL    HW266426   6.245   7.920   1.732 -0.6700 -2.4748  0.3741
20527SOL     OW66427   3.167   5.954   1.038  0.4133 -0.2664  0.3451
20527SOL    HW166428   3.141   5.984   0.951  2.4742  0.3105 -0.1016
20527SOL    HW266429   3.089   5.909   1.072 -0.4739 -0.3612 -1.7164
20528SOL     OW66430   6.085   7.069   3.039 -0.3315 -0.1135 -0.4709
20528SOL    HW166431   6.006   7.022   3.013  0.7361 -1.7109 -0.9089
20528SOL    HW266432   6.154   7.034   2.982  0.7312  1.1057  0.0363
20529SOL     OW66433   7.434   7.802   2.601 -0.3096 -0.8789 -0.5621
20529SOL    HW166434   7.383   7.881   2.590  0.3335 -0.3965 -0.1060
20529SOL    HW266435   7.519   7.832   2.633  0.9619 -1.4836 -3.2464
20530SOL     OW66436   5.237   7.843   1.936 -0.2628 -0.0996 -0.7123
20530SOL    HW166437   5.189   7.849   1.854 -1.7659  1.2713  0.2266
20530SOL    HW266438   5.326   7.819   1.911 -0.8079 -0.0833 -2.6986
20531SOL     OW66439   7.266   7.702   2.134  0.2430  0.1119  0.0922
20531SOL    HW166440   7.318   7.623   2.118  1.7586  1.0860  0.0698
20531SOL    HW266441   7.185   7.688   2.085  0.7409 -1.1802 -0.3816
20532SOL     OW66442   6.683   7.595   1.029 -0.0197  0.0463  0.9344
20532SOL    HW166443   6.748   7.628   1.091  1.2966 -1.7975  0.5741
20532SOL    HW266444   6.697   7.647   0.949  0.5912  0.0716  1.0571
20533SOL     OW66445   5.743   7.356   1.345  0.7235 -0.1718 -0.2815
20533SOL    HW166446   5.703   7.416   1.408 -0.3319 -1.7513  0.5990
20533SOL    HW266447   5.690   7.366   1.266  1.2908  0.9213 -0.5268
20534SOL     OW66448   5.813   9.558   3.185  0.2317 -0.2558  0.4968
20534SOL    HW166449   5.749   9.498   3.223 -1.4165  1.1511 -0.0145
20534SOL    HW266450   5.846   9.609   3.259 -1.4611  1.0712  0.3499
20535SOL     OW66451   7.024   8.739   5.587  0.4786 -0.1501  0.5620
20535SOL    HW166452   7.089   8.806   5.565  0.9092 -0.8949 -0.5414
20535SOL    HW266453   7.071   8.679   5.645  0.2409  0.2639  1.1729
20536SOL     OW66454   7.280   6.892   0.023 -0.4738  0.3231 -0.0330
20536SOL    HW166455   7.217   6.827  -0.008  0.3750  0.1221 -1.3814
20536SOL    HW266456   7.313   6.934  -0.056 -0.9131  2.3377  0.8172
20537SOL     OW66457   4.605   7.937   1.545 -0.5288  0.4404 -0.0622
20537SOL    HW166458   4.648   7.884   1.612 -1.0434  0.5948  0.3979
20537SOL    HW266459   4.517   7.900   1.538 -0.5037  0.4791 -0.5948
20538SOL     OW66460   5.088   7.839   2.171  0.2599  0.2091 -0.0415
20538SOL    HW166461   5.039   7.758   2.159  1.2412 -0.2960 -0.6277
20538SOL    HW266462   5.152   7.840   2.100  1.8668  0.3033  1.3653
20539SOL     OW66463   5.506   8.166   3.143  0.3743 -0.1697  0.3131
20539SOL    HW166464   5.502   8.207   3.056  0.5487 -1.1129 -0.1460
20539SOL    HW266465   5.417   8.172   3.177  0.4198  0.6828  0.2974
20540SOL     OW66466   6.897   7.834   0.931  0.1266 -0.2757  0.5776
20540SOL    HW166467   6.973   7.886   0.957 -0.1725  1.3711 -1.7272
20540SOL    HW266468   6.826   7.867   0.986  0.2973  0.6511  0.2461
20541SOL     OW66469   7.741   7.546   2.774 -0.3849  0.0358 -0.1270
20541SOL    HW166470   7.689   7.473   2.808 -0.8739  0.6551  0.4688
20541SOL    HW266471   7.765   7.597   2.852  2.1487 -0.8861 -0.2380
20542SOL     OW66472   7.297   5.717   2.347 -0.3505 -0.5174  0.2903
20542SOL    HW166473   7.262   5.629   2.333  0.7952 -0.9398 -0.0364
20542SOL    HW266474   7.379   5.718   2.297  0.1147  0.4184  1.0571
20543SOL     OW66475   7.862   5.620   0.875 -0.2816 -0.6981 -0.5168
20543SOL    HW166476   7.932   5.660   0.822 -0.5521  0.6016  0.0955
20543SOL    HW266477   7.878   5.526   0.868  2.2070 -0.4002  0.5139
20544SOL     OW66478   6.408   9.313   2.606  0.3890  0.1164  0.1961
20544SOL    HW166479   6.498   9.336   2.630  0.1964 -0.6676  1.7877
20544SOL    HW266480   6.413   9.221   2.582  0.0965  0.1996 -0.1763
20545SOL     OW66481   3.556   7.531   1.603  0.5323 -0.4475 -0.3194
20545SOL    HW166482   3.512   7.492   1.679  0.6521 -0.9418 -0.5017
20545SOL    HW266483   3.533   7.624   1.607 -0.7814 -0.7445 -0.5735
20546SOL     OW66484   9.224   6.645   1.239 -0.3480  0.5869 -0.4382
20546SOL    HW166485   9.245   6.583   1.310 -0.9370  1.4043  0.4639
20546SOL    HW266486   9.294   6.632   1.175  1.9610  1.9767  1.7025
20547SOL     OW66487   3.724   6.913   1.650 -0.0151  0.2591 -0.2281
20547SOL    HW166488   3.730   6.989   1.707  0.8307  0.2422 -0.2896
20547SOL    HW266489   3.636   6.879   1.665 -0.3098  1.1056 -0.0242
20548SOL     OW66490   6.763   8.628   4.313  0.4341 -0.1756 -0.2072
20548SOL    HW166491   6.691   8.690   4.322  1.3069  0.9762 -1.0259
20548SOL    HW266492   6.722   8.548   4.280 -0.7439 -0.1491  1.1705
20549SOL     OW66493   6.827   7.655   1.258  0.0273 -0.0172  0.1971
20549SOL    HW166494   6.773   7.705   1.319 -0.0251 -0.0903  0.2101
20549SOL    HW266495   6.917   7.669   1.289  0.1016  0.9529 -0.4318
20550SOL     OW66496   7.573   3.941   2.867  0.1225  0.4834  0.5130
20550SOL    HW166497   7.479   3.920   2.869 -0.0542  1.1295 -0.6986
20550SOL    HW266498   7.616   3.858   2.887 -0.6916  0.0532  0.5174
20551SOL     OW66499   5.465   7.772   1.755  0.1196 -0.3175 -0.3494
20551SOL    HW166500   5.490   7.822   1.677  0.8535 -1.5228 -0.8906
20551SOL    HW266501   5.419   7.695   1.720 -1.2480  0.1067  0.4878
20552SOL     OW66502   8.556   6.112   2.806  0.1207 -0.1323 -0.3295
20552SOL    HW166503   8.606   6.089   2.884 -0.1395 -0.1982 -0.1830
20552SOL    HW266504   8.486   6.047   2.802 -1.8290  1.8131  1.2187
20553SOL     OW66505   7.291   8.287   1.244 -0.3396 -0.0687  0.1651
20553SOL    HW166506   7.271   8.314   1.155  0.3696 -1.9976 -0.6027
20553SOL    HW266507   7.272   8.364   1.297  1.1772  1.7903 -1.8846
20554SOL     OW66508   4.622   8.539   2.368  0.4937  0.1181  0.2228
20554SOL    HW166509   4.642   8.627   2.400  1.5422 -0.7089  1.8371
20554SOL    HW266510   4.630   8.547   2.272  3.0554  1.1742  0.4793
20555SOL     OW66511   5.323   6.123   1.975 -0.1563  0.1665 -0.5007
20555SOL    HW166512   5.302   6.165   1.892  0.5770 -1.6457 -1.6312
20555SOL    HW266513   5.260   6.051   1.983  0.4229 -0.2896  0.0326
20556SOL     OW66514   5.461   7.075   1.307 -0.4295  0.6116 -0.3433
20556SOL    HW166515   5.525   7.132   1.266 -1.7727  1.8186 -0.7860
20556SOL    HW266516   5.500   6.987   1.300  1.4000  1.3754 -0.1241
20557SOL     OW66517   5.673   7.631   1.833 -0.7821  0.0100 -1.2319
20557SOL    HW166518   5.684   7.595   1.745 -1.7126 -0.0075 -1.3448
20557SOL    HW266519   5.583   7.664   1.835 -1.1571 -1.0267  0.0746
20558SOL     OW66520   6.175   7.395   1.524  0.0993  0.5279  0.1769
20558SOL    HW166521   6.085   7.371   1.507  0.2895  0.2802 -0.4992
20558SOL    HW266522   6.213   7.410   1.438  0.0200  3.1190  0.5491
20559SOL     OW66523   8.573   6.281   2.347  0.3999 -1.1113  0.3143
20559SOL    HW166524   8.533   6.365   2.325  0.2328 -1.1320  0.5387
20559SOL    HW266525   8.616   6.296   2.431  0.6253 -1.1685  0.2106
20560SOL     OW66526   5.653   4.684   3.256  0.5289 -0.2501 -0.2505
20560SOL    HW166527   5.589   4.620   3.224  0.3706  0.4599 -1.3560
20560SOL    HW266528   5.687   4.644   3.337 -1.0333 -0.7987  0.1607
20561SOL     OW66529   7.476   8.168   0.957 -0.4238 -0.0647 -0.2155
20561SOL    HW166530   7.419   8.245   0.957 -0.2277  0.0825  1.2330
20561SOL    HW266531   7.429   8.104   0.903 -0.7099  0.9667 -1.2023
20562SOL     OW66532   5.317   8.422   0.839  0.4581  0.1792 -0.3753
20562SOL    HW166533   5.268   8.428   0.921 -0.8298  2.1165 -1.2314
20562SOL    HW266534   5.399   8.380   0.863  0.2427  1.0018  1.9635
20563SOL     OW66535   7.241   6.607   4.232 -0.3440 -0.2431 -0.3444
20563SOL    HW166536   7.200   6.634   4.150 -0.5632 -0.8403 -0.4322
20563SOL    HW266537   7.175   6.551   4.275 -0.9876  1.5627  1.1046
20564SOL     OW66538   6.699   6.728   3.150  0.8653 -0.0661 -0.1824
20564SOL    HW166539   6.733   6.808   3.189  2.0788 -1.7273  2.3277
20564SOL    HW266540   6.776   6.687   3.109  0.6890 -0.9099  0.3091
20565SOL     OW66541   7.787   6.644   2.910  0.0583  0.7611  0.4256
20565SOL    HW166542   7.744   6.721   2.872  0.7230  0.9631  0.0562
20565SOL    HW266543   7.759   6.642   3.001 -2.0058 -0.0396 -0.1951
20566SOL     OW66544   6.929   6.486   3.500  0.3121 -0.5072 -0.3056
20566SOL    HW166545   6.996   6.433   3.542 -1.6425 -0.3331  3.2036
20566SOL    HW266546   6.927   6.455   3.410  4.8846 -0.6619 -0.4669
20567SOL     OW66547   5.067   6.238   2.981  0.4648  0.1100 -0.1352
20567SOL    HW166548   5.112   6.312   2.940  1.7385 -0.4381  0.2457
20567SOL    HW266549   4.983   6.232   2.935  0.6930  1.2687 -0.7249
20568SOL     OW66550   6.611   5.644   3.703 -0.0179 -0.5446 -0.3575
20568SOL    HW166551   6.633   5.678   3.616 -0.1418 -3.8979 -1.7556
20568SOL    HW266552   6.611   5.722   3.759  3.2829  1.2923 -2.6917
20569SOL     OW66553   6.494   6.275   3.276 -0.3227 -0.0134 -0.0398
20569SOL    HW166554   6.470   6.255   3.185  0.3443 -1.6374  0.1395
20569SOL    HW266555   6.582   6.240   3.286 -1.1854 -1.7120  1.8509
20570SOL     OW66556   4.749   6.038   1.479 -0.2876 -0.5692 -0.1422
20570SOL    HW166557   4.763   6.133   1.474 -2.8543 -0.1427 -0.0974
20570SOL    HW266558   4.720   6.014   1.391 -2.0736 -0.8418  0.4934
20571SOL     OW66559   5.906   7.978   1.689  0.0063 -0.3155  0.0880
20571SOL    HW166560   5.915   7.883   1.690 -3.0457 -0.6746  0.2742
20571SOL    HW266561   5.924   8.003   1.598  0.9259 -1.0460  0.0658
20572SOL     OW66562   4.093   8.383   1.347  0.4184 -0.0090 -0.3034
20572SOL    HW166563   4.137   8.467   1.350 -0.1962  0.3707 -1.7049
20572SOL    HW266564   4.007   8.399   1.388  0.4110 -0.0246 -0.3128
20573SOL     OW66565   8.335   7.873   2.818 -0.0091 -0.3532  0.4693
20573SOL    HW166566   8.342   7.943   2.754 -1.6106 -1.3545 -0.8390
20573SOL    HW266567   8.406   7.890   2.880  1.0639  1.0997 -1.1016
20574SOL     OW66568   5.834   8.627   2.869 -0.0678 -0.2532 -0.6523
20574SOL    HW166569   5.789   8.556   2.824 -1.4920 -0.4662  1.0336
20574SOL    HW266570   5.873   8.586   2.947 -0.4772  0.6976  0.0673
20575SOL     OW66571   5.256   4.610   1.499  0.1468 -0.1758  0.0065
20575SOL    HW166572   5.186   4.554   1.465  0.0625 -0.8050  1.1812
20575SOL    HW266573   5.238   4.696   1.460 -0.8529 -0.5024 -0.2893
20576SOL     OW66574   6.784   8.343   2.952 -0.1540  0.2530 -0.5353
20576SOL    HW166575   6.838   8.418   2.978 -0.7117  0.8898 -1.2036
20576SOL    HW266576   6.733   8.322   3.030  0.9503 -0.2658  0.0599
20577SOL     OW66577   8.520   6.875   3.393  0.3400 -0.4024  0.0587
20577SOL    HW166578   8.495   6.811   3.459  0.9262  0.7727  1.4481
20577SOL    HW266579   8.505   6.831   3.310  0.6653 -2.3125  0.9877
20578SOL     OW66580   6.100   5.677   2.267 -0.4081  0.5302 -0.1064
20578SOL    HW166581   6.186   5.650   2.238 -0.2147 -2.3097  2.7885
20578SOL    HW266582   6.041   5.652   2.196  0.4419 -3.1163  0.3826
20579SOL     OW66583   8.093   6.780   3.710  0.1191  0.1373 -0.1668
20579SOL    HW166584   8.138   6.714   3.763 -0.5460  1.2954  1.9402
20579SOL    HW266585   8.123   6.765   3.621  3.1057 -0.4165  0.8678
20580SOL     OW66586   7.429   7.204   1.405  0.5673 -0.3082 -0.1132
20580SOL    HW166587   7.383   7.225   1.324  1.0595 -0.3526 -0.4109
20580SOL    HW266588   7.473   7.121   1.387  0.7339 -0.2837  0.1745
20581SOL     OW66589   6.531   6.983   0.652 -0.2429 -0.1700 -0.1285
20581SOL    HW166590   6.535   6.893   0.620 -1.4578 -0.1170 -0.4778
20581SOL    HW266591   6.542   7.037   0.574 -1.0745 -0.0340 -0.1630
20582SOL     OW66592   6.233   7.158   1.673 -0.2443  0.4779  0.5407
20582SOL    HW166593   6.210   7.249   1.656  0.9390  0.9057  1.1627
20582SOL    HW266594   6.305   7.163   1.736  2.2512 -0.7318 -2.0665
20583SOL     OW66595   6.204   7.442   2.350 -0.3774 -0.2012  0.8705
20583SOL    HW166596   6.190   7.502   2.423  1.4658  0.6094  0.6179
20583SOL    HW266597   6.187   7.496   2.272  0.4453 -0.2365  0.6600
20584SOL     OW66598   6.311   9.203   3.152 -0.6851  0.5866 -0.8251
20584SOL    HW166599   6.242   9.164   3.099 -0.8746  1.8695 -1.5376
20584SOL    HW266600   6.388   9.206   3.095  0.4856 -2.4334  0.5152
20585SOL     OW66601   5.135   6.534   1.433  0.0556 -0.1258  0.7202
20585SOL    HW166602   5.177   6.574   1.510  1.7022 -1.2860  0.4676
20585SOL    HW266603   5.047   6.571   1.431  1.1765  2.6781  1.0835
20586SOL     OW66604   6.940   4.997   3.484  0.0230  0.2015  0.2326
20586SOL    HW166605   6.859   5.049   3.481  1.6133  2.7658  0.7420
20586SOL    HW266606   6.987   5.022   3.405  1.0647 -0.0604  0.7692
20587SOL     OW66607   8.026   6.411   2.553  0.2739 -0.6387  0.1042
20587SOL    HW166608   8.031   6.403   2.648 -1.0207  1.1669  0.3441
20587SOL    HW266609   8.071   6.494   2.533 -0.2761 -0.5378 -0.7679
20588SOL     OW66610   4.945   7.128   1.989 -0.1566  0.3545  0.0964
20588SOL    HW166611   4.923   7.038   2.015 -0.2946  0.7018  1.1858
20588SOL    HW266612   4.956   7.175   2.071  1.9848  0.8427 -0.4441
20589SOL     OW66613   5.212   6.543   0.427 -0.5607 -0.1442 -0.1340
20589SOL    HW166614   5.305   6.552   0.450 -0.8675  0.3297  0.9437
20589SOL    HW266615   5.206   6.457   0.385  0.6320  0.4308 -1.5608
20590SOL     OW66616   6.767   5.491   2.642  0.3362 -0.1863 -0.7826
20590SOL    HW166617   6.811   5.520   2.721 -0.9795 -1.9304  0.6362
20590SOL    HW266618   6.700   5.557   2.625  0.0482 -0.2529  0.0786
20591SOL     OW66619   7.266   4.967   6.571  0.7328 -0.4775  0.5012
20591SOL    HW166620   7.283   4.906   6.643  0.1917  0.0249  1.0580
20591SOL    HW266621   7.172   4.984   6.575  0.9412  0.6686  0.5704
20592SOL     OW66622   7.088   7.905   3.206 -0.1304 -0.5343 -0.2171
20592SOL    HW166623   7.023   7.843   3.240  0.2117 -1.3975 -1.0911
20592SOL    HW266624   7.101   7.967   3.277 -0.4901 -1.4713  0.6926
20593SOL     OW66625   6.049   7.265   4.175  0.4888  0.0817 -0.6157
20593SOL    HW166626   6.067   7.196   4.238  0.3853 -0.5087 -1.2359
20593SOL    HW266627   5.984   7.321   4.219  0.9974  0.1127  0.1063
20594SOL     OW66628   7.278   7.944   4.421 -0.2050 -0.1810  0.2549
20594SOL    HW166629   7.285   8.029   4.377  1.8473 -1.2793 -1.6912
20594SOL    HW266630   7.196   7.906   4.388  0.9718 -0.7027 -2.2161
20595SOL     OW66631   5.980   9.355   3.060 -0.5507 -0.4313 -0.1395
20595SOL    HW166632   5.898   9.341   3.012  0.2102 -0.1090 -1.5379
20595SOL    HW266633   5.954   9.349   3.152 -2.8246  3.1635 -0.4600
20596SOL     OW66634   7.466   4.819   3.856 -0.2079  0.3303 -0.0309
20596SOL    HW166635   7.395   4.878   3.880 -0.9640  0.1648 -1.8178
20596SOL    HW266636   7.531   4.875   3.813  0.5531  0.4049  1.1915
20597SOL     OW66637   6.106   7.831   3.418  0.2474  0.0025  0.0498
20597SOL    HW166638   6.064   7.917   3.419 -1.4719 -0.7444 -2.3652
20597SOL    HW266639   6.113   7.807   3.510 -1.2412  1.7985  0.6708
20598SOL     OW66640   7.138   6.938   7.909 -0.4261  0.0507  0.4187
20598SOL    HW166641   7.081   6.965   7.981 -0.6525  1.0847 -0.1374
20598SOL    HW266642   7.129   6.843   7.905  0.8938 -0.2020  2.8427
20599SOL     OW66643   6.448   7.835   5.052  0.1836  0.1592 -0.0051
20599SOL    HW166644   6.484   7.882   4.977  2.0786 -0.5884  0.3885
20599SOL    HW266645   6.377   7.891   5.084  0.9215  1.6460 -0.9022
20600SOL     OW66646   5.254   7.614   4.173 -0.1828  0.2051  0.0112
20600SOL    HW166647   5.348   7.630   4.178 -0.3093  0.8567  0.3687
20600SOL    HW266648   5.221   7.632   4.261 -0.5957 -0.2997 -0.0417
20601SOL     OW66649   7.611   7.427   3.496 -0.1423 -0.1921 -0.2268
20601SOL    HW166650   7.637   7.416   3.405 -1.3854  0.0753 -0.6175
20601SOL    HW266651   7.640   7.515   3.520 -0.8369  0.1699 -0.7120
20602SOL     OW66652   7.896   6.462   5.445 -0.0305 -0.3394 -0.7467
20602SOL    HW166653   7.923   6.460   5.353  0.2630  1.5278 -0.6988
20602SOL    HW266654   7.975   6.484   5.494 -0.8793  1.8384 -0.3299
20603SOL     OW66655   6.922   7.195   5.721  0.3356  0.1209  0.0302
20603SOL    HW166656   6.932   7.139   5.798  1.0492  1.3953  0.8790
20603SOL    HW266657   7.006   7.189   5.675  0.0886 -0.2390 -0.3732
20604SOL     OW66658   6.854   6.273   5.499 -0.2799 -0.1653 -0.1400
20604SOL    HW166659   6.895   6.189   5.481 -1.7971 -1.2631  1.2701
20604SOL    HW266660   6.836   6.271   5.593 -0.8533  1.4991 -0.1894
20605SOL     OW66661   6.161   9.424   2.874 -0.1797 -0.1393  0.0977
20605SOL    HW166662   6.104   9.397   2.946 -0.0867 -3.5705 -1.0596
20605SOL    HW266663   6.131   9.374   2.799  1.9692  0.7886 -1.4288
20606SOL     OW66664   7.683   7.302   4.875  0.1654  0.2611 -0.3526
20606SOL    HW166665   7.681   7.389   4.915  0.4849 -0.7063  1.8184
20606SOL    HW266666   7.761   7.260   4.912 -0.6876 -1.3930 -0.3835
20607SOL     OW66667   4.319   9.219   4.138  0.4633 -0.4710 -0.1449
20607SOL    HW166668   4.238   9.169   4.126 -0.0946  0.2528  0.5084
20607SOL    HW266669   4.318   9.283   4.066 -1.9677  2.6717  2.5519
20608SOL     OW66670   7.111   8.099   4.014  0.3798 -0.4611 -0.7886
20608SOL    HW166671   7.059   8.120   4.092  1.9003  0.5585 -0.0134
20608SOL    HW266672   7.087   8.167   3.951  1.5222  0.6264 -0.0671
20609SOL     OW66673   6.668   6.335   2.868  0.3591 -0.2018  0.0099
20609SOL    HW166674   6.638   6.320   2.778  2.7460 -1.7483 -0.5626
20609SOL    HW266675   6.712   6.420   2.864  0.0180 -0.0329 -0.1807
20610SOL     OW66676   6.892   5.555   7.183  0.2138 -0.7003 -0.2504
20610SOL    HW166677   6.880   5.571   7.089 -1.9418  0.2389  0.1474
20610SOL    HW266678   6.886   5.642   7.223  2.4608 -0.9231  0.6636
20611SOL     OW66679   7.844   7.340   5.515 -0.5516 -0.7668  0.2408
20611SOL    HW166680   7.891   7.365   5.595 -0.7418  0.2133  0.0490
20611SOL    HW266681   7.889   7.386   5.445 -1.1634 -0.6218 -0.0644
20612SOL     OW66682   5.955   7.504   3.213  0.6280  0.2284  0.2340
20612SOL    HW166683   6.027   7.567   3.204 -0.0450  1.2004  1.6076
20612SOL    HW266684   5.896   7.543   3.277 -0.6701 -1.0035 -0.1817
20613SOL     OW66685   6.491   9.621   3.533 -0.3154  0.4995  0.3422
20613SOL    HW166686   6.430   9.578   3.472 -0.3340  1.2982 -0.2017
20613SOL    HW266687   6.577   9.612   3.492  0.0442 -1.1807  1.4099
20614SOL     OW66688   7.713   8.593   3.138 -0.3410  0.7647 -0.0525
20614SOL    HW166689   7.766   8.513   3.143 -2.9932 -1.0046  1.2250
20614SOL    HW266690   7.775   8.661   3.111  2.6087 -1.1428  1.5464
20615SOL     OW66691   5.930   5.685   3.354  0.3315 -0.3657 -0.3082
20615SOL    HW166692   5.920   5.602   3.308  2.1922 -0.0985 -1.2425
20615SOL    HW266693   6.024   5.692   3.371  0.0758  1.1059  0.5949
20616SOL     OW66694   5.677   7.510   4.000 -0.2090  0.2952  0.2562
20616SOL    HW166695   5.703   7.553   3.918  0.2870  1.5576  1.0586
20616SOL    HW266696   5.684   7.417   3.981  2.8002  0.5796 -0.2442
20617SOL     OW66697   7.968   8.574   6.116 -0.4446 -0.7139 -0.2372
20617SOL    HW166698   8.022   8.650   6.139 -1.3372 -0.2322  0.2927
20617SOL    HW266699   7.881   8.610   6.100 -0.8389 -1.6034 -0.1556
20618SOL     OW66700   6.542   7.048   3.302  0.4313  0.0899  0.0508
20618SOL    HW166701   6.548   6.981   3.370  0.1287  1.1186  1.0993
20618SOL    HW266702   6.628   7.045   3.258  0.9868  0.1104  1.1198
20619SOL     OW66703   6.721   8.554   5.298  0.2815 -0.0073 -0.4407
20619SOL    HW166704   6.766   8.544   5.215 -0.3151 -0.5269 -0.7069
20619SOL    HW266705   6.628   8.553   5.275  0.1230  1.6168  0.0368
20620SOL     OW66706   6.799   6.949   2.569 -0.1967  0.0995  0.1491
20620SOL    HW166707   6.750   6.879   2.612  0.8010 -0.3482  0.5778
20620SOL    HW266708   6.837   6.999   2.641  0.0004  0.4297 -0.1799
20621SOL     OW66709   6.240   9.169   5.516 -0.0660  0.2656  0.0499
20621SOL    HW166710   6.201   9.226   5.582 -1.0092  1.4326 -1.4569
20621SOL    HW266711   6.166   9.137   5.465  0.6501 -0.5038 -0.5183
20622SOL     OW66712   6.917   7.570   6.615 -0.3056  0.1130 -0.1532
20622SOL    HW166713   6.936   7.554   6.708  1.7214 -0.2520 -0.6144
20622SOL    HW266714   6.902   7.665   6.610 -0.8490  0.0787  0.5962
20623SOL     OW66715   8.730   7.345   4.171 -0.1778 -0.5085  0.1399
20623SOL    HW166716   8.675   7.287   4.117 -0.4204 -0.0233 -0.1387
20623SOL    HW266717   8.749   7.294   4.249 -1.8218 -0.3582  0.6645
20624SOL     OW66718   7.247   7.075   3.272 -0.3280  0.0736 -0.4019
20624SOL    HW166719   7.306   7.142   3.307  0.2761 -0.5144 -0.2983
20624SOL    HW266720   7.273   7.066   3.180  1.4436 -2.0090  0.2784
20625SOL     OW66721   6.233   7.483   3.683  0.8401 -0.0781 -0.5083
20625SOL    HW166722   6.194   7.431   3.612  0.1180 -0.1122 -0.0932
20625SOL    HW266723   6.327   7.483   3.664  0.8398 -1.4476 -0.5838
20626SOL     OW66724   6.616   7.361   4.131  0.2222  0.5445  0.0766
20626SOL    HW166725   6.699   7.355   4.178 -1.4127 -1.4001  2.8373
20626SOL    HW266726   6.611   7.278   4.082  0.0700  0.8346 -0.4029
20627SOL     OW66727   6.421   8.247   2.975  0.0881  0.4830  0.1170
20627SOL    HW166728   6.478   8.235   3.051  2.0115  2.1990 -1.0053
20627SOL    HW266729   6.400   8.341   2.975  0.4107  0.5712 -1.6536
20628SOL     OW66730   6.419   8.502   6.776  0.0655 -0.3725 -0.1263
20628SOL    HW166731   6.511   8.519   6.796  0.0411 -1.2150  0.7517
20628SOL    HW266732   6.401   8.417   6.817 -1.2243 -0.0066  0.0748
20629SOL     OW66733   7.527   6.706   5.239  0.5466 -0.1974 -0.4352
20629SOL    HW166734   7.500   6.795   5.220 -1.3058 -0.5432  0.4529
20629SOL    HW266735   7.513   6.658   5.156  2.3913  0.5119 -1.1670
20630SOL     OW66736   6.393   6.740   3.683 -0.2527  0.5500  0.1866
20630SOL    HW166737   6.404   6.707   3.593 -0.2176  1.2405 -0.0709
20630SOL    HW266738   6.442   6.678   3.737 -1.2912 -0.5634 -0.1276
20631SOL     OW66739   7.265   7.597   6.255  0.1326 -0.0097  0.4338
20631SOL    HW166740   7.183   7.570   6.213  1.2764 -0.7886 -1.3664
20631SOL    HW266741   7.332   7.580   6.189  2.1102 -2.0935  2.8842
20632SOL     OW66742   5.622   6.132   1.587 -0.2001  0.1771 -0.3542
20632SOL    HW166743   5.606   6.100   1.498 -2.3797  0.9568 -0.2859
20632SOL    HW266744   5.644   6.054   1.637  0.0587 -0.4127 -1.3649
20633SOL     OW66745   6.650   7.157   4.396  0.3707 -0.2301 -0.2790
20633SOL    HW166746   6.742   7.138   4.413  0.2469 -0.3483  0.2798
20633SOL    HW266747   6.648   7.189   4.306  0.9754 -0.1145 -0.2542
20634SOL     OW66748   4.715   8.023   5.692 -0.2812  0.3929 -0.0974
20634SOL    HW166749   4.719   8.103   5.744  1.2864 -0.3414  0.9566
20634SOL    HW266750   4.744   7.954   5.752  0.7289 -0.6096 -1.7057
20635SOL     OW66751   6.174   6.307   1.780 -0.2740  0.3287  0.3046
20635SOL    HW166752   6.196   6.292   1.689  1.7733 -0.1403  0.8483
20635SOL    HW266753   6.195   6.225   1.824 -0.7336  0.7286  1.2910
20636SOL     OW66754   6.479   8.443   4.435  0.1333  0.0575  0.6417
20636SOL    HW166755   6.494   8.420   4.527  1.2437  2.0965  1.0073
20636SOL    HW266756   6.459   8.536   4.437  2.6990  0.7273 -1.4120
20637SOL     OW66757   8.320   7.777   3.997  0.5360  0.2154  0.3345
20637SOL    HW166758   8.301   7.803   4.087  0.4400  2.0787 -0.2023
20637SOL    HW266759   8.321   7.681   4.000  0.4339  0.2422  2.2882
20638SOL     OW66760   7.144   7.034   4.940  0.0552  0.1789 -0.6917
20638SOL    HW166761   7.115   7.111   4.892  1.1534  1.2156  0.2803
20638SOL    HW266762   7.203   6.988   4.881 -0.7420 -0.0359 -1.3368
20639SOL     OW66763   4.960   7.985   3.694  0.9789 -0.2836 -0.2671
20639SOL    HW166764   4.966   7.928   3.770 -1.2834 -0.8485 -0.4699
20639SOL    HW266765   4.888   8.045   3.714  2.1425  1.3445 -0.8194
20640SOL     OW66766   8.336   6.415   4.007 -0.7718  0.3244 -0.4300
20640SOL    HW166767   8.355   6.375   3.922  1.3150  1.3624 -0.5048
20640SOL    HW266768   8.394   6.371   4.068  0.3222  1.9924 -0.2132
20641SOL     OW66769   6.789   6.044   2.806 -0.3870  0.5756  0.0355
20641SOL    HW166770   6.781   6.131   2.766  0.7816  0.0729 -1.3249
20641SOL    HW266771   6.764   5.983   2.737 -2.3421 -0.1522  1.3364
20642SOL     OW66772   5.475   7.824   4.881 -0.1813  0.5974 -0.1243
20642SOL    HW166773   5.407   7.878   4.922 -0.1831  0.0424  0.6401
20642SOL    HW266774   5.537   7.807   4.952 -0.3836 -0.7054 -0.2311
20643SOL     OW66775   7.454   8.986   3.105 -0.2921 -0.5616  0.3314
20643SOL    HW166776   7.473   8.910   3.050 -2.5514 -0.7955 -0.1853
20643SOL    HW266777   7.461   9.061   3.045 -0.4314 -0.5894  0.2807
20644SOL     OW66778   6.072   8.336   4.493  0.3366 -0.0263  0.7122
20644SOL    HW166779   6.029   8.420   4.511 -0.0189 -0.0628  0.0391
20644SOL    HW266780   6.022   8.299   4.420  0.3985 -0.8890  1.1007
20645SOL     OW66781   5.519   8.031   5.761  0.5023 -0.0088  0.1767
20645SOL    HW166782   5.469   7.958   5.798  0.3162 -0.0149 -0.0856
20645SOL    HW266783   5.590   8.046   5.823  2.0414 -2.0902 -1.0428
20646SOL     OW66784   9.180   6.558   4.328  0.8434 -0.5106  0.7491
20646SOL    HW166785   9.171   6.633   4.270  0.7951 -0.6357  0.5923
20646SOL    HW266786   9.169   6.593   4.416 -0.1594 -0.4876  0.6223
20647SOL     OW66787   5.689   6.020   3.369 -0.3909 -0.7462 -0.2519
20647SOL    HW166788   5.607   6.037   3.323 -0.2332 -1.1129 -0.6804
20647SOL    HW266789   5.680   5.930   3.401  0.2797 -1.1901 -1.2622
20648SOL     OW66790   7.615   8.334   3.440  0.2830  0.1518  0.2618
20648SOL    HW166791   7.593   8.332   3.533  2.0084 -2.7087  0.6578
20648SOL    HW266792   7.674   8.409   3.430 -1.0430  1.3429  1.1513
20649SOL     OW66793   5.411   7.793   3.921 -0.1718  0.4088  0.0157
20649SOL    HW166794   5.418   7.741   4.001 -0.1296 -1.4952 -1.1965
20649SOL    HW266795   5.501   7.822   3.904 -0.0874  0.3495  0.3539
20650SOL     OW66796   5.597   4.062   3.418 -0.1035 -0.8242  0.4515
20650SOL    HW166797   5.676   4.092   3.462 -0.5481  2.5169 -0.8585
20650SOL    HW266798   5.534   4.046   3.489  0.5530  0.1937  1.2767
20651SOL     OW66799   6.499   7.569   4.997 -0.2083  0.0372  0.6147
20651SOL    HW166800   6.474   7.661   4.994 -0.0385  0.0716  0.1785
20651SOL    HW266801   6.473   7.540   5.084  4.3591  1.8241  2.7100
20652SOL     OW66802   8.636   8.363   4.977 -0.2288 -0.2005  0.1009
20652SOL    HW166803   8.621   8.441   5.030  0.7020 -0.0233  0.1116
20652SOL    HW266804   8.723   8.333   5.002 -0.2311 -0.7497 -0.5294
20653SOL     OW66805   6.321   7.074   4.585  0.2863  0.3039 -0.3618
20653SOL    HW166806   6.228   7.056   4.599  0.1225  0.7870 -0.7847
20653SOL    HW266807   6.322   7.157   4.537  0.9405  0.3544 -0.2665
20654SOL     OW66808   6.924   5.593   5.577  0.0515 -0.4704  0.1128
20654SOL    HW166809   6.920   5.530   5.505  1.5291  0.8719 -1.1788
20654SOL    HW266810   6.978   5.549   5.643 -0.2975 -1.2275 -0.1040
20655SOL     OW66811   7.634   6.902   3.329  0.0262 -0.2944 -0.0284
20655SOL    HW166812   7.624   6.894   3.234  2.2838  1.3492 -0.4491
20655SOL    HW266813   7.613   6.994   3.347 -0.3797 -0.5922  1.0847
20656SOL     OW66814   7.303   5.374   3.436 -0.0718  0.2429 -0.2192
20656SOL    HW166815   7.315   5.334   3.350  2.2126 -2.5156  1.3001
20656SOL    HW266816   7.358   5.452   3.435 -0.0026  0.1801 -1.2415
20657SOL     OW66817   7.183   7.156   5.423  0.3043  0.0381 -0.1810
20657SOL    HW166818   7.147   7.077   5.463  0.6477 -0.3195 -0.5711
20657SOL    HW266819   7.160   7.227   5.483  0.9621 -0.5132  0.7191
20658SOL     OW66820   7.153   5.547   2.064 -0.0539 -0.2373 -0.3558
20658SOL    HW166821   7.244   5.570   2.045 -0.2772  0.9699  0.0163
20658SOL    HW266822   7.131   5.482   1.997  1.0806 -0.5630 -0.4322
20659SOL     OW66823   6.603   8.030   5.227  0.5872  0.1842  0.2411
20659SOL    HW166824   6.637   8.051   5.140  0.4058  1.3969  0.4587
20659SOL    HW266825   6.601   8.114   5.274 -0.3319 -0.2717  1.0530
20660SOL     OW66826   6.244   7.984   6.338  0.1375 -0.2778 -0.3070
20660SOL    HW166827   6.157   7.989   6.298  0.2360 -0.1222 -0.5009
20660SOL    HW266828   6.231   8.016   6.427  0.0794  0.1334 -0.4646
20661SOL     OW66829   6.890   9.196   5.071 -0.0732 -0.1962  0.4136
20661SOL    HW166830   6.800   9.191   5.103 -0.3944  1.9977 -0.0916
20661SOL    HW266831   6.905   9.112   5.028 -2.0583 -0.3683  0.0197
20662SOL     OW66832   4.091   5.667   3.151  0.1175 -0.6189  0.2177
20662SOL    HW166833   3.996   5.679   3.154  0.0965 -1.2976  3.3613
20662SOL    HW266834   4.123   5.710   3.230  2.4300 -0.5756 -0.7102
20663SOL     OW66835   7.420   4.550   3.931 -0.4001  0.3480  0.2223
20663SOL    HW166836   7.431   4.643   3.913 -0.8377  0.2624 -0.4882
20663SOL    HW266837   7.504   4.511   3.908 -0.3227  0.5232  0.2105
20664SOL     OW66838   6.704   8.234   5.624 -0.3789  0.5484 -0.4429
20664SOL    HW166839   6.626   8.201   5.669  0.1045 -1.6469 -1.1607
20664SOL    HW266840   6.739   8.301   5.683 -2.1310  0.7250  0.4385
20665SOL     OW66841   6.311   7.405   3.084  0.1858  0.2254 -0.1454
20665SOL    HW166842   6.319   7.348   3.161  2.3259 -0.3080 -0.7261
20665SOL    HW266843   6.351   7.488   3.111  2.2550 -0.4219 -1.0925
20666SOL     OW66844   6.590   6.835   3.943 -0.1542  0.3884  0.2608
20666SOL    HW166845   6.586   6.810   4.036 -0.8311 -0.4516  0.0050
20666SOL    HW266846   6.585   6.752   3.896 -0.7203  0.8883 -0.5527
20667SOL     OW66847   4.705   8.600   4.353  0.1170  0.2924 -0.3733
20667SOL    HW166848   4.609   8.605   4.354  0.1571  1.0201  0.4593
20667SOL    HW266849   4.732   8.656   4.426  1.0783 -1.9638  1.0408
20668SOL     OW66850   6.915   8.061   3.466  0.1522 -0.6328 -0.1141
20668SOL    HW166851   6.927   8.099   3.379 -0.3217 -0.6773 -0.2023
20668SOL    HW266852   6.878   8.132   3.518  2.6574  0.1120  0.6934
20669SOL     OW66853   7.377   6.010   5.059  0.0343  0.0027  0.2772
20669SOL    HW166854   7.287   5.983   5.077  0.3167 -1.3898 -0.3554
20669SOL    HW266855   7.390   5.988   4.967  1.3455 -0.7148  0.6303
20670SOL     OW66856   7.824   5.429   5.127 -0.7451  0.0514 -0.4054
20670SOL    HW166857   7.830   5.354   5.186  0.7199  0.3796 -0.1093
20670SOL    HW266858   7.778   5.496   5.177  0.8336  0.4658  0.5520
20671SOL     OW66859   7.530   6.123   6.463  0.4112 -0.1916  0.0903
20671SOL    HW166860   7.549   6.069   6.387  0.2090  0.0751 -0.1497
20671SOL    HW266861   7.562   6.210   6.440 -1.0747  0.2703 -0.3165
20672SOL     OW66862   6.776   4.385   3.227  0.1148 -0.2237 -0.0517
20672SOL    HW166863   6.709   4.370   3.160  2.7836 -1.9548 -2.4600
20672SOL    HW266864   6.731   4.368   3.310 -2.6576 -0.3646 -1.5221
20673SOL     OW66865   7.756   7.344   4.420 -0.1267 -0.3719  0.0758
20673SOL    HW166866   7.845   7.311   4.406  0.1223 -0.1027  0.9513
20673SOL    HW266867   7.729   7.377   4.335  1.6747  2.0728  0.4091
20674SOL     OW66868   6.923   6.305   4.669 -0.7243 -0.1157  0.2925
20674SOL    HW166869   6.938   6.399   4.672 -0.4713 -0.1899  1.4873
20674SOL    HW266870   6.989   6.272   4.607 -0.5615  0.4362  0.1723
20675SOL     OW66871   8.003   7.215   4.450  0.1744 -0.3084 -0.4183
20675SOL    HW166872   8.081   7.220   4.395 -0.1965 -0.2989 -0.9498
20675SOL    HW266873   8.037   7.204   4.539  0.7780 -0.3645 -0.6525
20676SOL     OW66874   7.117   7.486   3.230 -0.0224  0.1043  0.0779
20676SOL    HW166875   7.205   7.449   3.242 -0.6028 -1.2370  0.3282
20676SOL    HW266876   7.060   7.431   3.284 -0.8926  1.5320  0.6312
20677SOL     OW66877   7.175   8.621   2.070  0.2695  0.2231 -0.2563
20677SOL    HW166878   7.177   8.707   2.029  1.2204 -0.8201 -2.5021
20677SOL    HW266879   7.184   8.560   1.997 -0.2990 -1.7741  1.3115
20678SOL     OW66880   6.806   7.721   4.700 -0.1155 -0.1612 -0.2383
20678SOL    HW166881   6.901   7.709   4.708 -0.0157  1.0429  0.3772
20678SOL    HW266882   6.774   7.723   4.790 -0.5335  0.9930 -0.4058
20679SOL     OW66883   6.458   7.216   1.797 -0.3491 -0.1002 -0.3690
20679SOL    HW166884   6.447   7.253   1.885 -0.6122 -1.9024  0.3702
20679SOL    HW266885   6.502   7.285   1.748  0.3623  0.6973  1.3436
20680SOL     OW66886   8.492   6.119   5.543 -0.0197  0.0829 -0.8354
20680SOL    HW166887   8.479   6.030   5.508 -0.4867 -0.4540  0.6478
20680SOL    HW266888   8.586   6.133   5.538  0.3409 -1.4535  1.1403
20681SOL     OW66889   6.971   8.749   5.275  0.6318 -0.2651  0.6919
20681SOL    HW166890   7.061   8.749   5.310 -0.5310 -2.1272  3.9222
20681SOL    HW266891   6.959   8.661   5.240  1.0370  0.9297 -2.6889
20682SOL     OW66892   5.858   7.946   5.241  0.0550  0.0605  0.2106
20682SOL    HW166893   5.900   7.983   5.164  0.2727  0.8595  0.7095
20682SOL    HW266894   5.928   7.898   5.286 -0.1712 -0.7779 -0.3066
20683SOL     OW66895   6.852   8.065   5.441  0.6442 -0.0776 -0.2306
20683SOL    HW166896   6.812   8.135   5.491  0.9264 -0.1357  0.0750
20683SOL    HW266897   6.875   8.106   5.357 -1.5082 -0.4491 -1.0171
20684SOL     OW66898   8.103   5.621   4.221 -0.0939 -0.3744 -0.1216
20684SOL    HW166899   8.158   5.689   4.181  1.6777 -1.4028  0.5286
20684SOL    HW266900   8.103   5.550   4.157 -2.5157  0.4610 -1.1156
20685SOL     OW66901   7.996   4.537   5.551 -0.3210 -0.2152  0.4958
20685SOL    HW166902   8.035   4.454   5.577 -0.6174 -0.6627 -0.4584
20685SOL    HW266903   8.043   4.603   5.602  1.9352 -0.7100 -0.8940
20686SOL     OW66904   6.252   7.883   4.758 -0.4091  0.9348  0.0314
20686SOL    HW166905   6.342   7.911   4.776 -1.2766  3.1303  1.0993
20686SOL    HW266906   6.207   7.963   4.732 -1.6803 -0.4343 -2.1640
20687SOL     OW66907   4.822   7.096   0.923 -0.3559 -0.1663 -0.3607
20687SOL    HW166908   4.875   7.107   0.844  0.7804  0.3592  0.4570
20687SOL    HW266909   4.736   7.129   0.899 -0.1870 -0.5684 -1.5609
20688SOL     OW66910   5.986   6.998   7.496 -0.1234  0.0750  0.0585
20688SOL    HW166911   5.924   7.068   7.474  0.4117  0.8656  0.9890
20688SOL    HW266912   6.072   7.037   7.479  0.1993 -0.1474  1.1677
20689SOL     OW66913   6.841   4.111   5.317 -0.0393 -0.1133 -0.2703
20689SOL    HW166914   6.911   4.045   5.322 -0.5247 -0.6235 -0.0904
20689SOL    HW266915   6.795   4.103   5.400 -0.9411 -0.5016 -0.8013
20690SOL     OW66916   6.801   5.922   5.497 -0.3806 -0.4578 -0.0093
20690SOL    HW166917   6.710   5.920   5.526 -0.8101 -0.3588 -1.3253
20690SOL    HW266918   6.797   5.962   5.410  1.0401  0.5295  0.3716
20691SOL     OW66919   6.281   6.639   2.482  0.3608  0.2846  0.3207
20691SOL    HW166920   6.221   6.623   2.556  0.8397 -1.1930  0.3863
20691SOL    HW266921   6.227   6.686   2.418 -0.3148  0.7637  1.2268
20692SOL     OW66922   7.536   6.071   4.449 -0.3987 -0.1681  0.2261
20692SOL    HW166923   7.621   6.087   4.490 -1.2308 -1.2202  2.4141
20692SOL    HW266924   7.549   5.990   4.399  0.3261  0.5641 -0.7983
20693SOL     OW66925   7.432   7.667   3.074 -0.3421 -0.0138  0.3081
20693SOL    HW166926   7.369   7.710   3.017 -0.0212  0.9918  0.6924
20693SOL    HW266927   7.419   7.573   3.059 -1.7216  0.1944  0.1768
20694SOL     OW66928   6.146   7.354   4.663  0.1333  0.0694  0.0050
20694SOL    HW166929   6.188   7.330   4.746  0.9600  2.0984  0.1936
20694SOL    HW266930   6.155   7.449   4.658 -0.7977  0.0759 -1.9450
20695SOL     OW66931   7.880   6.770   4.383 -0.2525 -0.7548  0.3439
20695SOL    HW166932   7.829   6.850   4.370  1.2177 -0.2647 -2.7677
20695SOL    HW266933   7.960   6.799   4.425 -1.0655 -1.0734  2.1647
20696SOL     OW66934   6.426   5.800   2.537  0.7025 -0.0321 -0.9299
20696SOL    HW166935   6.473   5.854   2.473  0.0622  0.6882 -0.7881
20696SOL    HW266936   6.399   5.723   2.488  2.3639 -0.6307 -0.9262
20697SOL     OW66937   6.979   6.742   6.089  0.2576  0.1136 -0.7050
20697SOL    HW166938   7.058   6.742   6.143  0.5026  0.7679 -1.0489
20697SOL    HW266939   6.909   6.771   6.147  0.6695  1.6260 -0.9257
20698SOL     OW66940   7.955   5.731   3.323 -0.2525  0.4438  0.1403
20698SOL    HW166941   7.939   5.825   3.317  0.1206  0.5086  0.1575
20698SOL    HW266942   7.985   5.706   3.236 -0.5403  0.3040  0.0803
20699SOL     OW66943   8.193   7.514   5.950  0.4777  0.4846  0.7012
20699SOL    HW166944   8.175   7.532   6.042  0.2727  1.8191  0.4148
20699SOL    HW266945   8.289   7.512   5.944  0.4990  1.3971  0.7578
20700SOL     OW66946   7.898   6.115   6.026 -0.0089 -0.2592  0.3272
20700SOL    HW166947   7.943   6.063   6.093  0.1445  0.1125  0.5119
20700SOL    HW266948   7.968   6.144   5.967 -0.2005 -1.0038 -0.2865
20701SOL     OW66949   7.113   5.758   5.421  0.1254  0.5229 -0.0575
20701SOL    HW166950   7.208   5.750   5.424  0.1791  0.9697 -0.5180
20701SOL    HW266951   7.081   5.669   5.404  0.3425 -0.0809  2.4586
20702SOL     OW66952   6.280   8.479   2.948 -0.0501  0.3319  0.6737
20702SOL    HW166953   6.287   8.546   2.880  0.2906 -0.4005 -0.0250
20702SOL    HW266954   6.222   8.413   2.911  0.0659 -0.0352  1.1335
20703SOL     OW66955   7.286   9.492   4.427  0.1422 -0.2748 -0.2694
20703SOL    HW166956   7.243   9.568   4.465  0.0240  0.2230 -1.3787
20703SOL    HW266957   7.305   9.435   4.502 -0.6042  0.4192  0.4593
20704SOL     OW66958   6.653   6.311   6.025  0.0852  0.4326 -0.4451
20704SOL    HW166959   6.704   6.288   6.102  1.9386  0.5790 -1.5848
20704SOL    HW266960   6.673   6.403   6.008 -3.1113  1.4567  0.9494
20705SOL     OW66961   5.267   6.401   2.070  0.6581  0.5030 -0.4050
20705SOL    HW166962   5.234   6.366   1.987 -3.5845  0.2639  1.2769
20705SOL    HW266963   5.294   6.323   2.120  1.2716  0.5031 -0.7231
20706SOL     OW66964   6.268   8.445   6.054  0.0998 -0.2815 -0.2778
20706SOL    HW166965   6.306   8.485   5.976 -3.3335 -0.4013 -2.1214
20706SOL    HW266966   6.200   8.507   6.082  0.1800 -1.0205  1.6397
20707SOL     OW66967   7.523   7.750   3.797  0.4075 -0.3661 -0.4923
20707SOL    HW166968   7.529   7.738   3.702  1.1978  0.4330 -0.5429
20707SOL    HW266969   7.603   7.712   3.832  0.8131  0.6945 -0.2698
20708SOL     OW66970   6.273   7.823   2.576 -0.3914  0.8288  0.1079
20708SOL    HW166971   6.298   7.914   2.593 -0.9698  1.0351 -0.1326
20708SOL    HW266972   6.216   7.828   2.499 -1.6668  0.4286  1.0109
20709SOL     OW66973   5.710   7.164   2.666  0.0748  0.4681  0.6562
20709SOL    HW166974   5.690   7.256   2.684 -1.0917  0.5184 -0.8630
20709SOL    HW266975   5.806   7.159   2.671  0.3904  2.3998 -2.1219
20710SOL     OW66976   6.113   8.236   3.236  0.4306 -0.0222  0.0086
20710SOL    HW166977   6.045   8.181   3.274  0.9003 -0.5780  0.0427
20710SOL    HW266978   6.193   8.184   3.242  0.8395  0.5806 -0.1400
20711SOL     OW66979   5.347   8.306   5.753 -0.3462  0.3175  0.1663
20711SOL    HW166980   5.252   8.296   5.758 -0.4574  0.6232 -1.2766
20711SOL    HW266981   5.382   8.225   5.791 -1.1583  0.6726  1.7256
20712SOL     OW66982   7.265   6.130   4.650 -0.4696  0.3977  0.2934
20712SOL    HW166983   7.258   6.109   4.557  2.1559  0.7056 -0.0055
20712SOL    HW266984   7.293   6.048   4.691  1.0521  0.9644  0.4083
20713SOL     OW66985   7.890   8.745   2.972 -0.2817 -0.3249  0.2944
20713SOL    HW166986   7.866   8.834   2.948 -1.8041 -0.6754  0.4799
20713SOL    HW266987   7.985   8.741   2.960 -0.1923  1.3551  0.4272
20714SOL     OW66988   7.043   6.140   2.607  0.4181  0.2502  0.0465
20714SOL    HW166989   7.120   6.179   2.565 -0.7541  1.5648 -0.9391
20714SOL    HW266990   7.044   6.049   2.579  0.7029  0.6651 -1.3392
20715SOL     OW66991   7.132   8.413   4.951  0.4732  0.2589 -0.4114
20715SOL    HW166992   7.210   8.384   4.998  0.3209  0.5690  0.0403
20715SOL    HW266993   7.125   8.506   4.971 -0.0729  0.2111 -0.3592
20716SOL     OW66994   7.520   6.642   4.335 -0.1019  0.2014 -0.1715
20716SOL    HW166995   7.495   6.677   4.421 -0.8664  0.1015 -0.3452
20716SOL    HW266996   7.437   6.632   4.289  0.3915  1.3462 -1.3440
20717SOL     OW66997   6.661   7.136   6.381 -0.1742  0.0846  0.6934
20717SOL    HW166998   6.616   7.167   6.303  0.1919  0.7261  0.7367
20717SOL    HW266999   6.700   7.214   6.419  2.4951 -0.7168 -0.3229
20718SOL     OW67000   8.182   6.217   7.505  0.0791  0.0094 -0.3318
20718SOL    HW167001   8.135   6.278   7.561 -1.1848  0.0200 -1.4051
20718SOL    HW267002   8.274   6.229   7.529 -0.4596 -0.1482  1.8922
20719SOL     OW67003   5.731   7.836   3.064 -0.2407  0.2213 -0.3006
20719SOL    HW167004   5.704   7.768   3.125  0.0074 -0.7322 -1.2449
20719SOL    HW267005   5.658   7.843   3.002  0.0235  0.3426 -0.6024
20720SOL     OW67006   5.424   8.385   4.130  0.1328 -0.4157 -0.1507
20720SOL    HW167007   5.409   8.477   4.153  2.0431 -0.5686  1.9292
20720SOL    HW267008   5.386   8.375   4.043 -0.0725  2.3644 -0.4146
20721SOL     OW67009   7.579   7.525   4.502 -0.1225 -0.0429 -0.0005
20721SOL    HW167010   7.650   7.587   4.518 -0.5080  0.1442  0.9666
20721SOL    HW267011   7.622   7.451   4.459  0.5110  0.4409 -0.2160
20722SOL     OW67012   5.976   7.176   4.579 -0.0036  0.1213  0.1607
20722SOL    HW167013   5.946   7.140   4.663 -0.7959  0.4578  0.0262
20722SOL    HW267014   6.004   7.265   4.600  0.1978  0.0610  0.1466
20723SOL     OW67015   4.942   7.781   3.344  0.5448 -0.3083  0.0412
20723SOL    HW167016   4.992   7.722   3.401  2.4118  0.3234 -0.9108
20723SOL    HW267017   4.862   7.733   3.324  0.3899 -1.0239  2.2261
20724SOL     OW67018   7.270   5.180   6.191  0.0377 -0.0703  0.2366
20724SOL    HW167019   7.347   5.150   6.143 -0.8375 -2.8026  0.4317
20724SOL    HW267020   7.296   5.177   6.283 -0.2261 -0.7903  0.2897
20725SOL     OW67021   5.733   7.777   5.843 -0.6845 -0.2015  0.0834
20725SOL    HW167022   5.673   7.852   5.838  0.9652  1.1718  0.3956
20725SOL    HW267023   5.814   7.809   5.804 -0.0110 -1.8926  0.0867
20726SOL     OW67024   6.247   7.189   3.529  0.2228 -0.1902 -0.1191
20726SOL    HW167025   6.171   7.236   3.562 -0.0799 -0.7130 -0.0554
20726SOL    HW267026   6.209   7.122   3.471  0.5626 -1.1064  0.7009
20727SOL     OW67027   7.302   6.313   1.916  0.2034 -0.6996  0.0354
20727SOL    HW167028   7.260   6.227   1.915  0.2987 -0.7403 -1.4708
20727SOL    HW267029   7.348   6.316   1.999 -0.6457 -1.6962  0.5522
20728SOL     OW67030   7.521   8.361   4.726 -0.0442 -0.5514  0.0429
20728SOL    HW167031   7.431   8.393   4.720  0.2940  0.3504 -0.2395
20728SOL    HW267032   7.575   8.433   4.694  0.6827 -1.6887 -1.3731
20729SOL     OW67033   7.087   6.406   4.992  0.2561  0.0596 -0.0096
20729SOL    HW167034   7.119   6.465   4.925 -0.0963  1.0147  0.6510
20729SOL    HW267035   7.119   6.443   5.074 -1.1753  0.1339  0.5219
20730SOL     OW67036   6.965   7.289   2.481  0.6332  0.2755  0.1571
20730SOL    HW167037   7.029   7.332   2.424 -0.5918 -0.3362 -1.7497
20730SOL    HW267038   6.962   7.344   2.559  0.4224  2.6526 -1.4566
20731SOL     OW67039   5.000   5.994   1.613 -0.5013  0.4860  0.2092
20731SOL    HW167040   4.910   5.999   1.581 -0.9319  0.4964  1.4070
20731SOL    HW267041   5.049   6.057   1.559 -1.3041  0.8000 -0.1506
20732SOL     OW67042   4.523   9.054   4.363 -0.1753 -0.2719  0.2913
20732SOL    HW167043   4.490   8.975   4.319 -0.8036 -1.4106  2.7183
20732SOL    HW267044   4.596   9.023   4.416 -0.3058  0.8155  1.1238
20733SOL     OW67045   7.054   5.926   3.847 -0.0623 -0.4442 -0.1581
20733SOL    HW167046   7.022   5.852   3.795 -0.1518 -0.1735 -0.4839
20733SOL    HW267047   7.128   5.961   3.798  1.5558 -1.8436  1.2007
20734SOL     OW67048   5.140   6.849   1.345  0.3995 -0.4436 -0.5133
20734SOL    HW167049   5.074   6.830   1.278  0.4143  0.0524 -0.6706
20734SOL    HW267050   5.193   6.769   1.350  0.9510 -0.1642 -1.7418
20735SOL     OW67051   8.525   8.427   6.528  0.0328 -0.4517  0.5248
20735SOL    HW167052   8.574   8.454   6.606  3.0359  0.6277 -1.6601
20735SOL    HW267053   8.570   8.347   6.498 -0.8205 -0.6129 -0.3593
20736SOL     OW67054   6.831   7.570   2.262  0.3112 -0.5069  0.0754
20736SOL    HW167055   6.878   7.618   2.330  0.1164 -1.3352  0.7984
20736SOL    HW267056   6.744   7.612   2.259  0.8779  0.6434 -0.8601
20737SOL     OW67057   6.820   3.836   4.323 -0.2240  0.7204  0.3154
20737SOL    HW167058   6.838   3.742   4.328  0.8429  0.8711 -0.5558
20737SOL    HW267059   6.892   3.877   4.369  1.0108  1.2528 -2.0035
20738SOL     OW67060   8.833   7.732   5.007  0.5822  0.4831  0.3161
20738SOL    HW167061   8.843   7.758   5.098  0.5948  0.6865  0.2581
20738SOL    HW267062   8.912   7.764   4.964  1.1480 -0.6829  0.4700
20739SOL     OW67063   9.535   5.809   3.992 -0.6350  0.0513  0.6667
20739SOL    HW167064   9.505   5.900   4.001 -0.0063  0.3147  0.1272
20739SOL    HW267065   9.608   5.802   4.054 -1.6301 -0.5178  1.7962
20740SOL     OW67066   6.416   8.829   5.020 -0.1191 -0.3730 -0.1807
20740SOL    HW167067   6.363   8.902   5.054 -0.7567 -0.9377  0.0627
20740SOL    HW267068   6.358   8.784   4.959  0.3971 -0.4619 -0.6046
20741SOL     OW67069   3.468   7.360   7.902 -0.0021 -0.6120 -0.0157
20741SOL    HW167070   3.381   7.342   7.936 -0.2046 -1.5799 -1.0498
20741SOL    HW267071   3.454   7.425   7.833  0.1393 -0.5624  0.0011
20742SOL     OW67072   6.978   8.606   2.953  0.8172  0.6532 -0.5833
20742SOL    HW167073   7.038   8.606   3.028 -2.4728  1.6764  2.1819
20742SOL    HW267074   6.966   8.699   2.932 -0.1525  0.4893 -0.7731
20743SOL     OW67075   6.694   6.755   5.366  0.0155  0.5752  0.1890
20743SOL    HW167076   6.749   6.687   5.327  0.3930  0.3878  1.0333
20743SOL    HW267077   6.615   6.756   5.312 -0.4143 -1.2388  0.7557
20744SOL     OW67078   4.502   8.589   4.624  0.3736  0.2611 -0.1643
20744SOL    HW167079   4.515   8.632   4.540  1.6176 -0.2054 -0.2246
20744SOL    HW267080   4.542   8.503   4.613  1.1259  0.4340  1.1022
20745SOL     OW67081   6.544   7.394   4.486 -0.8278 -0.2263  0.1646
20745SOL    HW167082   6.590   7.388   4.570 -0.1590 -0.2286 -0.1983
20745SOL    HW267083   6.549   7.306   4.449 -2.6838 -0.6653  0.9298
20746SOL     OW67084   7.906   7.870   2.856  0.2990  0.1883  0.4711
20746SOL    HW167085   7.878   7.916   2.935 -1.0501  1.2541 -0.5871
20746SOL    HW267086   7.945   7.938   2.801 -0.2726 -0.2089 -0.4503
20747SOL     OW67087   6.543   7.809   6.239  0.6070 -0.3611 -0.4405
20747SOL    HW167088   6.495   7.827   6.320  0.5744  1.2674 -0.7971
20747SOL    HW267089   6.479   7.767   6.182 -0.0754  0.7461 -0.5025
20748SOL     OW67090   7.380   6.982   3.723  0.4516 -0.1083  0.1831
20748SOL    HW167091   7.393   6.950   3.812  0.6853 -0.6698 -0.0471
20748SOL    HW267092   7.360   6.903   3.672  1.0390  0.1118 -0.3938
20749SOL     OW67093   5.752   7.740   4.383  0.0829  0.2867 -0.2347
20749SOL    HW167094   5.683   7.765   4.444  0.6631 -0.1814  0.6172
20749SOL    HW267095   5.820   7.703   4.438 -0.3449 -2.2718 -1.3889
20750SOL     OW67096   7.415   5.649   1.988  0.3702 -0.5405  0.3945
20750SOL    HW167097   7.483   5.674   1.925 -1.1492  2.2880 -0.1963
20750SOL    HW267098   7.420   5.717   2.056 -0.6039 -1.4015  1.3395
20751SOL     OW67099   6.871   6.960   2.897 -0.5499  0.5142  0.3565
20751SOL    HW167100   6.966   6.959   2.909 -0.6566  0.8767  1.2652
20751SOL    HW267101   6.837   6.923   2.979 -1.2372  1.4413  0.4904
20752SOL     OW67102   7.374   7.646   6.574 -0.6904  0.1150 -0.4941
20752SOL    HW167103   7.345   7.572   6.627 -0.4566  1.1643  1.1708
20752SOL    HW267104   7.467   7.656   6.596 -1.3006  2.4451  1.2819
20753SOL     OW67105   8.558   7.367   5.065  0.0192  0.6630  0.1647
20753SOL    HW167106   8.567   7.434   4.997 -0.4344 -0.5394 -1.1050
20753SOL    HW267107   8.588   7.287   5.023  0.2729  0.0106  1.5792
20754SOL     OW67108   6.342   7.511   3.930 -0.2316  0.2648 -0.0052
20754SOL    HW167109   6.279   7.471   3.869 -1.9138 -0.3882  2.1004
20754SOL    HW267110   6.345   7.603   3.904  0.3347 -0.3300 -2.1165
20755SOL     OW67111   7.415   5.790   3.436  0.2699  0.3210  0.1461
20755SOL    HW167112   7.462   5.707   3.438  0.1577  0.2326 -0.5311
20755SOL    HW267113   7.482   5.855   3.415  0.1432  0.2271 -0.5820
20756SOL     OW67114   7.097   5.831   2.741 -0.6140 -0.1392  0.2548
20756SOL    HW167115   7.178   5.799   2.700 -0.2560  0.4437  0.5139
20756SOL    HW267116   7.028   5.804   2.680 -0.1186  0.4091 -0.5688
20757SOL     OW67117   7.797   7.289   5.815  0.2651  0.3039  0.2824
20757SOL    HW167118   7.762   7.376   5.834 -0.2952  0.0699  0.3401
20757SOL    HW267119   7.891   7.302   5.810  0.0806  1.1837 -1.1841
20758SOL     OW67120   4.766   7.422   1.721  0.0178  0.2934  0.4246
20758SOL    HW167121   4.808   7.490   1.668 -2.6040  1.6204 -0.0229
20758SOL    HW267122   4.739   7.467   1.801  2.8704 -1.4298  2.4615
20759SOL     OW67123   7.247   5.369   4.243  0.0805  0.1405  0.2234
20759SOL    HW167124   7.243   5.440   4.179 -0.9062 -0.7434 -0.7176
20759SOL    HW267125   7.242   5.289   4.190 -0.8276 -0.6009  1.4053
20760SOL     OW67126   5.294   7.527   7.084 -0.0147  0.3936  0.0402
20760SOL    HW167127   5.316   7.614   7.118 -1.6608  1.4299 -1.4814
20760SOL    HW267128   5.199   7.521   7.094 -0.0112 -0.9248 -0.6211
20761SOL     OW67129   5.472   5.269   3.054 -0.2156  0.4817 -0.0324
20761SOL    HW167130   5.403   5.251   2.989  1.4762 -0.6981 -1.5350
20761SOL    HW267131   5.483   5.364   3.049 -1.2125  0.6008 -0.3076
20762SOL     OW67132   8.354   7.567   4.836  0.2165  0.5838 -0.1774
20762SOL    HW167133   8.408   7.533   4.766 -0.4825  0.1944 -0.5335
20762SOL    HW267134   8.265   7.536   4.816 -0.2972  1.9161 -0.0760
20763SOL     OW67135   5.708   4.504   2.974 -0.4829  0.6062 -0.3722
20763SOL    HW167136   5.631   4.510   3.031 -0.2146 -1.3733  0.2091
20763SOL    HW267137   5.736   4.413   2.979  1.6343  1.1916 -0.9608
20764SOL     OW67138   8.304   5.971   2.774 -0.4358  0.3554  0.2429
20764SOL    HW167139   8.370   5.901   2.780 -1.5071 -0.5799  1.4421
20764SOL    HW267140   8.248   5.945   2.701 -1.1602 -0.3412  1.0357
20765SOL     OW67141   4.776   7.882   6.289 -0.9818 -0.4977 -0.5956
20765SOL    HW167142   4.816   7.961   6.252 -0.1491 -0.1487  1.0060
20765SOL    HW267143   4.789   7.891   6.383 -3.4718 -1.1560 -0.1670
20766SOL     OW67144   7.083   8.603   1.764  0.3065 -0.4605 -0.2956
20766SOL    HW167145   7.053   8.579   1.677 -0.5307 -1.0245  0.1429
20766SOL    HW267146   7.140   8.530   1.791  1.1643  0.0635 -0.6646
20767SOL     OW67147   6.153   7.221   6.700  0.1690  0.4762 -0.8720
20767SOL    HW167148   6.131   7.263   6.784  1.7597  1.5763 -0.9937
20767SOL    HW267149   6.214   7.151   6.724  0.1671  0.4152 -1.0463
20768SOL     OW67150   8.749   7.120   5.009  0.2667 -0.0599 -0.7179
20768SOL    HW167151   8.703   7.079   5.083  0.6823 -1.6865 -1.3334
20768SOL    HW267152   8.804   7.187   5.049  0.4022 -0.8518  0.4474
20769SOL     OW67153   7.676   8.667   5.556  0.4318 -0.0103 -0.2253
20769SOL    HW167154   7.706   8.733   5.619 -1.6197 -1.4639  2.3802
20769SOL    HW267155   7.754   8.646   5.504  2.6006  0.1178  2.8377
20770SOL     OW67156   8.124   6.274   3.488 -0.6569 -0.4375  0.1986
20770SOL    HW167157   8.093   6.184   3.479  1.7944 -1.1824 -1.3037
20770SOL    HW267158   8.127   6.289   3.582 -2.2176 -1.5040  0.4414
20771SOL     OW67159   7.608   3.672   5.679  0.1573  0.1433  0.4676
20771SOL    HW167160   7.639   3.635   5.596 -0.5956  1.2975 -0.3318
20771SOL    HW267161   7.530   3.722   5.656 -1.2575 -1.2029  2.1953
20772SOL     OW67162   6.907   6.696   5.662 -0.1449 -0.1574  0.7564
20772SOL    HW167163   6.892   6.635   5.590  1.7894 -0.3453  0.4973
20772SOL    HW267164   6.995   6.677   5.693  0.8806  3.0573  0.0740
20773SOL     OW67165   8.754   4.731   6.389  0.4680  0.3175 -0.3707
20773SOL    HW167166   8.816   4.661   6.405 -0.4074 -0.0996  1.3521
20773SOL    HW267167   8.677   4.688   6.352 -0.6958  0.0921  2.2019
20774SOL     OW67168   7.005   6.974   6.265 -0.5446 -0.3946 -0.2106
20774SOL    HW167169   7.034   7.039   6.329  1.6026 -1.0905 -0.4321
20774SOL    HW267170   6.938   6.923   6.312 -0.7243  0.6265  0.6632
20775SOL     OW67171   6.627   9.487   0.621  0.6607  0.3946 -0.2461
20775SOL    HW167172   6.717   9.499   0.591 -0.0990  1.1310 -2.2996
20775SOL    HW267173   6.593   9.415   0.567 -0.4776  1.1967 -0.6041
20776SOL     OW67174   5.663   9.009   4.675 -0.1308  0.3619  0.2331
20776SOL    HW167175   5.568   9.000   4.663 -0.1394  1.7280 -0.8534
20776SOL    HW267176   5.692   9.056   4.597  1.9227 -2.7436 -0.9811
20777SOL     OW67177   6.715   5.763   3.489 -0.0587 -0.0715  0.2938
20777SOL    HW167178   6.733   5.812   3.408 -0.9373 -3.4570 -2.0522
20777SOL    HW267179   6.773   5.687   3.485 -1.0146 -0.9434  2.2529
20778SOL     OW67180   7.179   6.096   4.098 -0.2650 -0.1944  0.2980
20778SOL    HW167181   7.104   6.133   4.051  0.8406  1.6359 -0.0948
20778SOL    HW267182   7.234   6.059   4.030  0.2635  0.4851  0.3449
20779SOL     OW67183   7.113   7.619   4.141 -0.5022 -0.1309 -0.1927
20779SOL    HW167184   7.177   7.633   4.072 -0.3875  1.1571  0.1668
20779SOL    HW267185   7.111   7.524   4.153  1.6724 -0.1653  0.1172
20780SOL     OW67186   7.278   9.030   6.173  0.2086 -0.0742 -0.1116
20780SOL    HW167187   7.354   9.077   6.138  0.3145  0.0850  0.3274
20780SOL    HW267188   7.268   8.954   6.115 -0.9912  1.3805 -1.8811
20781SOL     OW67189   6.210   6.206   0.890 -0.6177 -0.0745  0.1482
20781SOL    HW167190   6.179   6.281   0.941 -3.7287 -2.6641  2.2928
20781SOL    HW267191   6.145   6.197   0.820 -0.5583 -1.0754  0.2194
20782SOL     OW67192   7.689   6.462   6.748 -0.5967  0.4556 -0.5885
20782SOL    HW167193   7.738   6.418   6.678 -0.7737 -0.3004 -0.2400
20782SOL    HW267194   7.734   6.437   6.828 -0.7841  0.8008 -0.3761
20783SOL     OW67195   8.806   6.825   4.966  0.7365 -0.2322  0.4535
20783SOL    HW167196   8.875   6.765   4.994  0.9791 -0.3810 -0.4648
20783SOL    HW267197   8.772   6.862   5.048  0.8993 -1.2688  0.9946
20784SOL     OW67198   4.802   7.691   3.652 -0.0325 -0.0632  0.0436
20784SOL    HW167199   4.730   7.731   3.604 -0.1312 -0.9411 -0.5471
20784SOL    HW267200   4.789   7.719   3.743 -0.2739  0.9792 -0.3079
20785SOL     OW67201   7.666   8.935   4.277 -0.3010  0.1348  0.3194
20785SOL    HW167202   7.663   8.951   4.182  1.2431 -3.5481 -0.4512
20785SOL    HW267203   7.574   8.927   4.303 -0.7815  2.2659 -0.6279
20786SOL     OW67204   7.197   6.624   4.849 -0.4504  0.7391  0.2773
20786SOL    HW167205   7.104   6.628   4.826 -0.3464 -2.7859 -0.9973
20786SOL    HW267206   7.242   6.645   4.768 -0.1227 -0.2427  0.2055
20787SOL     OW67207   4.611   8.366   4.572  0.0119  0.6766 -0.2082
20787SOL    HW167208   4.700   8.371   4.535  0.1408 -2.9444 -0.5166
20787SOL    HW267209   4.569   8.295   4.524 -2.0138  0.2612  2.0902
20788SOL     OW67210   7.935   5.447   3.688  0.1639  0.0703  0.1193
20788SOL    HW167211   8.030   5.452   3.702  0.1363 -1.9023  1.1630
20788SOL    HW267212   7.925   5.380   3.619 -0.5521 -0.9988  1.2418
20789SOL     OW67213   7.844   6.302   4.107 -0.3485  0.4098  0.1928
20789SOL    HW167214   7.832   6.339   4.194 -0.7567 -1.6038  1.0029
20789SOL    HW267215   7.767   6.247   4.092 -0.0926  0.4146 -1.2743
20790SOL     OW67216   5.988   7.245   3.237 -0.3073 -0.1021  0.0750
20790SOL    HW167217   5.959   7.325   3.194 -0.7207 -0.0396  0.4768
20790SOL    HW267218   6.021   7.190   3.165 -0.2624  0.3222 -0.2274
20791SOL     OW67219   7.700   7.249   4.005  0.0763  0.1528 -0.1163
20791SOL    HW167220   7.617   7.260   4.053 -0.6680 -0.0852 -1.3401
20791SOL    HW267221   7.767   7.257   4.073 -0.7833  3.4716  0.4484
20792SOL     OW67222   7.593   7.361   3.181 -0.0529  0.2327 -0.1193
20792SOL    HW167223   7.650   7.286   3.199 -0.5742 -0.3452 -0.8900
20792SOL    HW267224   7.581   7.361   3.086  0.8642  1.9633 -0.2658
20793SOL     OW67225   6.358   5.539   3.566 -0.4659 -0.2536 -0.2064
20793SOL    HW167226   6.424   5.564   3.630  0.2432 -1.4061 -0.4700
20793SOL    HW267227   6.380   5.448   3.543 -1.9192 -0.5337 -0.5587
20794SOL     OW67228   7.302   6.042   2.299  0.2037  0.5999  0.2697
20794SOL    HW167229   7.343   5.981   2.238  2.0822  1.1355  0.9626
20794SOL    HW267230   7.240   5.988   2.348 -0.7877  0.0184 -1.5770
20795SOL     OW67231   6.608   7.719   2.231 -0.2128  0.0324  0.3361
20795SOL    HW167232   6.570   7.694   2.315  1.1247  0.7153  1.1552
20795SOL    HW267233   6.626   7.812   2.239  2.1689 -0.3879  0.1913
20796SOL     OW67234   6.175   9.469   5.114 -0.8360  0.4663  0.3964
20796SOL    HW167235   6.270   9.463   5.105 -0.8582  0.3400  0.2520
20796SOL    HW267236   6.149   9.540   5.056 -1.2112 -1.6683 -2.1221
20797SOL     OW67237   7.483   8.331   7.678 -0.3932  0.3821  0.0902
20797SOL    HW167238   7.438   8.260   7.724 -0.0329 -0.7615 -1.2745
20797SOL    HW267239   7.475   8.308   7.585  1.5260  1.0353 -0.2563
20798SOL     OW67240   7.601   5.114   7.408  0.2120  0.9958 -0.0476
20798SOL    HW167241   7.589   5.208   7.394 -0.2623  1.0395  0.6121
20798SOL    HW267242   7.523   5.073   7.368 -0.0748  0.9615  0.5422
20799SOL     OW67243   5.986   7.417   6.581  0.0947 -0.1087  0.1780
20799SOL    HW167244   6.043   7.355   6.627 -1.3624 -0.9939  0.8468
20799SOL    HW267245   6.041   7.494   6.566  1.7865 -1.3575 -0.2077
20800SOL     OW67246   5.293   8.912   6.756  0.4123 -0.0591  0.3836
20800SOL    HW167247   5.200   8.915   6.731  0.3506 -0.2668  0.5923
20800SOL    HW267248   5.292   8.887   6.848  0.6094  1.5445  0.8370
20801SOL     OW67249   7.749   9.022   5.203  0.1590 -0.4562  0.0218
20801SOL    HW167250   7.754   9.010   5.108  1.5546 -1.9169  0.2613
20801SOL    HW267251   7.666   9.067   5.216  0.0947  0.0572 -1.9214
20802SOL     OW67252   7.352   6.655   4.594 -0.4681 -0.1068  0.1788
20802SOL    HW167253   7.285   6.599   4.553 -0.5540 -0.7668  1.1979
20802SOL    HW267254   7.412   6.593   4.635  0.9523  0.4807 -0.9981
20803SOL     OW67255   7.756   6.577   4.631  0.0743  0.6873 -0.3601
20803SOL    HW167256   7.787   6.645   4.570  1.5682  0.3205 -0.0304
20803SOL    HW267257   7.696   6.624   4.690 -2.3676  0.7884 -2.8360
20804SOL     OW67258   6.557   8.237   5.389 -0.3158  0.1259  0.2233
20804SOL    HW167259   6.534   8.319   5.346 -2.2516 -0.8118 -0.5931
20804SOL    HW267260   6.590   8.262   5.475 -0.4637  1.7775 -0.1967
20805SOL     OW67261   7.385   5.209   7.583 -0.2058  0.0821 -0.4969
20805SOL    HW167262   7.453   5.147   7.612 -0.4754  0.9654  2.1671
20805SOL    HW267263   7.431   5.293   7.576 -0.9233  0.5979  0.9092
20806SOL     OW67264   7.789   7.805   7.087  0.0030 -0.2197  0.3058
20806SOL    HW167265   7.749   7.775   7.005 -1.6684 -0.7675  1.2963
20806SOL    HW267266   7.869   7.850   7.059 -0.2097 -0.9424 -1.5827
20807SOL     OW67267   7.851   8.853   7.578 -0.2765  0.0389  0.0201
20807SOL    HW167268   7.923   8.836   7.639 -0.5955 -0.0467  0.3706
20807SOL    HW267269   7.849   8.775   7.522 -0.6143 -0.3179  0.5222
20808SOL     OW67270   6.777   9.162   7.363 -0.5689  0.0091 -0.4833
20808SOL    HW167271   6.728   9.187   7.441 -1.0488  0.6238 -0.9712
20808SOL    HW267272   6.710   9.139   7.299 -0.2891  2.0430 -1.5471
20809SOL     OW67273   7.626   7.693   6.384  0.9177 -0.5268 -0.4578
20809SOL    HW167274   7.718   7.722   6.382  0.8360 -0.1767  0.3983
20809SOL    HW267275   7.586   7.736   6.309  1.6614 -1.3946 -1.3549
20810SOL     OW67276   7.618   5.422   7.351  0.5837 -0.0143 -0.0224
20810SOL    HW167277   7.710   5.447   7.360  0.5432  0.6130 -1.3055
20810SOL    HW267278   7.570   5.504   7.346  0.0897 -0.3341 -0.6926
20811SOL     OW67279   9.186   5.657   7.002  0.2631  0.5828 -0.0654
20811SOL    HW167280   9.108   5.621   7.043  1.4299  0.4672  2.1696
20811SOL    HW267281   9.169   5.751   6.996  1.0224  0.9917  3.0929
20812SOL     OW67282   7.376   6.712   3.622  0.2272 -0.2925 -0.0537
20812SOL    HW167283   7.369   6.618   3.606 -0.5334 -0.2768  0.1986
20812SOL    HW267284   7.360   6.722   3.716 -1.4105  0.2692 -0.3732
20813SOL     OW67285   4.442   7.721   5.897  0.0504  0.2538 -0.2171
20813SOL    HW167286   4.401   7.805   5.918 -1.5839 -0.3825 -0.8064
20813SOL    HW267287   4.417   7.705   5.806 -0.9262 -1.5934  0.3546
20814SOL     OW67288   5.008   6.237   8.395 -0.3144  0.3628  0.6029
20814SOL    HW167289   5.027   6.178   8.468 -0.7675  0.8178  1.0934
20814SOL    HW267290   4.931   6.198   8.352  0.7038 -0.5870 -0.3949
20815SOL     OW67291   5.865   8.138   6.273 -0.1911  0.1407 -0.4420
20815SOL    HW167292   5.845   8.230   6.258 -1.5564  0.0355  0.6873
20815SOL    HW267293   5.913   8.111   6.194 -2.3367  1.0349 -2.1146
20816SOL     OW67294   6.625   8.433   9.090 -0.1957 -0.3675  0.1556
20816SOL    HW167295   6.574   8.439   9.171  1.2462  1.6275  0.9793
20816SOL    HW267296   6.603   8.513   9.042  1.9305  0.4241  0.4286
20817SOL     OW67297   7.158   7.585   7.326  0.3804 -0.2746 -0.3734
20817SOL    HW167298   7.165   7.492   7.344 -0.9123 -0.5146 -1.1198
20817SOL    HW267299   7.071   7.597   7.289  0.5717  1.2127 -0.3900
20818SOL     OW67300   5.788   8.386   6.244 -0.0151  0.0935  0.1136
20818SOL    HW167301   5.766   8.450   6.176 -0.7359  1.2067  1.3704
20818SOL    HW267302   5.703   8.350   6.271  0.1988  0.2280  0.9788
20819SOL     OW67303   7.721   6.445   5.667  0.0651  0.3147  0.3161
20819SOL    HW167304   7.789   6.443   5.600  0.4972  1.2349  0.7118
20819SOL    HW267305   7.733   6.363   5.716 -2.1853 -1.8387 -2.5626
20820SOL     OW67306   5.996   7.793   5.716  0.0664 -0.0309  0.0335
20820SOL    HW167307   6.070   7.733   5.709 -0.2777 -0.5781  1.0317
20820SOL    HW267308   6.018   7.866   5.658  1.7362  0.1741  0.9125
20821SOL     OW67309   9.198   5.549   5.582  0.1785  0.1547  0.3553
20821SOL    HW167310   9.248   5.470   5.602  0.6563  0.1320 -0.8835
20821SOL    HW267311   9.110   5.517   5.563  0.6482 -0.2228 -1.2888
20822SOL     OW67312   7.313   6.337   6.570  0.4234  0.2600  0.4217
20822SOL    HW167313   7.342   6.411   6.517 -0.4854  0.3743  0.0839
20822SOL    HW267314   7.368   6.264   6.540 -0.1917  0.2794 -0.8102
20823SOL     OW67315   5.713   7.939   8.314 -0.1230  0.1819  0.4802
20823SOL    HW167316   5.664   8.012   8.276  0.5292  0.2776 -0.1985
20823SOL    HW267317   5.736   7.884   8.240  2.5985  1.2245  0.4592
20824SOL     OW67318   5.869   8.202   7.160 -0.7624 -0.5752 -0.9910
20824SOL    HW167319   5.951   8.249   7.144 -1.4043  0.9977  0.2674
20824SOL    HW267320   5.875   8.173   7.251 -1.9462  0.2496 -0.6457
20825SOL     OW67321   8.297   6.723   7.316 -0.2662  0.5471 -0.1735
20825SOL    HW167322   8.253   6.778   7.250  1.5878  1.4579 -0.6803
20825SOL    HW267323   8.362   6.674   7.266 -0.5207 -0.6139  0.6180
20826SOL     OW67324   8.599   5.669   6.153 -0.2087  0.6375 -0.8117
20826SOL    HW167325   8.617   5.592   6.100  0.2215  0.6429 -0.6821
20826SOL    HW267326   8.681   5.685   6.200 -0.6701  0.4607  0.0653
20827SOL     OW67327   6.282   7.012   9.055 -0.1266  0.1000 -0.4536
20827SOL    HW167328   6.339   7.067   9.108  1.4727 -0.8732 -1.1257
20827SOL    HW267329   6.323   6.925   9.057 -1.7060 -0.6778 -0.7556
20828SOL     OW67330   7.557   4.662   6.003 -0.1589 -0.3392  0.0800
20828SOL    HW167331   7.603   4.738   5.967 -0.2828 -0.2441  0.1210
20828SOL    HW267332   7.603   4.643   6.085 -0.5377  0.0988  0.3970
20829SOL     OW67333   6.851   7.798   7.415  0.1507 -0.2627 -0.1452
20829SOL    HW167334   6.896   7.843   7.344 -0.2814  0.6879  0.1759
20829SOL    HW267335   6.855   7.859   7.488  0.3657 -1.1293  0.5773
20830SOL     OW67336   6.372   6.753   7.988  0.6058 -0.1133 -0.1426
20830SOL    HW167337   6.384   6.813   8.062  0.9032 -2.3123  1.6554
20830SOL    HW267338   6.281   6.724   7.995  1.0099 -1.3305  0.1669
20831SOL     OW67339   7.796   6.894   6.613  0.1538  1.0467  0.2725
20831SOL    HW167340   7.715   6.941   6.593 -0.3338 -0.0217 -0.2882
20831SOL    HW267341   7.855   6.917   6.542 -1.0698 -1.5235 -1.6542
20832SOL     OW67342   8.001   7.966   6.343  0.3049  0.2501  0.2606
20832SOL    HW167343   8.043   7.890   6.384  1.1111 -0.0338 -1.0590
20832SOL    HW267344   8.067   7.999   6.282 -1.7048 -0.7113 -2.4973
20833SOL     OW67345   7.708   7.551   5.865 -0.4677  0.0162 -0.6708
20833SOL    HW167346   7.759   7.611   5.920 -1.5318  0.7027 -0.4142
20833SOL    HW267347   7.707   7.593   5.779  1.9104 -1.4678 -1.4852
20834SOL     OW67348   8.677   3.594   8.241 -0.1570 -0.0061 -0.9707
20834SOL    HW167349   8.729   3.514   8.249 -2.1407 -1.2613 -0.4290
20834SOL    HW267350   8.673   3.629   8.330 -1.2422 -0.5671 -0.7906
20835SOL     OW67351   7.394   7.478   4.995 -0.4892  0.2823 -0.3273
20835SOL    HW167352   7.463   7.541   4.972 -0.6512  0.2740 -0.8325
20835SOL    HW267353   7.441   7.404   5.032 -0.2481  0.4182 -0.3596
20836SOL     OW67354   6.383   7.518   7.093 -0.1867 -0.3222  0.1332
20836SOL    HW167355   6.361   7.567   7.013 -0.4664  0.2845  0.5790
20836SOL    HW267356   6.451   7.570   7.135 -0.9811  0.0655  0.9695
20837SOL     OW67357   6.521   4.383   8.347  0.5541  0.0340 -0.3970
20837SOL    HW167358   6.512   4.436   8.425  1.8178  0.6338 -0.6486
20837SOL    HW267359   6.432   4.372   8.314 -0.3072 -2.3849  2.5375
20838SOL     OW67360   6.091   7.909   7.861 -0.3260  0.3406 -0.1020
20838SOL    HW167361   6.072   8.003   7.856  1.5469  0.6735 -1.3668
20838SOL    HW267362   6.076   7.876   7.773 -0.8350 -0.5280  0.3019
20839SOL     OW67363   7.201   4.830   5.980 -0.0662  0.1477 -0.1469
20839SOL    HW167364   7.243   4.822   6.066  1.6542  2.6065 -0.7048
20839SOL    HW267365   7.143   4.905   5.988  0.1838  0.4608 -1.1714
20840SOL     OW67366   5.917   7.317   8.609 -0.5768 -0.0074 -0.1272
20840SOL    HW167367   5.897   7.271   8.527 -0.0675 -0.0234 -0.2417
20840SOL    HW267368   5.952   7.249   8.667  0.5422  0.3052 -0.4267
20841SOL     OW67369   6.508   8.154   7.640  0.0724  0.4056 -0.2856
20841SOL    HW167370   6.552   8.069   7.638  0.6133  0.6279  1.7084
20841SOL    HW267371   6.468   8.159   7.727 -1.6208  1.3756 -1.0872
20842SOL     OW67372   5.499   7.239   8.797  0.4402 -0.4790  0.7602
20842SOL    HW167373   5.578   7.186   8.811  0.7086  0.0297  1.2084
20842SOL    HW267374   5.484   7.282   8.882  0.9213  1.0964  0.0602
20843SOL     OW67375   6.298   7.255   5.174 -0.3109  0.5837  0.3744
20843SOL    HW167376   6.270   7.216   5.256  0.6441 -0.6338  0.1344
20843SOL    HW267377   6.350   7.187   5.131  1.2426  2.0613 -0.1291
20844SOL     OW67378   8.275   5.724   8.171 -0.2825  0.5091 -0.6153
20844SOL    HW167379   8.304   5.649   8.223 -0.7958  0.4828 -0.3581
20844SOL    HW267380   8.180   5.723   8.179 -0.1678  4.1268  3.6436
20845SOL     OW67381   7.513   7.823   4.276  0.2400  0.0805  0.6734
20845SOL    HW167382   7.442   7.859   4.330  1.6625 -1.3034  3.5944
20845SOL    HW267383   7.513   7.729   4.297  0.2607 -0.6641 -2.4846
20846SOL     OW67384   8.415   6.413   8.202  0.4333 -0.4337  0.3797
20846SOL    HW167385   8.493   6.358   8.206 -0.6250 -2.1728 -2.0233
20846SOL    HW267386   8.436   6.479   8.136  1.1091  1.1851  2.1525
20847SOL     OW67387   8.608   8.004   5.754  0.6500  0.2193  0.4635
20847SOL    HW167388   8.601   8.052   5.836  3.2431 -2.1692  2.1774
20847SOL    HW267389   8.581   7.914   5.776  1.4619 -0.4701 -1.2481
20848SOL     OW67390   7.293   0.188   5.722 -0.4559 -0.1823  1.3240
20848SOL    HW167391   7.340   0.161   5.643 -0.3951  0.0415  1.2853
20848SOL    HW267392   7.201   0.172   5.701 -0.4259 -0.2825  1.2690
20849SOL     OW67393   7.447   7.281   8.562 -0.2333  0.0482  0.0621
20849SOL    HW167394   7.400   7.256   8.642  1.7515 -0.1954  1.1822
20849SOL    HW267395   7.475   7.198   8.524 -0.9250  0.1797 -0.7548
20850SOL     OW67396   6.639   6.690   6.913 -0.1907  0.4476 -0.0588
20850SOL    HW167397   6.676   6.603   6.930  0.2816  0.9539  1.5646
20850SOL    HW267398   6.564   6.696   6.971  0.6567  1.6879  0.9293
20851SOL     OW67399   7.417   5.480   5.688  0.0661 -0.3251 -0.7595
20851SOL    HW167400   7.493   5.431   5.717 -0.0827 -0.3028 -0.3231
20851SOL    HW267401   7.453   5.558   5.645  0.2939 -0.6135 -1.0859
20852SOL     OW67402   7.890   6.027   5.227  0.1917 -0.0061 -0.3110
20852SOL    HW167403   7.840   5.946   5.238  0.0558  0.1095 -0.0749
20852SOL    HW267404   7.902   6.036   5.132  1.3765 -1.0117 -0.2666
20853SOL     OW67405   6.736   8.923   6.170 -0.0178 -0.3035  0.1169
20853SOL    HW167406   6.778   8.839   6.190  0.2706 -0.5094 -1.2708
20853SOL    HW267407   6.780   8.953   6.090  0.1097  1.3355  0.7834
20854SOL     OW67408   7.104   4.242   7.470  0.0628 -0.3122  0.5394
20854SOL    HW167409   7.156   4.234   7.550  0.1206  1.0820  0.6582
20854SOL    HW267410   7.021   4.279   7.499 -0.7952 -1.9968  0.2705
20855SOL     OW67411   6.619   7.786   5.942 -0.7299  0.1547 -0.5019
20855SOL    HW167412   6.554   7.765   5.875  0.7482 -1.4496 -1.4753
20855SOL    HW267413   6.655   7.701   5.968  0.3669  0.9500  0.6301
20856SOL     OW67414   6.830   4.939   3.930 -0.2318 -0.5449 -0.5165
20856SOL    HW167415   6.877   4.970   4.007  0.1001 -1.2405 -0.4368
20856SOL    HW267416   6.885   4.963   3.856  0.3775 -1.5956 -0.4054
20857SOL     OW67417   5.915   8.151   7.419 -0.0961 -0.1397  0.0361
20857SOL    HW167418   5.966   8.199   7.484 -0.3807  1.4361 -0.8780
20857SOL    HW267419   5.825   8.156   7.451 -0.0626 -0.5154  0.1965
20858SOL     OW67420   7.449   6.548   7.117  0.0242  0.1288  0.2861
20858SOL    HW167421   7.358   6.559   7.089  0.7323  0.3207 -2.0461
20858SOL    HW267422   7.463   6.453   7.117  0.6787  0.1859 -2.3516
20859SOL     OW67423   7.769   6.262   9.551  0.3692 -0.0116 -0.4376
20859SOL    HW167424   7.700   6.208   9.590  0.3259  0.0615 -0.4128
20859SOL    HW267425   7.851   6.222   9.581  0.3359  0.7676  0.7279
20860SOL     OW67426   6.882   6.951   0.302  0.1047 -0.3703  0.0742
20860SOL    HW167427   6.839   6.953   0.216 -0.5681  2.3440  0.4479
20860SOL    HW267428   6.853   7.030   0.346  2.7784 -0.2187  1.6865
20861SOL     OW67429   7.074   6.667   7.333 -0.2310 -0.2886 -0.6409
20861SOL    HW167430   7.080   6.598   7.267 -0.3022 -0.8437 -0.0702
20861SOL    HW267431   6.995   6.646   7.382 -0.4135  0.3668 -0.6521
20862SOL     OW67432   6.559   7.210   8.624 -0.5589  0.5186  0.0561
20862SOL    HW167433   6.573   7.141   8.559  0.5182 -0.3731  1.2027
20862SOL    HW267434   6.555   7.164   8.708 -1.5018  1.6959  0.6754
20863SOL     OW67435   7.221   9.118   7.181  0.1365 -0.3338 -0.5216
20863SOL    HW167436   7.149   9.056   7.175 -0.1549  0.0976 -1.6136
20863SOL    HW267437   7.180   9.204   7.165  0.5903  0.1083  0.6218
20864SOL     OW67438   6.868   8.049   6.405  0.4251  0.3389 -0.4874
20864SOL    HW167439   6.824   8.015   6.483 -1.8357  1.7982 -1.0576
20864SOL    HW267440   6.872   7.975   6.344 -0.2642 -0.1014  0.0057
20865SOL     OW67441   6.035   8.280   8.354  0.0424  0.4790 -0.4205
20865SOL    HW167442   5.964   8.253   8.414  0.7452  0.5601  0.4589
20865SOL    HW267443   6.042   8.207   8.292 -1.0685  0.6415 -0.7454
20866SOL     OW67444   6.013   6.340   8.311 -0.2391 -0.3117 -0.2249
20866SOL    HW167445   6.012   6.250   8.279  2.8096  0.0015 -1.3826
20866SOL    HW267446   5.982   6.333   8.402 -1.3093 -2.3197 -0.7166
20867SOL     OW67447   7.159   5.964   6.305 -0.0838 -0.1025  0.1812
20867SOL    HW167448   7.073   5.975   6.265 -0.3264 -0.1366  0.6952
20867SOL    HW267449   7.147   5.988   6.397  0.3134 -0.6994  0.3949
20868SOL     OW67450   8.239   7.932   5.049 -0.3897  0.0201  0.4100
20868SOL    HW167451   8.166   7.890   5.094 -0.2184 -0.6527  0.0744
20868SOL    HW267452   8.198   7.990   4.986 -0.6350 -0.0291  0.5232
20869SOL     OW67453   6.590   7.158   7.756 -0.4057  0.5777  0.0220
20869SOL    HW167454   6.598   7.166   7.851  0.2141  2.4613 -0.1706
20869SOL    HW267455   6.498   7.178   7.738 -0.8073 -0.9622  0.3304
20870SOL     OW67456   6.943   4.996   7.824  0.2078  0.3105 -0.3632
20870SOL    HW167457   6.977   5.006   7.735 -1.4151 -0.9472 -1.1551
20870SOL    HW267458   6.895   4.913   7.823  0.9412 -0.1888  1.9521
20871SOL     OW67459   7.094   6.510   6.293  0.5269  0.7360  0.6501
20871SOL    HW167460   7.084   6.458   6.214 -3.0656  1.0170  0.8130
20871SOL    HW267461   7.154   6.581   6.268  0.1742  0.2972 -1.5494
20872SOL     OW67462   6.964   7.245   4.886 -0.0229  0.9188 -0.6107
20872SOL    HW167463   6.892   7.290   4.842  0.6370  1.2629 -1.3614
20872SOL    HW267464   7.002   7.311   4.944 -0.1529  0.8136 -0.4068
20873SOL     OW67465   6.522   8.459   6.495 -0.0310  0.0905  0.0728
20873SOL    HW167466   6.611   8.487   6.477 -0.1345 -0.1593 -0.8499
20873SOL    HW267467   6.532   8.382   6.551  0.3552 -0.4381 -0.7151
20874SOL     OW67468   7.789   6.139   6.728 -0.0660 -0.4780  0.0105
20874SOL    HW167469   7.758   6.159   6.639  1.3930  1.0254 -0.1782
20874SOL    HW267470   7.880   6.170   6.730 -0.6205  1.1257  2.5770
20875SOL     OW67471   8.069   6.449   4.806 -0.0011  0.0966 -0.4018
20875SOL    HW167472   8.112   6.487   4.882  1.0598  0.6473 -1.2694
20875SOL    HW267473   8.065   6.520   4.742 -2.5686  0.1829 -0.2109
20876SOL     OW67474   4.465   7.780   9.266  0.7816 -0.6285 -0.4362
20876SOL    HW167475   4.404   7.836   9.314  0.8265  0.9870 -2.2057
20876SOL    HW267476   4.530   7.840   9.230  0.8875 -1.8129 -2.3043
20877SOL     OW67477   7.199   7.269   8.252 -0.0163  0.3034  0.3292
20877SOL    HW167478   7.237   7.212   8.319  2.2201  0.1043 -1.0770
20877SOL    HW267479   7.119   7.223   8.225 -1.0431  0.4595  2.9067
20878SOL     OW67480   6.118   3.131   7.600 -0.2075  0.5304 -0.0696
20878SOL    HW167481   6.195   3.073   7.598  0.3899  1.2543  1.2030
20878SOL    HW267482   6.045   3.074   7.576  0.8100 -0.0151 -2.0322
20879SOL     OW67483   6.991   6.335   5.874 -0.1118  0.4080  0.1334
20879SOL    HW167484   6.907   6.380   5.872 -1.2369 -1.6351 -0.8995
20879SOL    HW267485   7.023   6.340   5.784  0.5854  0.6343  0.3883
20880SOL     OW67486   6.442   8.488   4.938  0.1621  0.1307  0.1490
20880SOL    HW167487   6.491   8.464   4.860  1.0178  0.7753  0.4839
20880SOL    HW267488   6.416   8.579   4.923 -1.4434 -0.3757 -0.2811
20881SOL     OW67489   7.382   6.667   7.374  0.4115 -0.5291  0.2225
20881SOL    HW167490   7.320   6.697   7.441  0.7440 -0.5604  0.5464
20881SOL    HW267491   7.327   6.625   7.308  0.0146  0.0893  0.1522
20882SOL     OW67492   7.756   8.042   8.101  0.2385  0.0644 -0.3087
20882SOL    HW167493   7.662   8.047   8.118 -0.0817 -1.1629 -1.6012
20882SOL    HW267494   7.778   8.129   8.067 -0.4796  0.2845 -0.2367
20883SOL     OW67495   8.058   6.732   7.727  0.4699  0.0003  0.3901
20883SOL    HW167496   8.036   6.825   7.725  0.7018  0.0358 -0.5055
20883SOL    HW267497   8.095   6.714   7.641  0.1427 -0.9933  0.4559
20884SOL     OW67498   7.468   7.507   5.989 -0.0386  0.4849 -0.2525
20884SOL    HW167499   7.455   7.589   5.941  1.4802 -0.0725 -1.7014
20884SOL    HW267500   7.562   7.489   5.980  0.0966 -0.1851  2.0985
20885SOL     OW67501   7.844   6.375   7.513  0.2664 -0.1538  0.2004
20885SOL    HW167502   7.931   6.395   7.549 -1.3941 -0.8264  5.0250
20885SOL    HW267503   7.834   6.281   7.528 -0.9222 -0.2546 -1.2120
20886SOL     OW67504   6.925   6.773   4.816  0.1335  0.5645  0.2396
20886SOL    HW167505   6.892   6.853   4.776 -0.1926  0.6283  0.6291
20886SOL    HW267506   6.939   6.797   4.908 -0.5114  0.0152  0.4872
20887SOL     OW67507   8.499   7.921   6.477 -0.1735 -0.3242 -0.1064
20887SOL    HW167508   8.503   7.874   6.393  1.1573 -0.9290  0.2874
20887SOL    HW267509   8.576   7.891   6.525 -1.2710 -0.4752  1.6082
20888SOL     OW67510   9.170   7.365   6.078 -0.2642 -0.0757  0.5802
20888SOL    HW167511   9.079   7.395   6.081 -0.6975 -1.2515 -0.7741
20888SOL    HW267512   9.182   7.335   5.989  1.5288  0.2570  0.7040
20889SOL     OW67513   8.228   7.999   7.779 -0.2164  0.0445  0.5753
20889SOL    HW167514   8.176   8.078   7.789  0.3657  0.3945  0.8541
20889SOL    HW267515   8.203   7.943   7.852 -2.7910 -1.2718 -1.2268
20890SOL     OW67516   6.090   7.470   5.117  0.5772 -0.3102 -0.4932
20890SOL    HW167517   6.157   7.405   5.137 -0.8980 -1.9682 -0.8278
20890SOL    HW267518   6.133   7.530   5.055  2.3764 -0.1515  0.8540
20891SOL     OW67519   7.222   8.064   5.985 -0.4928  0.2392 -0.6202
20891SOL    HW167520   7.133   8.084   6.015 -0.8108 -3.4986  1.1956
20891SOL    HW267521   7.222   8.091   5.893 -2.4568  3.2659  0.1826
20892SOL     OW67522   8.733   6.246   8.715 -0.0105 -0.1738 -0.0258
20892SOL    HW167523   8.788   6.172   8.743  1.0207  0.4295 -0.4379
20892SOL    HW267524   8.792   6.321   8.715 -0.9724  0.5937  0.0551
20893SOL     OW67525   7.534   6.812   6.095 -0.3277  0.2384  0.3371
20893SOL    HW167526   7.455   6.760   6.081  0.8200 -0.8668 -2.3288
20893SOL    HW267527   7.504   6.902   6.097 -2.0727 -0.3334  2.8295
20894SOL     OW67528   8.035   7.259   7.599 -0.0455  0.3588  0.5567
20894SOL    HW167529   8.085   7.230   7.523 -0.7927  1.0055 -0.1868
20894SOL    HW267530   8.099   7.259   7.670  0.5574 -0.6709  0.0348
20895SOL     OW67531   4.465   6.151   9.541 -0.0422  0.7653  0.1366
20895SOL    HW167532   4.388   6.184   9.588  0.6494  2.0875  0.3593
20895SOL    HW267533   4.537   6.162   9.603  0.2051 -1.2183  0.2206
20896SOL     OW67534   5.676   7.272   6.926  0.0581  0.2118 -0.0559
20896SOL    HW167535   5.683   7.268   6.831  1.0466 -2.0806  0.0770
20896SOL    HW267536   5.582   7.271   6.943 -0.1527  1.7259 -1.0210
20897SOL     OW67537   6.847   8.952   4.773  0.4311 -0.1472  0.3788
20897SOL    HW167538   6.854   8.924   4.864  0.1543  1.1725  0.8242
20897SOL    HW267539   6.756   8.978   4.763  0.2927 -0.9509 -0.4864
20898SOL     OW67540   5.835   7.665   6.659  0.1064 -0.6740 -0.2403
20898SOL    HW167541   5.829   7.675   6.564  0.2875  2.2502  0.0149
20898SOL    HW267542   5.929   7.673   6.678 -0.2569  2.4095  0.4963
20899SOL     OW67543   5.977   8.537   8.001  0.5547 -0.9588 -0.0190
20899SOL    HW167544   5.935   8.528   7.915  1.3806 -0.7832 -0.4459
20899SOL    HW267545   6.061   8.492   7.991  1.4895  0.7494  0.1021
20900SOL     OW67546   6.094   7.003   3.377 -0.5072 -0.4182 -0.3104
20900SOL    HW167547   6.087   7.087   3.333  0.1234 -0.6821 -0.9234
20900SOL    HW267548   6.005   6.984   3.407 -0.5150  0.7723  0.4218
20901SOL     OW67549   6.288   8.522   7.227  0.2072 -0.2871 -0.4031
20901SOL    HW167550   6.260   8.577   7.154  0.5380 -1.0118 -1.0946
20901SOL    HW267551   6.207   8.487   7.264 -0.0803  1.5817  0.7958
20902SOL     OW67552   0.022   7.093   7.273  0.1786  0.4145 -0.2306
20902SOL    HW167553  -0.015   7.164   7.221  3.5396 -0.1511 -3.7075
20902SOL    HW267554  -0.025   7.015   7.243 -0.3860  0.5754  0.2395
20903SOL     OW67555   6.121   7.087   8.805 -0.1704  0.0742  0.5012
20903SOL    HW167556   6.190   7.060   8.866  1.6868  0.1092 -1.5505
20903SOL    HW267557   6.148   7.172   8.773 -1.8583  0.6972  0.6439
20904SOL     OW67558   7.118   7.141   9.003 -0.3932 -0.1999  0.0925
20904SOL    HW167559   7.196   7.168   9.051 -1.1730  1.1288  0.6274
20904SOL    HW267560   7.072   7.083   9.063  0.0016 -0.7060 -0.0901
20905SOL     OW67561   8.596   6.791   7.642  0.3550  0.6049  0.3711
20905SOL    HW167562   8.564   6.829   7.560  2.1612  1.2960 -0.0205
20905SOL    HW267563   8.644   6.713   7.615  0.2634  0.3807  0.8483
20906SOL     OW67564   4.487   7.050   9.258 -0.1733  0.0942 -0.5440
20906SOL    HW167565   4.521   7.014   9.177 -0.4100  0.2069 -0.6949
20906SOL    HW267566   4.536   7.132   9.271  1.7566 -1.2274  0.8201
20907SOL     OW67567   7.313   6.895   9.377 -1.0225  0.1470 -0.2800
20907SOL    HW167568   7.252   6.874   9.448 -0.2640 -1.9406 -0.2367
20907SOL    HW267569   7.366   6.967   9.413 -1.2225 -0.2941  0.9329
20908SOL     OW67570   6.544   7.354   8.387 -0.3391 -0.9573 -0.1757
20908SOL    HW167571   6.583   7.440   8.401  0.1757 -1.1097 -0.6562
20908SOL    HW267572   6.576   7.300   8.459 -1.8722 -0.3487  0.9944
20909SOL     OW67573   5.124   6.729   8.383  0.2701  0.5057  0.0413
20909SOL    HW167574   5.088   6.655   8.432 -1.9722  2.1487  0.9732
20909SOL    HW267575   5.199   6.758   8.435  0.5889 -0.5059  0.1623
20910SOL     OW67576   6.777   6.910   5.830  0.7293  0.2463 -0.1078
20910SOL    HW167577   6.814   6.876   5.748  1.1912 -1.5009  0.8120
20910SOL    HW267578   6.854   6.939   5.880  0.7084 -1.3857  0.9045
20911SOL     OW67579   5.050   6.826   7.728  0.2235 -0.2406 -0.0926
20911SOL    HW167580   4.992   6.875   7.671 -1.9343 -0.9073  1.4697
20911SOL    HW267581   5.009   6.739   7.736  0.7224 -0.3132  2.0536
20912SOL     OW67582   5.100   7.245   6.777  0.3599 -0.1662  0.6922
20912SOL    HW167583   5.066   7.186   6.710  1.3288 -2.4108  2.1268
20912SOL    HW267584   5.073   7.206   6.860  0.7466  1.5911  1.6768
20913SOL     OW67585   7.586   6.928   4.612 -0.3596 -0.1255  0.7249
20913SOL    HW167586   7.612   6.866   4.681  0.9706 -0.8991 -0.4524
20913SOL    HW267587   7.612   7.014   4.646 -1.8945 -0.2116  2.2138
20914SOL     OW67588   8.376   7.426   7.245 -0.6376  0.0190  0.5867
20914SOL    HW167589   8.450   7.400   7.299  0.0915  1.4386  0.2909
20914SOL    HW267590   8.326   7.346   7.232 -1.3870 -0.1648  4.2255
20915SOL     OW67591   8.421   5.318   7.653  0.3296  0.1700 -0.2220
20915SOL    HW167592   8.484   5.246   7.646  0.8546  0.8819 -3.4361
20915SOL    HW267593   8.474   5.398   7.646 -0.7080  0.8107 -0.9629
20916SOL     OW67594   8.223   5.733   6.735  0.5556 -0.1451  0.3100
20916SOL    HW167595   8.290   5.767   6.795  0.5448  1.3783 -0.5385
20916SOL    HW267596   8.272   5.682   6.671  0.9185  0.9995 -0.3316
20917SOL     OW67597   6.244   7.886   8.587 -0.0035 -0.1544 -0.0839
20917SOL    HW167598   6.219   7.858   8.676  1.9058 -0.7602  0.2892
20917SOL    HW267599   6.290   7.810   8.551 -1.2077 -0.0914 -1.8009
20918SOL     OW67600   7.728   7.340   7.091 -0.0798  0.6196 -0.3576
20918SOL    HW167601   7.808   7.386   7.067  0.2956  0.7779  1.1396
20918SOL    HW267602   7.658   7.403   7.071  0.3059  1.1658 -0.0094
20919SOL     OW67603   8.358   7.393   7.515  0.2047 -0.8697  0.5169
20919SOL    HW167604   8.392   7.304   7.519 -2.3427 -1.8501  1.3431
20919SOL    HW267605   8.341   7.408   7.422 -1.1986 -1.9842  0.5839
20920SOL     OW67606   6.672   6.939   7.035  0.0623  0.0702  0.9140
20920SOL    HW167607   6.604   6.989   6.991  0.4084  1.7800  2.2584
20920SOL    HW267608   6.690   6.866   6.977 -0.1505  1.7375 -1.2969
20921SOL     OW67609   5.270   7.425   7.399 -0.1891 -0.2266 -0.0353
20921SOL    HW167610   5.191   7.419   7.346  0.6565 -1.6808 -1.1430
20921SOL    HW267611   5.314   7.341   7.388  0.9971  0.1667  1.4101
20922SOL     OW67612   7.978   6.960   6.139  0.1605 -0.0347  0.0514
20922SOL    HW167613   7.979   7.037   6.081 -0.2292  1.2817  1.7379
20922SOL    HW267614   7.913   6.902   6.100  1.1016  0.0716 -1.7600
20923SOL     OW67615   8.035   9.214   6.668 -0.5720 -0.8604 -0.3657
20923SOL    HW167616   8.109   9.205   6.728 -1.0845 -1.3113  0.2064
20923SOL    HW267617   8.056   9.155   6.595  1.1885  1.4815 -1.7986
20924SOL     OW67618   6.367   7.910   6.760 -0.3122 -0.1804 -0.3838
20924SOL    HW167619   6.340   7.963   6.685  0.1226  0.8263  0.1651
20924SOL    HW267620   6.320   7.947   6.834  0.2088 -0.3956  0.0533
20925SOL     OW67621   6.875   6.364   6.872 -0.1031 -0.0556 -0.2463
20925SOL    HW167622   6.959   6.392   6.837 -0.9160 -0.3746 -2.4870
20925SOL    HW267623   6.841   6.302   6.809 -1.8999 -0.1617  0.7798
20926SOL     OW67624   7.021   7.383   8.927  0.0327  0.2831  0.5530
20926SOL    HW167625   7.034   7.291   8.952 -1.1219  0.0016  0.1505
20926SOL    HW267626   7.109   7.418   8.918  0.4810 -0.5639  1.5433
20927SOL     OW67627   7.987   5.373   7.814 -0.1722  0.4794  0.2407
20927SOL    HW167628   7.946   5.288   7.832  1.7718  0.1335  3.4622
20927SOL    HW267629   7.968   5.426   7.892 -1.0815  2.9419 -1.5720
20928SOL     OW67630   4.836   8.608   5.862  0.1670 -0.2862  0.4373
20928SOL    HW167631   4.758   8.611   5.807  1.0882 -0.5899 -0.9318
20928SOL    HW267632   4.838   8.692   5.907 -0.9490 -0.2853  0.5047
20929SOL     OW67633   5.269   9.156   7.107 -0.3834 -0.1170 -0.2959
20929SOL    HW167634   5.304   9.191   7.025  0.0167 -0.7535 -0.3981
20929SOL    HW267635   5.187   9.114   7.081 -0.6182  0.3205 -0.2537
20930SOL     OW67636   7.570   7.028   6.517  0.1741  0.4100 -0.3679
20930SOL    HW167637   7.521   7.009   6.437  0.5010  0.8056 -0.6647
20930SOL    HW267638   7.536   6.966   6.581 -1.3229  1.2106 -0.3411
20931SOL     OW67639   5.454   7.622   7.473  0.9008  0.5647  0.4776
20931SOL    HW167640   5.393   7.550   7.455  1.3636  0.4311 -0.5901
20931SOL    HW267641   5.412   7.699   7.435 -0.6540  1.3102  3.5673
20932SOL     OW67642   5.770   6.737   8.988  0.0481  0.1260  1.0402
20932SOL    HW167643   5.835   6.800   9.018 -0.3591  0.3121  1.5380
20932SOL    HW267644   5.709   6.788   8.936  0.3511 -0.0657  0.4933
20933SOL     OW67645   5.553   6.366   8.328  0.3871 -0.6788 -0.1304
20933SOL    HW167646   5.606   6.442   8.351  0.4576 -1.3231  1.9493
20933SOL    HW267647   5.477   6.402   8.283 -1.0753  0.9534  3.4627
20934SOL     OW67648   7.980   8.263   6.401 -0.2473 -0.3503  0.2996
20934SOL    HW167649   7.996   8.293   6.312 -1.6199  0.8512  0.4443
20934SOL    HW267650   7.971   8.168   6.392  0.8009 -0.3721 -0.6504
20935SOL     OW67651   7.783   5.275   7.131 -0.2586  0.1262  0.5544
20935SOL    HW167652   7.752   5.355   7.089 -1.3603 -0.6798 -0.1924
20935SOL    HW267653   7.872   5.295   7.158 -0.1695  1.2636 -0.5436
20936SOL     OW67654   7.553   5.955   7.151  0.2500  0.0927  0.4134
20936SOL    HW167655   7.579   5.974   7.061 -0.4672 -0.3576  0.1061
20936SOL    HW267656   7.536   6.040   7.191  1.3080  0.3366  0.3501
20937SOL     OW67657   7.170   8.599   5.974 -0.0794 -0.1954 -0.1806
20937SOL    HW167658   7.196   8.524   6.027 -0.2978  1.3142  2.1773
20937SOL    HW267659   7.105   8.565   5.913 -0.1601 -1.9099  0.8330
20938SOL     OW67660   4.869   6.591   8.920 -0.0169 -0.2109  0.2828
20938SOL    HW167661   4.906   6.679   8.911 -2.3280  0.8438  0.6103
20938SOL    HW267662   4.905   6.558   9.002  0.9925  0.3691  0.0745
20939SOL     OW67663   6.965   7.074   7.181 -0.0708  0.1289 -0.0880
20939SOL    HW167664   6.993   7.133   7.251  0.6817 -0.8357  0.4399
20939SOL    HW267665   6.902   7.125   7.130  0.2374  1.2291  0.6181
20940SOL     OW67666   6.247   8.249   5.676  0.1303 -0.2499 -0.1061
20940SOL    HW167667   6.211   8.283   5.594  1.4658  0.9298 -0.2455
20940SOL    HW267668   6.282   8.327   5.720  2.6213 -1.3408 -0.0821
20941SOL     OW67669   5.082   6.640   9.153  0.0564 -0.0651  0.3105
20941SOL    HW167670   5.063   6.724   9.195 -0.2204  0.8043 -1.5091
20941SOL    HW267671   5.048   6.575   9.214 -0.9896  1.1901  1.0935
20942SOL     OW67672   6.665   7.843   6.857 -0.4821 -0.5455 -0.0296
20942SOL    HW167673   6.735   7.859   6.794 -0.7734  1.7517  0.1973
20942SOL    HW267674   6.588   7.887   6.820 -1.6754 -2.4432  0.0685
20943SOL     OW67675   8.332   6.200   4.875 -0.1691 -0.0164  0.5552
20943SOL    HW167676   8.329   6.295   4.880 -0.3250  0.1550 -2.1888
20943SOL    HW267677   8.425   6.179   4.867 -0.2856  0.0664 -1.1521
20944SOL     OW67678   6.969   6.569   4.628  0.0203  0.3177 -0.1505
20944SOL    HW167679   6.929   6.633   4.687 -1.0705 -0.6193  0.1743
20944SOL    HW267680   6.982   6.615   4.546  0.9020  1.4478  0.6152
20945SOL     OW67681   7.550   8.099   5.637 -0.2848  0.4959  0.2182
20945SOL    HW167682   7.520   8.087   5.727  0.0124 -0.4962  0.1854
20945SOL    HW267683   7.554   8.194   5.626 -1.0877  0.6260  0.9938
20946SOL     OW67684   7.033   8.466   6.913  0.3888 -0.3743  0.2617
20946SOL    HW167685   7.001   8.449   6.824 -0.3636  2.0531  0.0254
20946SOL    HW267686   7.129   8.467   6.904  0.3907 -2.1661 -0.1020
20947SOL     OW67687   7.269   9.224   7.475  0.2754  0.0292 -0.2301
20947SOL    HW167688   7.173   9.221   7.469  0.3838 -1.1934 -1.7077
20947SOL    HW267689   7.296   9.273   7.397  0.8036  1.3830  0.7910
20948SOL     OW67690   8.683   4.905   4.401 -0.1998  0.1708 -0.1885
20948SOL    HW167691   8.689   4.988   4.353 -0.7278  0.0445 -0.4714
20948SOL    HW267692   8.758   4.907   4.461 -0.6923  1.2349  0.4097
20949SOL     OW67693   7.896   8.330   4.739 -0.5728 -0.2110  0.0000
20949SOL    HW167694   7.924   8.262   4.800  2.0048 -0.1891 -1.0948
20949SOL    HW267695   7.858   8.283   4.666 -3.6501 -0.2392  1.5382
20950SOL     OW67696   4.837   8.309   7.703  0.2911 -0.4896  0.7518
20950SOL    HW167697   4.760   8.336   7.753 -0.0348  2.1869 -1.1153
20950SOL    HW267698   4.811   8.317   7.612  1.1696 -4.5245  0.0622
20951SOL     OW67699   7.469   8.736   5.815  0.3689 -0.2035  0.1519
20951SOL    HW167700   7.460   8.807   5.752  0.8314 -0.3088 -0.0317
20951SOL    HW267701   7.510   8.776   5.892 -0.4765 -0.0041  0.5128
20952SOL     OW67702   6.986   8.806   8.549 -0.0180  0.1536  0.0329
20952SOL    HW167703   7.017   8.857   8.623  1.4658 -0.4744 -0.1480
20952SOL    HW267704   6.947   8.870   8.490 -1.2928  0.6424  1.3757
20953SOL     OW67705   6.679   8.752   5.923 -0.0285  0.1373  0.1469
20953SOL    HW167706   6.593   8.742   5.882 -0.9221  0.5776  1.8506
20953SOL    HW267707   6.734   8.788   5.854 -1.5096  0.9043 -0.6666
20954SOL     OW67708   5.670   9.952   5.686 -0.3086 -0.4052  0.0481
20954SOL    HW167709   5.692   9.861   5.667  0.8783  0.3346 -2.4110
20954SOL    HW267710   5.578   9.950   5.713 -0.2105 -2.3470  0.2998
20955SOL     OW67711   7.662   6.587   8.376 -0.2070 -0.4725 -0.8055
20955SOL    HW167712   7.745   6.545   8.357 -0.5697 -1.4268 -0.3436
20955SOL    HW267713   7.607   6.567   8.300 -1.1430 -2.9130  0.4740
20956SOL     OW67714   6.864   5.498   6.245  0.5678 -0.0003 -0.0997
20956SOL    HW167715   6.940   5.448   6.217  1.2642  0.0725  1.6131
20956SOL    HW267716   6.830   5.451   6.321 -0.0945  0.8956  0.1738
20957SOL     OW67717   7.403   7.224   3.447  0.5477  0.0830  0.5417
20957SOL    HW167718   7.474   7.274   3.488  0.9985 -0.2152  0.1276
20957SOL    HW267719   7.339   7.212   3.517  1.1707 -0.1524  1.0789
20958SOL     OW67720   6.741   8.612   6.159  0.2376  0.3860 -0.4161
20958SOL    HW167721   6.756   8.678   6.091 -1.0569  0.1488 -0.9289
20958SOL    HW267722   6.699   8.540   6.114  0.3100 -0.1999  0.4462
20959SOL     OW67723   6.209   8.165   5.949  0.0563 -0.2414  0.2468
20959SOL    HW167724   6.225   8.189   5.858  2.1335 -0.2516  0.5881
20959SOL    HW267725   6.209   8.249   5.996  2.5025 -0.4856  0.7331
20960SOL     OW67726   6.779   8.572   5.614 -0.1566 -0.0611  0.0730
20960SOL    HW167727   6.757   8.555   5.522 -1.0546  1.4590 -0.0026
20960SOL    HW267728   6.840   8.645   5.611 -1.0437  0.7213  0.7456
20961SOL     OW67729   5.379   7.207   8.433 -0.1576  0.0913 -1.3125
20961SOL    HW167730   5.335   7.130   8.396 -1.0027  0.4317 -1.0380
20961SOL    HW267731   5.308   7.261   8.467  0.6289 -0.2992  1.0105
20962SOL     OW67732   8.165   7.476   8.819  0.2039  0.3840  0.1328
20962SOL    HW167733   8.086   7.467   8.872  0.2819 -0.9688  0.0214
20962SOL    HW267734   8.139   7.533   8.746 -0.6509 -0.0336  0.1080
20963SOL     OW67735   6.544   8.532   7.059 -0.3070  0.0356  0.0720
20963SOL    HW167736   6.584   8.523   6.973  1.2182 -0.0912  0.7816
20963SOL    HW267737   6.522   8.625   7.065  0.5500  0.2477 -0.0309
20964SOL     OW67738   8.053   5.939   6.191 -0.3771 -0.7375  0.1468
20964SOL    HW167739   8.053   6.006   6.259 -1.8016 -1.5244  0.9198
20964SOL    HW267740   8.136   5.892   6.204 -0.9555 -1.3253  1.7614
20965SOL     OW67741   7.850   8.799   4.653 -0.0391 -0.4736 -0.5944
20965SOL    HW167742   7.764   8.838   4.638  0.0959 -0.5653 -1.6736
20965SOL    HW267743   7.912   8.870   4.635  0.1342 -0.5894 -0.4582
20966SOL     OW67744   8.631   7.119   7.563  0.1969 -0.0034  0.0153
20966SOL    HW167745   8.616   7.199   7.512  2.6945  0.7169  0.3062
20966SOL    HW267746   8.587   7.050   7.514 -1.0263  1.3680 -0.8536
20967SOL     OW67747   6.896   5.825   5.808 -0.3468  0.1729  0.0809
20967SOL    HW167748   6.887   5.908   5.856  0.9853  0.2672  0.2084
20967SOL    HW267749   6.883   5.757   5.875  0.7547  0.3034  0.4492
20968SOL     OW67750   7.421   7.114   7.854 -0.7648 -0.3632 -0.3392
20968SOL    HW167751   7.480   7.135   7.781 -0.9762 -1.7464 -0.9324
20968SOL    HW267752   7.480   7.097   7.927 -0.4228 -1.1662 -0.7824
20969SOL     OW67753   7.522   5.973   8.767 -0.2793  0.1877 -0.8105
20969SOL    HW167754   7.615   5.955   8.781 -0.1616 -0.5002 -2.4348
20969SOL    HW267755   7.502   6.043   8.829  1.8851  1.9142 -1.9889
20970SOL     OW67756   7.180   7.906   6.557  0.0199  0.3370 -0.4470
20970SOL    HW167757   7.113   7.878   6.620 -0.7859  0.1436 -1.3861
20970SOL    HW267758   7.158   7.998   6.538 -0.2521  0.1381 -1.1000
20971SOL     OW67759   6.585   6.301   0.099  0.4451 -0.2316 -0.0216
20971SOL    HW167760   6.541   6.330   0.179 -0.9428 -0.1946 -0.7889
20971SOL    HW267761   6.576   6.375   0.039 -2.0609 -1.7060 -1.5814
20972SOL     OW67762   7.080   4.671   9.433  0.0076  0.3697  0.3971
20972SOL    HW167763   7.158   4.653   9.486  0.1353 -1.3812 -0.3765
20972SOL    HW267764   7.095   4.760   9.399  1.0120  0.5857  1.3677
20973SOL     OW67765   6.022   6.630   8.693  0.9807 -0.3929 -0.4562
20973SOL    HW167766   6.051   6.585   8.772  1.1455 -0.4935 -0.5733
20973SOL    HW267767   6.092   6.614   8.630  1.5113  0.8757 -0.1918
20974SOL     OW67768   7.791   8.845   6.756  0.2847  0.3089  0.3506
20974SOL    HW167769   7.851   8.827   6.828  2.2930 -0.1818 -1.4235
20974SOL    HW267770   7.767   8.937   6.767  1.1855  0.4509  1.1942
20975SOL     OW67771   6.927   8.982   7.191  0.2925 -0.1610 -0.3335
20975SOL    HW167772   6.868   8.941   7.128  0.5913 -0.7421 -0.2421
20975SOL    HW267773   6.883   9.062   7.217  0.0744 -0.0211 -1.1286
20976SOL     OW67774   8.150   8.569   8.160  0.3191 -0.0316 -0.5159
20976SOL    HW167775   8.215   8.550   8.228  1.1867 -1.8169 -1.8067
20976SOL    HW267776   8.155   8.663   8.147  1.1408  0.1322  0.8818
20977SOL     OW67777   8.327   7.648   7.622 -0.2790  0.2261  0.1446
20977SOL    HW167778   8.369   7.689   7.546 -0.1413  0.6051  0.4187
20977SOL    HW267779   8.320   7.556   7.600 -0.5632  0.3950 -0.4730
20978SOL     OW67780   5.289   8.364   4.972 -0.5101  0.4814 -0.2802
20978SOL    HW167781   5.379   8.389   4.953  0.3270 -1.5340  0.8588
20978SOL    HW267782   5.260   8.426   5.039 -0.1723  1.5111 -1.0863
20979SOL     OW67783   7.561   5.999   5.953 -0.3421  0.5043 -0.7892
20979SOL    HW167784   7.538   5.907   5.959 -1.1383  0.7113 -0.5672
20979SOL    HW267785   7.580   6.014   5.861 -0.6191  0.2092 -0.8953
20980SOL     OW67786   8.587   4.381   9.028  0.2453 -0.3715 -0.0199
20980SOL    HW167787   8.656   4.319   9.004  0.9758 -0.1495  1.4249
20980SOL    HW267788   8.633   4.465   9.038 -0.1007 -0.3587  1.6116
20981SOL     OW67789   8.065   5.813   7.931  0.0526 -0.0121 -0.1591
20981SOL    HW167790   8.002   5.881   7.909 -0.0936 -0.0722  0.0596
20981SOL    HW267791   8.065   5.811   8.027  0.2262 -0.1610 -0.1618
20982SOL     OW67792   8.389   6.975   5.600 -0.4303  0.4863 -0.2470
20982SOL    HW167793   8.474   6.940   5.627  0.1115  0.4949 -1.8536
20982SOL    HW267794   8.329   6.951   5.670  0.8385  0.1976  0.7571
20983SOL     OW67795   6.525   7.098   8.213  0.0261  0.3113  0.3631
20983SOL    HW167796   6.454   7.041   8.245 -0.5083  0.2673 -0.8717
20983SOL    HW267797   6.487   7.186   8.214 -0.4723  0.1242 -1.4999
20984SOL     OW67798   8.242   9.234   4.964 -0.0972 -0.2920  0.4606
20984SOL    HW167799   8.303   9.301   4.992 -0.9063  0.7191 -0.1614
20984SOL    HW267800   8.274   9.153   5.005  2.8891 -0.2107 -1.6155
20985SOL     OW67801   7.366   5.774   7.980 -0.1859  0.8991 -0.0864
20985SOL    HW167802   7.311   5.820   7.916 -1.3158  1.3475  1.1813
20985SOL    HW267803   7.309   5.763   8.056  0.1925 -2.2155 -0.1916
20986SOL     OW67804   5.838   6.446   8.765  0.3232 -1.0197  0.1957
20986SOL    HW167805   5.933   6.444   8.751  0.1100 -0.1529 -1.4198
20986SOL    HW267806   5.810   6.355   8.753  0.8115 -1.1075 -0.2783
20987SOL     OW67807   6.736   6.515   6.322  0.3250 -0.0612 -0.6833
20987SOL    HW167808   6.771   6.592   6.278  1.4038 -0.7008 -0.9619
20987SOL    HW267809   6.663   6.548   6.374  1.1793  1.2609 -0.3008
20988SOL     OW67810   8.227   8.010   5.374  0.2918  0.7724 -0.3413
20988SOL    HW167811   8.184   7.980   5.455  0.9380  0.8629  0.0421
20988SOL    HW267812   8.233   8.105   5.384 -0.5127  0.8928 -0.9412
20989SOL     OW67813   6.657   7.388   7.081 -0.2798 -0.2199  0.2397
20989SOL    HW167814   6.603   7.317   7.048 -0.5283  0.8418 -1.7056
20989SOL    HW267815   6.609   7.422   7.157 -3.0091  1.4998 -2.1695
20990SOL     OW67816   7.648   6.658   6.421 -0.1570 -0.8334  0.6508
20990SOL    HW167817   7.711   6.697   6.481 -0.2198  2.7525 -1.4643
20990SOL    HW267818   7.700   6.632   6.345 -0.6227 -1.8849  0.6831
20991SOL     OW67819   6.163   9.133   8.619  0.0982  0.1169  0.4905
20991SOL    HW167820   6.202   9.220   8.629 -0.1269  0.1357  1.2723
20991SOL    HW267821   6.147   9.124   8.525  1.7218  0.2270  0.1782
20992SOL     OW67822   7.231   5.871   7.760 -0.0949 -0.2002  0.5121
20992SOL    HW167823   7.212   5.777   7.758  0.6419 -0.3630  0.9255
20992SOL    HW267824   7.290   5.885   7.686 -0.5974  0.0246  0.1551
20993SOL     OW67825   6.425   6.285   7.868 -0.7252  0.4496 -0.3397
20993SOL    HW167826   6.357   6.346   7.840 -1.9846 -1.5644 -1.7340
20993SOL    HW267827   6.473   6.264   7.787  1.4032  1.6024  0.5620
20994SOL     OW67828   6.666   7.008   6.724  0.7437 -0.5329 -0.0688
20994SOL    HW167829   6.672   7.100   6.697  0.9062 -0.3374  0.6119
20994SOL    HW267830   6.586   7.004   6.777  0.1592 -1.0132 -0.9893
20995SOL     OW67831   7.797   6.781   6.057  0.3837 -0.1022 -0.1818
20995SOL    HW167832   7.814   6.692   6.026  2.3635  0.7796 -1.7640
20995SOL    HW267833   7.702   6.787   6.063  0.1785 -1.9075 -1.2784
20996SOL     OW67834   6.834   6.634   4.257  0.0650 -0.0966  0.8927
20996SOL    HW167835   6.880   6.563   4.302  0.1361 -0.3315  0.4528
20996SOL    HW267836   6.763   6.590   4.210 -0.2104  0.1884  1.0368
20997SOL     OW67837   6.721   5.186   9.446  0.4199  0.1601  0.2330
20997SOL    HW167838   6.727   5.270   9.492 -0.0788  0.4446 -0.2179
20997SOL    HW267839   6.640   5.192   9.396  0.5178 -0.4926 -0.0065
20998SOL     OW67840   6.485   7.230   5.487  0.0074  0.5147  0.3062
20998SOL    HW167841   6.578   7.212   5.497 -0.2238 -0.2106  1.2281
20998SOL    HW267842   6.470   7.307   5.542 -0.2718 -0.4278  1.5720
20999SOL     OW67843   6.882   7.238   6.764  0.0163  0.0199 -0.2989
20999SOL    HW167844   6.864   7.255   6.857 -0.1396 -1.0740 -0.1250
20999SOL    HW267845   6.961   7.183   6.765 -0.6518 -0.9609 -0.7576
21000SOL     OW67846   5.977   6.782   3.211  0.0472 -0.2357  0.4406
21000SOL    HW167847   6.011   6.870   3.194 -1.0660  0.2472  0.6485
21000SOL    HW267848   5.984   6.737   3.127  0.4421  0.1185  0.2825
21001SOL     OW67849   7.423   5.528   4.552  0.0555 -0.9126 -0.3960
21001SOL    HW167850   7.418   5.531   4.648 -0.6826  2.2185 -0.4730
21001SOL    HW267851   7.333   5.514   4.524  0.3431 -2.3468 -0.6617
21002SOL     OW67852   7.169   6.388   6.066  0.3255  0.2193  0.0973
21002SOL    HW167853   7.213   6.304   6.076 -2.7417 -1.3195  1.3381
21002SOL    HW267854   7.098   6.371   6.005  0.3932  2.2227 -0.5805
21003SOL     OW67855   7.187   7.911   6.226  0.1953  0.7178 -0.1397
21003SOL    HW167856   7.153   7.863   6.151  1.1452 -0.3182  0.0897
21003SOL    HW267857   7.197   8.001   6.193 -0.9855  0.6419 -0.7467
21004SOL     OW67858   7.243   8.177   6.537 -0.1052  0.8515 -0.6837
21004SOL    HW167859   7.254   8.269   6.512  1.2071  0.8815 -0.0125
21004SOL    HW267860   7.328   8.152   6.572 -1.1088 -0.0008  1.1782
21005SOL     OW67861   6.360   6.218   9.539  0.1521 -0.0506  0.5517
21005SOL    HW167862   6.424   6.202   9.470 -0.4742  0.7333 -0.2161
21005SOL    HW267863   6.404   6.279   9.599 -0.9778  3.1480 -1.6818
21006SOL     OW67864   6.463   7.132   9.457 -1.0259  0.2094  0.1336
21006SOL    HW167865   6.375   7.120   9.493 -0.5277 -0.9699  0.9923
21006SOL    HW267866   6.448   7.160   9.367 -2.2799  1.3612  0.6811
21007SOL     OW67867   5.878   7.150   8.129 -0.0589  0.6195  0.5947
21007SOL    HW167868   5.956   7.131   8.181  1.3132  0.1797 -1.5998
21007SOL    HW267869   5.842   7.229   8.169 -0.9518 -1.5637  4.3361
21008SOL     OW67870   4.994   6.457   9.584 -0.3640 -0.0978  0.2832
21008SOL    HW167871   4.954   6.495   9.662  1.7864  0.9982  0.8902
21008SOL    HW267872   5.088   6.471   9.595  0.1190 -1.3905 -1.7401
21009SOL     OW67873   8.716   7.720   9.962 -0.0641  0.3392 -0.5884
21009SOL    HW167874   8.801   7.701   9.923 -0.5967 -0.4535 -1.3638
21009SOL    HW267875   8.694   7.642  10.012 -0.1748  0.6831 -0.0937
21010SOL     OW67876   5.347   7.327   6.894  0.1330  0.8570  0.1482
21010SOL    HW167877   5.268   7.292   6.853  1.7762 -1.3956 -1.2656
21010SOL    HW267878   5.320   7.354   6.981 -2.3337  0.8320 -0.5688
21011SOL     OW67879   7.501   6.392   8.994  0.2938  0.2866 -0.0734
21011SOL    HW167880   7.569   6.460   8.993  0.7030 -0.1280 -1.2651
21011SOL    HW267881   7.548   6.313   9.021  0.1128  0.1644 -0.1204
21012SOL     OW67882   6.308   7.531   7.728  0.1100  0.1759  0.5813
21012SOL    HW167883   6.316   7.625   7.713 -1.3884  0.2064 -0.0876
21012SOL    HW267884   6.249   7.500   7.660 -0.3183 -1.0624  1.4840
21013SOL     OW67885   6.240   6.747   9.820  0.1194  0.1964  0.0292
21013SOL    HW167886   6.210   6.745   9.911 -0.1282  0.2204 -0.0507
21013SOL    HW267887   6.219   6.659   9.787 -2.0119  0.9563 -0.7051
21014SOL     OW67888   7.016   8.459   7.983  0.2479  0.1370  0.4995
21014SOL    HW167889   6.986   8.378   7.941 -2.3627  0.5646  1.4398
21014SOL    HW267890   6.936   8.506   8.003  1.5580  1.3009  3.2548
21015SOL     OW67891   5.564   6.280   9.868 -0.4928  0.0552  0.2216
21015SOL    HW167892   5.640   6.300   9.813  0.1625  0.0577  1.1002
21015SOL    HW267893   5.527   6.201   9.831 -1.0385  0.9531 -1.2005
21016SOL     OW67894   5.834   7.752   8.484  0.5390 -0.1598  0.5856
21016SOL    HW167895   5.771   7.797   8.427 -0.9978 -1.6345  1.0582
21016SOL    HW267896   5.918   7.761   8.440 -0.1654  1.1175 -0.5060
21017SOL     OW67897   8.485   0.545   9.241 -1.1901  0.2792  0.1828
21017SOL    HW167898   8.577   0.532   9.265 -1.2368 -0.1759  0.1217
21017SOL    HW267899   8.462   0.467   9.191 -1.4731  0.6155 -0.2162
21018SOL     OW67900   6.627   6.240   8.891 -0.0944 -0.0510  0.4456
21018SOL    HW167901   6.687   6.281   8.953  1.3872 -0.7834 -0.4666
21018SOL    HW267902   6.684   6.197   8.827 -1.5843  0.3340 -1.1935
21019SOL     OW67903   7.832   5.827   8.869 -0.0805 -0.2136 -0.1764
21019SOL    HW167904   7.897   5.850   8.935  0.1201 -2.6987  0.5637
21019SOL    HW267905   7.842   5.893   8.801 -0.7258  2.7894  2.5144
21020SOL     OW67906   6.656   9.171   9.397 -0.6341  0.3351  0.1038
21020SOL    HW167907   6.699   9.124   9.326 -1.5294 -0.1814 -0.1062
21020SOL    HW267908   6.564   9.174   9.372 -0.6370  2.0166  0.2198
21021SOL     OW67909   7.458   6.705   9.221 -0.5060  0.2344 -0.4207
21021SOL    HW167910   7.409   6.774   9.266 -0.7928 -0.4685  0.3600
21021SOL    HW267911   7.397   6.631   9.217  0.4332 -0.5866  0.4064
21022SOL     OW67912   6.054   8.170   7.845 -0.4730 -0.5762 -0.3867
21022SOL    HW167913   6.138   8.213   7.832  0.2475 -1.4347  1.2719
21022SOL    HW267914   5.989   8.237   7.823  0.6438  0.5180 -0.3857
21023SOL     OW67915   5.855   8.090   8.493 -0.1301 -0.0244 -0.2855
21023SOL    HW167916   5.799   8.065   8.567 -1.1846 -1.2047 -1.4567
21023SOL    HW267917   5.829   8.031   8.422  2.9051 -0.8639 -0.7655
21024SOL     OW67918   6.138   6.705   9.460 -0.1211 -0.2637 -0.2726
21024SOL    HW167919   6.131   6.800   9.462 -0.4199 -0.2590 -1.2612
21024SOL    HW267920   6.229   6.687   9.485  0.0858  0.3061 -0.6246
21025SOL     OW67921   8.448   6.632   8.692 -0.1070  0.1369 -0.0785
21025SOL    HW167922   8.377   6.680   8.733 -1.6858 -1.1550 -1.1986
21025SOL    HW267923   8.406   6.583   8.621  2.1482  0.5420 -1.7671
21026SOL     OW67924   6.333   6.317   0.294  0.4323 -0.1296 -0.1999
21026SOL    HW167925   6.317   6.240   0.240  2.6151 -0.7298 -0.0422
21026SOL    HW267926   6.340   6.283   0.384 -2.9412  0.8299  0.5234
21027SOL     OW67927   8.963   6.721   6.870 -0.1580  0.1176  0.4357
21027SOL    HW167928   8.939   6.680   6.954 -0.4731  3.1388  1.8894
21027SOL    HW267929   8.879   6.742   6.829 -0.0281  1.5270  0.8630
21028SOL     OW67930   4.452   7.128   7.556 -0.4289  0.2877 -0.3473
21028SOL    HW167931   4.467   7.132   7.651 -1.6035  0.0341 -0.1477
21028SOL    HW267932   4.368   7.173   7.543 -1.6229 -2.0362 -0.9457
21029SOL     OW67933   7.144   6.012   8.109 -0.0361 -0.0675  0.3530
21029SOL    HW167934   7.157   6.054   8.024 -0.0714 -0.0558  0.3523
21029SOL    HW267935   7.178   6.075   8.172  0.7400 -0.4257  0.2936
21030SOL     OW67936   8.103   7.718   8.685 -0.2026  0.0553  0.3423
21030SOL    HW167937   8.184   7.748   8.726 -1.5594  2.2273  1.5080
21030SOL    HW267938   8.126   7.705   8.593  1.5275  0.3981  0.7120
21031SOL     OW67939   5.791   5.555   9.805  0.0264  0.0483  0.1743
21031SOL    HW167940   5.847   5.478   9.793 -0.7777 -0.4705 -0.3279
21031SOL    HW267941   5.774   5.586   9.716  0.0505  0.5985  0.3583
21032SOL     OW67942   5.423   8.896   7.792  0.3044 -0.1626  0.0791
21032SOL    HW167943   5.348   8.872   7.847 -0.1813  0.4047 -0.3342
21032SOL    HW267944   5.493   8.916   7.855  0.4345 -1.6989  0.4582
21033SOL     OW67945   6.874   6.587   8.502 -0.2175  0.3341 -0.1537
21033SOL    HW167946   6.866   6.560   8.594 -0.6033  1.3968  0.1287
21033SOL    HW267947   6.810   6.658   8.492  1.6716  2.0364 -0.5191
21034SOL     OW67948   7.128   5.284   8.677  0.1052  0.6320 -0.3683
21034SOL    HW167949   7.187   5.273   8.751 -2.7145  0.0583  1.8717
21034SOL    HW267950   7.091   5.372   8.688 -1.0056  0.2017 -0.5793
21035SOL     OW67951   6.048   6.084   9.670  0.6164  0.5848  0.4773
21035SOL    HW167952   5.983   6.040   9.614  0.4476  2.4903 -0.8878
21035SOL    HW267953   6.078   6.158   9.617  0.8028  2.1621  2.7594
21036SOL     OW67954   6.170   7.286   7.967  0.6258 -0.2523 -0.0910
21036SOL    HW167955   6.111   7.239   8.026  2.0491 -0.3231  1.3136
21036SOL    HW267956   6.214   7.350   8.023  1.4928  0.1551 -1.2173
21037SOL     OW67957   7.488   8.292   8.641 -0.0875 -0.2140 -0.0743
21037SOL    HW167958   7.483   8.279   8.736 -2.6268  0.3634 -0.0917
21037SOL    HW267959   7.501   8.386   8.630  0.9644 -0.3805 -0.2932
21038SOL     OW67960   5.454   6.177   9.113  0.2921  0.1103 -0.2591
21038SOL    HW167961   5.499   6.259   9.095  1.1877 -0.2674  0.2240
21038SOL    HW267962   5.381   6.202   9.171 -0.2844  0.7575 -1.2635
21039SOL     OW67963   7.065   8.335   7.696 -0.0109 -0.2449  0.1711
21039SOL    HW167964   7.148   8.288   7.708  0.4655  0.3581 -0.7341
21039SOL    HW267965   7.085   8.425   7.721 -0.9760 -0.5337  2.0778
21040SOL     OW67966   8.884   9.044   7.871 -0.9485 -0.5624  0.3056
21040SOL    HW167967   8.910   9.028   7.780 -0.7642  0.7181  0.1364
21040SOL    HW267968   8.951   8.999   7.922  0.6100  1.1944 -0.1571
21041SOL     OW67969   5.237   7.432   7.956 -0.1977  0.1117 -0.1657
21041SOL    HW167970   5.276   7.387   8.030  0.7292  0.6011 -0.3426
21041SOL    HW267971   5.174   7.370   7.920 -1.0710  0.0912  1.3697
21042SOL     OW67972   7.599   5.939   1.202  0.2484  0.5463 -0.4967
21042SOL    HW167973   7.598   5.986   1.119  0.9013  2.3596  0.4878
21042SOL    HW267974   7.644   5.857   1.183 -1.8356 -0.1642 -2.4881
21043SOL     OW67975   7.267   8.147   6.965  0.0024 -0.0695 -0.1620
21043SOL    HW167976   7.312   8.156   7.049  1.4828  0.9828 -1.0450
21043SOL    HW267977   7.312   8.074   6.922  0.3241  0.4485 -0.7072
21044SOL     OW67978   7.980   5.544   8.008 -0.4927  0.4460 -0.3360
21044SOL    HW167979   7.999   5.566   8.100  1.2882 -0.2323 -0.5411
21044SOL    HW267980   8.043   5.595   7.958 -1.5625  0.9229 -1.2054
21045SOL     OW67981   6.156   6.282   8.913 -0.1542 -0.2038  0.2726
21045SOL    HW167982   6.161   6.378   8.912  0.1766 -0.2150  0.5998
21045SOL    HW267983   6.247   6.254   8.902 -0.3454 -0.4868 -0.6096
21046SOL     OW67984   8.726   6.098   7.753  0.1514 -0.4071 -0.4182
21046SOL    HW167985   8.766   6.168   7.702 -2.1516  2.9173  2.2093
21046SOL    HW267986   8.659   6.061   7.695 -1.1937  2.0969 -0.4853
21047SOL     OW67987   7.610   5.793   8.189  0.2479  0.3175 -0.6505
21047SOL    HW167988   7.628   5.771   8.098 -1.4857 -2.3848 -0.3935
21047SOL    HW267989   7.534   5.851   8.186 -2.3830 -2.9580 -0.8194
21048SOL     OW67990   6.674   5.491   7.321 -0.2669 -0.0490  0.5220
21048SOL    HW167991   6.651   5.412   7.271 -0.8687  0.8056 -0.5760
21048SOL    HW267992   6.760   5.516   7.287 -0.6480  0.4968 -0.0458
21049SOL     OW67993   7.498   6.590   8.784 -0.6209 -0.0010 -0.1444
21049SOL    HW167994   7.449   6.541   8.850 -0.7774  0.3296 -0.0105
21049SOL    HW267995   7.461   6.563   8.700  0.4687 -1.4096 -0.1785
21050SOL     OW67996   9.031   8.124   8.364  0.2718 -0.0733  0.0899
21050SOL    HW167997   8.964   8.192   8.359  1.0694  0.6716 -0.6498
21050SOL    HW267998   9.106   8.168   8.405  0.8297 -0.4672 -0.4981
21051SOL     OW67999   7.417   6.038   7.621  0.3025  0.1461  0.3027
21051SOL    HW168000   7.511   6.031   7.638  0.4814 -0.0123 -0.7098
21051SOL    HW268001   7.384   6.095   7.690  1.0402 -0.2884  1.0183
21052SOL     OW68002   6.518   6.327   9.719  0.0283  0.0520  0.1613
21052SOL    HW168003   6.587   6.273   9.758 -0.0508 -0.5383 -0.4897
21052SOL    HW268004   6.497   6.393   9.785  1.1355  0.1582  0.4135
21053SOL     OW68005   8.937   7.867   7.379 -0.1693 -0.0536  0.1028
21053SOL    HW168006   8.862   7.926   7.368 -0.4778 -0.3028  0.8699
21053SOL    HW268007   8.950   7.829   7.293  0.6394  1.8772 -0.6545
21054SOL     OW68008   7.692   8.549   7.485  0.4282 -0.3016  0.2198
21054SOL    HW168009   7.633   8.564   7.559  2.3444  0.7283  1.5752
21054SOL    HW268010   7.653   8.475   7.438 -2.4653  0.9576  0.5048
21055SOL     OW68011   7.805   7.370   9.064  0.3511 -0.3127  0.7182
21055SOL    HW168012   7.712   7.390   9.061  0.3392 -0.5366 -1.2387
21055SOL    HW268013   7.840   7.427   9.133 -1.7317 -2.5435  3.7143
21056SOL     OW68014   7.901   6.297   8.803  0.2791  0.4263 -0.1688
21056SOL    HW168015   7.975   6.253   8.843 -0.1564 -0.2118 -0.0583
21056SOL    HW268016   7.922   6.391   8.809  1.9212  0.1897 -1.7915
21057SOL     OW68017   7.254   8.014   8.449 -0.5504  0.3238  0.8675
21057SOL    HW168018   7.321   7.953   8.480 -1.3692 -0.4963  1.0447
21057SOL    HW268019   7.175   7.961   8.441 -0.6588  0.7761 -1.5043
21058SOL     OW68020   8.037   8.542   8.429 -0.2812  0.0152  0.4226
21058SOL    HW168021   7.976   8.483   8.473 -2.1369  0.5686 -1.3376
21058SOL    HW268022   8.033   8.517   8.337  0.7257  1.3084  0.0155
21059SOL     OW68023   8.351   6.374   9.310 -0.5104 -0.0576 -0.1711
21059SOL    HW168024   8.284   6.417   9.256 -0.3397 -0.3510 -0.6257
21059SOL    HW268025   8.431   6.422   9.289  0.0648 -1.7716 -2.1352
21060SOL     OW68026   5.353   8.560   8.640 -0.4871 -0.3959 -0.5352
21060SOL    HW168027   5.309   8.481   8.671 -0.2831 -0.7726 -1.1824
21060SOL    HW268028   5.396   8.596   8.718 -0.7546 -0.8116 -0.1937
21061SOL     OW68029   5.336   4.164   0.045  0.1431  0.3853  0.3598
21061SOL    HW168030   5.287   4.225   0.100  0.1208 -0.7761  1.6450
21061SOL    HW268031   5.357   4.215  -0.034  0.5193  2.1905  1.5823
21062SOL     OW68032   7.778   7.348   7.612 -0.1574 -0.5303 -0.0658
21062SOL    HW168033   7.856   7.293   7.610 -0.3240 -0.7564 -0.4912
21062SOL    HW268034   7.810   7.435   7.637  0.1267 -0.7847  0.4525
21063SOL     OW68035   5.323   9.138   8.385 -0.3531  0.3652  0.6040
21063SOL    HW168036   5.266   9.210   8.357 -0.8906  0.4469  1.8466
21063SOL    HW268037   5.381   9.123   8.311 -0.7681  1.5399  0.0218
21064SOL     OW68038   8.878   6.336   9.006 -0.4565  0.0648 -0.3388
21064SOL    HW168039   8.892   6.241   9.003  0.5391  0.2474 -2.6307
21064SOL    HW268040   8.785   6.345   9.028 -0.8463 -1.4718 -1.2177
21065SOL     OW68041   5.926   8.141   9.544  0.2038 -0.8775  0.1311
21065SOL    HW168042   5.939   8.048   9.522 -2.5121 -0.8413 -2.0683
21065SOL    HW268043   5.964   8.188   9.470 -1.2972 -0.3870 -0.3450
21066SOL     OW68044   8.572   7.937   8.720  0.0045 -0.8633  0.0601
21066SOL    HW168045   8.653   7.965   8.678  0.1864 -0.1302  0.8845
21066SOL    HW268046   8.600   7.904   8.806 -0.4331 -1.7304 -0.1250
21067SOL     OW68047   6.845   5.945   8.183  0.3448 -0.1606  0.2133
21067SOL    HW168048   6.850   5.991   8.099 -0.4789 -0.2413  0.1142
21067SOL    HW268049   6.788   6.001   8.237 -0.0868 -0.7056  0.3268
21068SOL     OW68050   6.619   6.873   1.187 -0.8851  0.7214 -0.0622
21068SOL    HW168051   6.531   6.910   1.190 -2.5095 -2.9756  1.2650
21068SOL    HW268052   6.626   6.835   1.099 -0.4477  1.3485 -0.3031
21069SOL     OW68053   4.519   5.977   8.808 -0.3884  0.2281  0.2506
21069SOL    HW168054   4.427   5.952   8.799 -0.2606 -0.6907  1.4386
21069SOL    HW268055   4.528   6.001   8.901  0.8353 -0.7606  0.3938
21070SOL     OW68056   7.133   8.888   7.390 -0.1653  0.7531 -0.0140
21070SOL    HW168057   7.081   8.953   7.344 -1.3092  0.6802  1.1468
21070SOL    HW268058   7.153   8.928   7.474 -0.9238 -0.3937  0.7356
21071SOL     OW68059   7.483   7.432   7.480  0.7501  0.0103  0.2679
21071SOL    HW168060   7.477   7.462   7.389 -0.9775  0.6724  0.5737
21071SOL    HW268061   7.564   7.382   7.484  0.8767  0.0411 -1.6243
21072SOL     OW68062   7.345   7.233   7.233 -0.2474  0.5541 -0.1046
21072SOL    HW168063   7.329   7.265   7.144  0.2702  0.0566 -0.3824
21072SOL    HW268064   7.298   7.149   7.237 -2.4320  1.7934  0.9482
21073SOL     OW68065   7.021   5.740   9.424 -0.1124  0.0846  0.1870
21073SOL    HW168066   7.046   5.826   9.459  0.8165 -0.2465  0.3564
21073SOL    HW268067   6.959   5.705   9.488  0.9488 -0.1662  1.1030
21074SOL     OW68068   6.719   7.051   8.040 -0.0529  0.8490  0.0097
21074SOL    HW168069   6.632   7.048   8.079 -0.4334  0.1297 -0.8809
21074SOL    HW268070   6.734   7.144   8.020 -1.5273  0.6929 -1.8799
21075SOL     OW68071   6.875   7.720   7.756  0.0892  0.4076 -0.0179
21075SOL    HW168072   6.949   7.686   7.706  0.3508  2.0696 -0.8079
21075SOL    HW268073   6.829   7.642   7.788  2.3340 -0.6481  0.7189
21076SOL     OW68074   5.245   5.137   9.800  0.2004 -0.2143  0.5896
21076SOL    HW168075   5.338   5.125   9.782  0.5845 -1.0366  2.9190
21076SOL    HW268076   5.238   5.225   9.837 -0.4242  1.0376 -2.3738
21077SOL     OW68077   7.793   5.853   0.432  0.2513 -0.5113 -0.2516
21077SOL    HW168078   7.710   5.832   0.475  0.1669 -2.1984 -1.2096
21077SOL    HW268079   7.791   5.948   0.420 -1.0608 -0.4105  0.7084
21078SOL     OW68080   6.863   5.403   9.910  0.0126 -0.7982  0.1131
21078SOL    HW168081   6.953   5.415   9.941  0.1191  0.5353 -0.6444
21078SOL    HW268082   6.809   5.441   9.979  0.2264  1.6955 -1.0292
21079SOL     OW68083   6.810   7.282   6.108 -0.4665  0.3695  0.2619
21079SOL    HW168084   6.715   7.293   6.118 -0.7758 -0.4656 -1.6649
21079SOL    HW268085   6.838   7.245   6.192 -1.2498  4.0355  2.2607
21080SOL     OW68086   7.274   7.503   8.832  0.4382  0.6715  0.2248
21080SOL    HW168087   7.315   7.577   8.877  0.9725  1.3023 -1.2613
21080SOL    HW268088   7.307   7.508   8.742 -0.0990 -0.9414 -0.0867
21081SOL     OW68089   6.719   8.211   7.316  0.5204  0.3588 -0.0070
21081SOL    HW168090   6.761   8.176   7.395  0.5052  1.6418  0.5949
21081SOL    HW268091   6.792   8.243   7.262  0.5229 -0.4148 -0.4657
21082SOL     OW68092   7.418   3.954   7.588 -0.0526  0.6863  0.0118
21082SOL    HW168093   7.512   3.965   7.602  0.1626  1.3754 -1.7779
21082SOL    HW268094   7.391   3.887   7.651  1.4654  1.1263  1.1359
21083SOL     OW68095   6.364   7.776   8.906  0.0674 -0.8410  0.4580
21083SOL    HW168096   6.381   7.685   8.882 -0.1623 -0.7532 -0.0541
21083SOL    HW268097   6.268   7.783   8.905  0.0230 -1.0432  2.1997
21084SOL     OW68098   7.535   6.154   9.172 -0.7389  0.3198 -0.1228
21084SOL    HW168099   7.621   6.135   9.209 -0.5690  1.0250 -0.1424
21084SOL    HW268100   7.485   6.191   9.245 -0.7503  0.7128 -0.3283
21085SOL     OW68101   7.917   7.842   8.317  0.5086 -0.0154  0.1948
21085SOL    HW168102   7.883   7.810   8.400  0.0442 -0.6950 -0.2401
21085SOL    HW268103   7.914   7.937   8.323  2.1564 -0.0462  1.6264
21086SOL     OW68104   9.031   6.058   8.453 -0.6201  0.1861 -0.4607
21086SOL    HW168105   8.998   5.981   8.407 -0.7751  0.4931 -0.8651
21086SOL    HW268106   9.044   6.029   8.543  2.2263 -1.1915 -1.2400
21087SOL     OW68107   6.047   6.888   8.393 -0.9032  0.2332 -0.3551
21087SOL    HW168108   6.051   6.795   8.371  2.1052 -0.2384  1.9886
21087SOL    HW268109   5.994   6.892   8.472 -0.5492  0.4701 -0.1321
21088SOL     OW68110   7.627   7.060   9.029 -0.1215  0.1997  0.0113
21088SOL    HW168111   7.578   6.981   9.007  0.2939 -0.1641  0.3682
21088SOL    HW268112   7.623   7.064   9.125  1.4294 -0.4234  0.1184
21089SOL     OW68113   8.326   6.696   9.182  0.5156 -0.3813 -0.2525
21089SOL    HW168114   8.291   6.785   9.172  0.8244 -0.2805 -0.4342
21089SOL    HW268115   8.419   6.705   9.163  0.7391 -0.5627  0.7354
21090SOL     OW68116   7.496   7.857   7.155 -0.2817 -0.3007 -0.5220
21090SOL    HW168117   7.502   7.845   7.060 -0.1477  2.3988 -0.9008
21090SOL    HW268118   7.585   7.881   7.182 -0.2493 -1.3534  0.3469
21091SOL     OW68119   7.459   7.753   5.726  0.9361  0.5765  0.9368
21091SOL    HW168120   7.369   7.739   5.695  1.2855 -1.1560  0.6349
21091SOL    HW268121   7.513   7.711   5.659  1.9696  1.4915  1.1930
21092SOL     OW68122   8.163   5.114   9.007 -0.3568 -0.3711 -0.2730
21092SOL    HW168123   8.206   5.169   8.941 -0.3820 -1.0956 -0.8976
21092SOL    HW268124   8.233   5.082   9.063 -0.5282  1.8911  1.3228
21093SOL     OW68125   6.425   8.515   8.193  0.3386  0.7071  0.1952
21093SOL    HW168126   6.436   8.535   8.286 -2.5235  1.4984  0.4130
21093SOL    HW268127   6.455   8.594   8.148 -1.0468  1.4959  0.6068
21094SOL     OW68128   7.386   6.144   8.947  0.4838 -0.5335 -0.3215
21094SOL    HW168129   7.312   6.196   8.979 -0.1503 -1.5441 -0.1045
21094SOL    HW268130   7.447   6.140   9.020 -0.1051 -1.2626  0.1354
21095SOL     OW68131   7.936   7.502   8.393  0.1342 -0.0589 -0.5742
21095SOL    HW168132   7.942   7.562   8.319  0.4786 -0.3781 -0.8062
21095SOL    HW268133   7.867   7.440   8.368  0.2571 -0.1716 -0.6309
21096SOL     OW68134   8.175   7.599   7.266  0.0650 -0.4813 -0.4535
21096SOL    HW168135   8.255   7.550   7.247  0.8502  1.0046 -1.0850
21096SOL    HW268136   8.154   7.644   7.184 -0.7385  0.1020  0.0599
21097SOL     OW68137   7.915   6.046   8.343 -0.0400  0.3094 -0.0080
21097SOL    HW168138   7.931   6.128   8.391 -0.7989  0.5053 -0.0948
21097SOL    HW268139   7.957   6.060   8.258  0.0505  0.5129  0.0693
21098SOL     OW68140   8.279   5.964   9.085  0.5252  0.0803  0.5398
21098SOL    HW168141   8.261   5.953   8.992 -2.1572  1.4244  0.8301
21098SOL    HW268142   8.223   5.899   9.128 -0.5265  1.4652  1.3121
21099SOL     OW68143   6.508   6.666   0.146  0.2618 -0.3676  0.2969
21099SOL    HW168144   6.539   6.747   0.186  0.2358 -0.1790 -0.0595
21099SOL    HW268145   6.539   6.597   0.204 -0.0667 -0.0777  0.8269
21100SOL     OW68146   8.179   7.495   9.334 -0.4184 -0.1359  0.3559
21100SOL    HW168147   8.137   7.462   9.413 -0.9717 -0.5475 -0.1066
21100SOL    HW268148   8.246   7.556   9.366 -0.6032 -0.3381  1.1400
21101SOL     OW68149   6.659   6.132   8.288 -0.1487 -0.1525 -0.0138
21101SOL    HW168150   6.696   6.213   8.323 -1.9558  1.0608 -0.8289
21101SOL    HW268151   6.635   6.154   8.198 -1.6996 -1.2423  0.1161
21102SOL     OW68152   5.634   6.871   9.243  0.2942 -0.1172  0.1715
21102SOL    HW168153   5.583   6.916   9.176  0.8264 -1.4093 -1.1360
21102SOL    HW268154   5.634   6.931   9.318 -0.5041  1.2485 -0.8964
21103SOL     OW68155   7.508   6.458   8.175  0.5809 -0.6060 -0.2977
21103SOL    HW168156   7.505   6.392   8.244 -0.5008 -0.3659 -0.1042
21103SOL    HW268157   7.599   6.458   8.146  0.8181 -1.4472  0.4088
21104SOL     OW68158   5.792   7.053   7.897 -0.2964 -0.0226  0.7175
21104SOL    HW168159   5.834   7.049   7.983 -1.1845  0.0512  1.1575
21104SOL    HW268160   5.698   7.047   7.916 -0.4140 -1.6440 -0.3687
21105SOL     OW68161   6.228   8.416   7.664  0.0604  0.0581  0.5740
21105SOL    HW168162   6.265   8.503   7.682  1.1693 -0.4728  0.9318
21105SOL    HW268163   6.143   8.433   7.625 -0.3222  1.2927  1.9303
21106SOL     OW68164   6.836   6.099   8.667  0.5126  1.0209 -0.0008
21106SOL    HW168165   6.913   6.042   8.659 -0.9459 -0.8501 -1.0272
21106SOL    HW268166   6.785   6.060   8.738 -0.7050  0.8089 -0.9950
21107SOL     OW68167   4.987   8.957   8.212 -0.0499 -0.5348  0.1293
21107SOL    HW168168   5.014   9.030   8.157  0.8727 -1.7844 -1.0941
21107SOL    HW268169   5.011   8.985   8.301  0.6310  0.4922 -0.3629
21108SOL     OW68170   7.698   7.984   0.159  0.6219 -0.1653 -0.2842
21108SOL    HW168171   7.702   8.060   0.102  0.4691  0.5247  0.6098
21108SOL    HW268172   7.789   7.953   0.163  0.2721 -1.6396 -2.7572
21109SOL     OW68173   8.036   8.173   7.844  0.7558 -0.0218  0.6773
21109SOL    HW168174   7.942   8.193   7.841  0.9053  0.5220 -0.6291
21109SOL    HW268175   8.079   8.259   7.845  1.2084 -0.2425  3.4428
21110SOL     OW68176   6.372   7.355   8.190  0.2209 -0.6771  0.2641
21110SOL    HW168177   6.382   7.442   8.151  2.2648 -2.0637 -2.4527
21110SOL    HW268178   6.432   7.355   8.265  1.5623 -0.3340 -0.7927
21111SOL     OW68179   7.475   6.775   9.594  0.7288 -0.0396 -0.3074
21111SOL    HW168180   7.442   6.730   9.516 -0.9194 -0.6510  0.7136
21111SOL    HW268181   7.554   6.821   9.564  1.8606 -2.7244 -1.6208
21112SOL     OW68182   6.620   6.639   1.390  0.4605 -0.6084 -0.0421
21112SOL    HW168183   6.542   6.586   1.372 -0.2275  0.2044  0.4948
21112SOL    HW268184   6.608   6.718   1.338  0.6146 -0.2003  0.5374
21113SOL     OW68185   4.972   5.313   8.923  0.0776 -0.0973 -0.0730
21113SOL    HW168186   5.000   5.381   8.861  2.2806  0.3181  1.3234
21113SOL    HW268187   5.025   5.237   8.899 -0.0366 -0.3341  0.4317
21114SOL     OW68188   7.308   7.612   8.199  0.0466 -0.4117 -0.0252
21114SOL    HW168189   7.365   7.688   8.186  1.0741 -1.2843 -0.7478
21114SOL    HW268190   7.311   7.595   8.293  1.9955 -1.2078 -0.2109
21115SOL     OW68191   5.855   7.789   7.165  0.0123 -0.1580  0.3465
21115SOL    HW168192   5.820   7.749   7.085 -0.1749  0.9618 -0.1338
21115SOL    HW268193   5.948   7.801   7.146 -0.0727  0.3016  0.2104
21116SOL     OW68194   3.328   6.830   7.601  0.2051  0.0818 -0.2405
21116SOL    HW168195   3.298   6.792   7.519  0.4949 -0.8577  0.0835
21116SOL    HW268196   3.315   6.924   7.590  3.2365  0.3144 -2.6483
21117SOL     OW68197   3.592   6.909   8.846  0.1818  0.0309 -0.2110
21117SOL    HW168198   3.527   6.968   8.885  1.5687  0.8439  0.9186
21117SOL    HW268199   3.557   6.888   8.760 -2.2839 -0.6792  0.9087
21118SOL     OW68200   6.526   5.939   8.437 -0.1172  0.7344  0.6871
21118SOL    HW168201   6.575   6.003   8.386  1.4851  0.0565  1.3442
21118SOL    HW268202   6.503   5.871   8.374  2.0134 -0.1887  0.8367
21119SOL     OW68203   8.347   6.876   9.928 -0.0041  0.6773  0.1993
21119SOL    HW168204   8.417   6.930   9.894  0.2721  1.5939  2.1459
21119SOL    HW268205   8.289   6.937   9.974 -2.7931  0.1406 -2.4343
21120SOL     OW68206   7.294   6.279   7.147  0.2863 -0.1327 -0.0273
21120SOL    HW168207   7.384   6.271   7.116  0.3146  0.1605 -0.0215
21120SOL    HW268208   7.300   6.272   7.242  0.1812 -1.2021 -0.0972
21121SOL     OW68209   7.190   6.532   7.004  0.5357 -0.4068 -0.7143
21121SOL    HW168210   7.198   6.464   6.937  1.5397 -0.7772 -0.2213
21121SOL    HW268211   7.101   6.520   7.039  0.8710 -1.7720 -0.3026
21122SOL     OW68212   6.435   6.481   9.935 -0.0201 -0.1569  0.4551
21122SOL    HW168213   6.349   6.503   9.897  0.1624 -1.3578 -0.6880
21122SOL    HW268214   6.452   6.553   9.996 -1.3142  0.7087 -0.1495
21123SOL     OW68215   6.487   7.525   8.864  0.2616  0.0516  0.2961
21123SOL    HW168216   6.533   7.494   8.785  1.1687  0.4615  0.6560
21123SOL    HW268217   6.541   7.493   8.936 -1.2451 -1.4119  0.8055
21124SOL     OW68218   8.020   7.399   9.552  0.2750 -0.1258  0.1880
21124SOL    HW168219   8.083   7.327   9.540  1.2599  0.5630  1.1220
21124SOL    HW268220   7.935   7.360   9.531  0.7732 -1.6095  0.8066
21125SOL     OW68221   7.531   6.354   0.407 -0.6099  0.3102  0.1376
21125SOL    HW168222   7.611   6.319   0.446 -0.9053 -0.6759 -0.1050
21125SOL    HW268223   7.522   6.442   0.444  0.5358  0.3986  0.2267
21126SOL     OW68224   7.060   5.638   0.471 -0.5212  0.1720 -0.7467
21126SOL    HW168225   6.990   5.602   0.418 -2.2155  1.6799  0.4098
21126SOL    HW268226   7.071   5.727   0.439  0.9519 -0.0771 -0.9801
21127SOL     OW68227   7.176   6.359   6.797  0.6137  0.0616  0.3216
21127SOL    HW168228   7.205   6.293   6.859  1.6583  1.0778  0.9330
21127SOL    HW268229   7.231   6.346   6.719  1.4797  0.8139  0.7991
21128SOL     OW68230   6.601   5.480   8.606  0.2740 -0.3674 -0.0460
21128SOL    HW168231   6.508   5.474   8.586  0.0598  0.0846  0.7998
21128SOL    HW268232   6.623   5.572   8.592  0.6549 -0.5222 -0.4893
21129SOL     OW68233   5.946   6.461   9.543  0.4926 -0.3953 -0.0759
21129SOL    HW168234   5.973   6.546   9.509 -1.0669  0.8461  1.7446
21129SOL    HW268235   6.009   6.399   9.505  0.4603  1.2808 -2.9877
21130SOL     OW68236   4.733   6.002   9.029  0.3999  0.1122  0.1329
21130SOL    HW168237   4.827   6.005   9.046  0.4355 -2.4664  0.6387
21130SOL    HW268238   4.695   5.972   9.112 -1.1242  3.3752  0.6726
21131SOL     OW68239   8.006   5.458   8.782 -0.2090 -0.0442 -0.1794
21131SOL    HW168240   8.048   5.416   8.857 -0.7476 -0.5787 -0.1739
21131SOL    HW268241   7.946   5.522   8.820 -0.8382 -0.6536 -0.1378
21132SOL     OW68242   4.687   7.883   8.809 -0.0776  0.1607 -0.4341
21132SOL    HW168243   4.744   7.839   8.746  0.0375  0.4868 -0.5626
21132SOL    HW268244   4.741   7.896   8.886  1.1445  3.5712 -1.7644
21133SOL     OW68245   6.000   8.079   8.154 -0.3539 -0.0796 -0.2333
21133SOL    HW168246   5.983   7.987   8.134  0.4487 -0.6121  1.4754
21133SOL    HW268247   5.924   8.125   8.118 -1.5296 -1.5688  0.2618
21134SOL     OW68248   5.950   6.904   8.650  0.1425  0.4549  0.4179
21134SOL    HW168249   6.001   6.959   8.709 -0.7353 -0.0208  1.6435
21134SOL    HW268250   5.975   6.814   8.674 -2.4570  0.1398  2.1967
21135SOL     OW68251   5.849   6.134   8.541 -0.6061  0.2362 -0.1730
21135SOL    HW168252   5.891   6.050   8.560 -0.9201 -0.2567 -1.5840
21135SOL    HW268253   5.917   6.199   8.557  0.1990 -0.4310 -0.8310
21136SOL     OW68254   5.635   5.966   0.930  0.1085  0.0289  0.0966
21136SOL    HW168255   5.544   5.935   0.934 -0.4780  1.7918  1.6179
21136SOL    HW268256   5.654   5.972   0.836 -1.5128  0.0398 -0.2508
21137SOL     OW68257   8.076   6.784   0.110 -0.0438 -0.2462  0.3934
21137SOL    HW168258   7.985   6.779   0.080  0.3268 -1.6231 -0.5259
21137SOL    HW268259   8.112   6.860   0.064 -0.3512 -0.5067 -0.2879
21138SOL     OW68260   8.042   8.406   7.559  0.4596  0.6455 -0.1548
21138SOL    HW168261   8.123   8.402   7.611  0.3377 -0.0096 -0.0111
21138SOL    HW268262   8.034   8.498   7.534  0.6791  0.9141  0.7429
21139SOL     OW68263   8.017   7.004   7.742 -1.5260 -0.3089  0.3195
21139SOL    HW168264   8.006   7.045   7.828 -0.6574 -2.1721  1.3657
21139SOL    HW268265   8.039   7.076   7.683 -1.9227  0.9640  1.7032
21140SOL     OW68266   5.614   7.592   9.102  0.5268  0.0385 -0.0309
21140SOL    HW168267   5.638   7.685   9.112  4.2960 -1.0143  1.8571
21140SOL    HW268268   5.675   7.559   9.036  0.2249 -1.4049  0.3972
21141SOL     OW68269   4.698   5.169   0.091  0.5297 -0.1579 -0.3181
21141SOL    HW168270   4.678   5.239   0.153  0.5817  0.1845 -0.6845
21141SOL    HW268271   4.767   5.119   0.132  0.1470 -0.2877  0.1694
21142SOL     OW68272   8.417   7.730   9.350  0.3516  0.1032 -0.3244
21142SOL    HW168273   8.476   7.784   9.297  0.6256  0.9395  0.8101
21142SOL    HW268274   8.357   7.792   9.391 -0.8761 -0.6788 -0.9090
21143SOL     OW68275   8.027   7.121   7.997 -0.1713 -0.5540  0.6478
21143SOL    HW168276   7.995   7.145   8.084 -0.5921 -1.5191  0.7670
21143SOL    HW268277   8.120   7.105   8.010  0.1726  1.3041  0.5024
21144SOL     OW68278   5.273   8.733   8.923  0.2417  0.3243  0.3597
21144SOL    HW168279   5.252   8.643   8.948  0.7673 -0.2673 -1.3005
21144SOL    HW268280   5.295   8.776   9.006 -1.2872 -0.7190  1.3180
21145SOL     OW68281   7.089   8.010   7.644 -0.2724  0.0439 -0.1298
21145SOL    HW168282   7.155   8.030   7.577 -1.4198  0.8713 -1.0309
21145SOL    HW268283   7.116   8.061   7.720  0.2932  0.1476 -0.3921
21146SOL     OW68284   7.612   7.726   4.801 -0.0275 -0.0632 -0.1153
21146SOL    HW168285   7.675   7.717   4.729 -0.2616 -0.1966 -0.3035
21146SOL    HW268286   7.583   7.817   4.796 -0.1791 -0.1221 -0.3040
21147SOL     OW68287   8.763   8.499   7.633  0.6483  0.3122 -0.6284
21147SOL    HW168288   8.714   8.418   7.649  0.4310  0.2396 -1.6335
21147SOL    HW268289   8.700   8.557   7.590  0.6372  1.2314  0.6166
21148SOL     OW68290   7.694   6.566   9.107 -0.3029  0.6986  0.0363
21148SOL    HW168291   7.646   6.546   9.187 -2.1458  0.3667 -1.1035
21148SOL    HW268292   7.666   6.655   9.084  0.6623  1.0138  0.0855
21149SOL     OW68293   6.977   6.303   8.842 -0.0924 -0.7084 -0.4862
21149SOL    HW168294   6.930   6.240   8.788  0.3249 -0.6950 -0.8669
21149SOL    HW268295   7.052   6.255   8.876 -0.5922 -0.8408  0.4412
21150SOL     OW68296   7.194   7.004   8.378 -0.0116 -0.1172  0.4098
21150SOL    HW168297   7.146   7.037   8.454 -0.0432  1.0565 -0.1033
21150SOL    HW268298   7.188   6.909   8.385 -2.6044  0.0188  0.2243
21151SOL     OW68299   7.605   7.121   7.289  0.0141  0.2542 -0.0284
21151SOL    HW168300   7.617   7.206   7.246  0.1362  0.9845  1.4044
21151SOL    HW268301   7.521   7.090   7.258 -1.3746  2.2456  1.6116
21152SOL     OW68302   8.454   7.533   8.863  0.1698 -0.2777 -0.3921
21152SOL    HW168303   8.419   7.530   8.952  0.0666  2.8083 -0.2768
21152SOL    HW268304   8.384   7.498   8.809 -0.6934  0.0128  0.5145
21153SOL     OW68305   6.593   7.636   7.224 -0.0114 -0.0534  0.3886
21153SOL    HW168306   6.614   7.727   7.202  0.9593 -0.1645  0.8203
21153SOL    HW268307   6.616   7.628   7.316 -2.3926 -0.0810  0.9957
21154SOL     OW68308   7.701   7.739   9.160 -0.1533 -0.3977 -0.5951
21154SOL    HW168309   7.776   7.790   9.127 -0.1051  0.5830  0.9980
21154SOL    HW268310   7.636   7.805   9.184 -0.3878 -1.1277  0.7773
21155SOL     OW68311   5.040   7.692   8.124 -0.7162  0.5156  0.1326
21155SOL    HW168312   5.007   7.660   8.041 -0.5499  0.9340 -0.0978
21155SOL    HW268313   5.071   7.614   8.170  2.0929  0.6311 -1.4939
21156SOL     OW68314   7.317   8.384   7.973  0.1393 -0.0414 -0.5908
21156SOL    HW168315   7.412   8.373   7.970  0.4139  1.5501  1.4614
21156SOL    HW268316   7.303   8.478   7.976 -1.4346 -0.2973  0.8262
21157SOL     OW68317   9.625   6.100   9.106 -0.1654 -0.0046  0.5160
21157SOL    HW168318   9.683   6.095   9.029 -0.4404 -0.1481  0.3177
21157SOL    HW268319   9.537   6.101   9.069 -0.2793  0.5935  0.8063
21158SOL     OW68320   4.361   6.400   9.134 -0.1408  0.7397 -0.4172
21158SOL    HW168321   4.270   6.423   9.155 -0.6583  0.1309 -1.9582
21158SOL    HW268322   4.353   6.327   9.072  1.4182 -0.2081  0.4727
21159SOL     OW68323   6.957   6.192   6.576 -0.1178 -0.6993  0.0955
21159SOL    HW168324   6.907   6.189   6.494  0.2321 -0.1332 -0.1411
21159SOL    HW268325   6.991   6.281   6.581  1.6115 -1.3076 -0.2061
21160SOL     OW68326   7.625   5.840   9.044 -0.3316 -0.0466 -0.2736
21160SOL    HW168327   7.654   5.921   9.087  1.2632 -1.5192  1.5122
21160SOL    HW268328   7.695   5.821   8.981  1.6207 -2.4212  2.4990
21161SOL     OW68329   6.969   6.761   7.016  0.2170  0.4120  0.1285
21161SOL    HW168330   6.950   6.768   6.923  0.1172  2.0129  0.2556
21161SOL    HW268331   6.890   6.723   7.054  0.2098 -0.1202 -0.4163
21162SOL     OW68332   8.964   8.625   7.753 -0.2078  0.1592  0.1903
21162SOL    HW168333   9.041   8.625   7.696  0.8390  0.0524  1.5767
21162SOL    HW268334   8.894   8.586   7.700  1.2074 -1.6253 -0.3972
21163SOL     OW68335   6.260   6.002   0.634  0.8181  0.2759 -0.2948
21163SOL    HW168336   6.355   6.002   0.622  0.7122  1.0536 -1.1816
21163SOL    HW268337   6.232   6.090   0.610  0.0203  0.4725  1.2966
21164SOL     OW68338   7.439   7.980   6.843 -0.2259 -0.4806  0.8916
21164SOL    HW168339   7.534   7.993   6.837 -0.0459 -1.8575  0.6718
21164SOL    HW268340   7.416   7.935   6.762 -1.1898  0.4906  0.6085
21165SOL     OW68341   6.126   7.523   7.246  0.2448 -0.0314 -0.1923
21165SOL    HW168342   6.090   7.586   7.184 -0.9246  0.4307  0.9159
21165SOL    HW268343   6.207   7.492   7.206  0.1173  1.1500 -1.3810
21166SOL     OW68344   7.679   6.895   7.971  0.2696  0.3556  0.9455
21166SOL    HW168345   7.596   6.929   8.006  0.2508 -0.5408  1.7991
21166SOL    HW268346   7.658   6.805   7.946  1.2808 -0.2936  2.3345
21167SOL     OW68347   9.859   5.698   8.801 -0.0082 -0.1947  0.0864
21167SOL    HW168348   9.803   5.736   8.733  0.6169  0.9815  0.2149
21167SOL    HW268349   9.887   5.614   8.765 -3.9195 -2.0123  1.0806
21168SOL     OW68350   4.904   6.579   7.840  0.6066  0.6197 -0.6053
21168SOL    HW168351   4.831   6.627   7.879  1.9375  2.1709  0.0121
21168SOL    HW268352   4.918   6.506   7.900 -0.1423  0.5579 -0.4920
21169SOL     OW68353   6.153   5.169   9.685 -0.3110 -0.5379 -0.2020
21169SOL    HW168354   6.224   5.232   9.674 -1.4188  0.5647 -1.1725
21169SOL    HW268355   6.159   5.142   9.777 -0.2440  1.5286  0.4407
21170SOL     OW68356   6.346   5.834   8.913  0.7437 -0.0379 -0.2176
21170SOL    HW168357   6.330   5.870   9.000  0.4418 -0.5478 -0.0602
21170SOL    HW268358   6.313   5.744   8.917  0.1948  0.1163 -1.0241
21171SOL     OW68359   8.124   7.089   9.747 -0.5989  0.7699  0.3808
21171SOL    HW168360   8.122   7.129   9.660  0.0384  1.3948  0.6465
21171SOL    HW268361   8.210   7.049   9.753 -0.8131  0.3299  0.5544
21172SOL     OW68362   5.361   6.304   8.850  0.4154 -0.1718  0.2514
21172SOL    HW168363   5.408   6.386   8.833  0.0811 -0.0617 -0.1499
21172SOL    HW268364   5.279   6.313   8.801  0.3979 -0.7665  0.1740
21173SOL     OW68365   6.955   0.281   6.236 -0.3579  0.3868  0.4011
21173SOL    HW168366   6.905   0.318   6.164  1.4289  0.1463 -0.9840
21173SOL    HW268367   7.009   0.353   6.269  0.7645 -0.1491 -0.2268
21174SOL     OW68368   7.168   6.644   0.060 -0.0795 -0.1985  0.0322
21174SOL    HW168369   7.105   6.654   0.131 -0.6362  0.9288 -0.6012
21174SOL    HW268370   7.254   6.657   0.101 -0.3727  0.0310  0.5711
21175SOL     OW68371   6.875   5.432   8.818 -0.1430 -0.0154 -0.4777
21175SOL    HW168372   6.830   5.455   8.737  1.2589 -0.7925 -1.5044
21175SOL    HW268373   6.882   5.514   8.866 -1.5994  0.3289 -0.8160
21176SOL     OW68374   5.118   7.338   9.963 -0.3652  0.3380 -0.5820
21176SOL    HW168375   5.204   7.368   9.934 -0.4910  0.1544 -1.1509
21176SOL    HW268376   5.087   7.282   9.892 -0.4018 -0.6375  0.1944
21177SOL     OW68377   4.594   7.842   8.363  0.5342  0.7304 -0.5893
21177SOL    HW168378   4.689   7.843   8.361  0.6831 -3.7193  0.0262
21177SOL    HW268379   4.568   7.789   8.288 -1.3025 -0.8936  1.1325
21178SOL     OW68380   9.283   7.524   0.082  0.5755 -0.5966 -0.0551
21178SOL    HW168381   9.290   7.599   0.022  0.0553 -0.1251  0.4733
21178SOL    HW268382   9.192   7.525   0.112  0.8619 -0.7553  0.8428
21179SOL     OW68383   6.845   7.542   8.105 -0.2622  0.4730 -0.5320
21179SOL    HW168384   6.815   7.545   8.014  1.4554 -1.7567 -1.2143
21179SOL    HW268385   6.929   7.587   8.104 -0.5629  1.0612  0.1163
21180SOL     OW68386   7.562   7.134   9.300 -0.3673 -0.2476  0.0134
21180SOL    HW168387   7.656   7.135   9.288 -0.6677  2.1736 -2.4575
21180SOL    HW268388   7.549   7.156   9.393  1.4566 -0.8140  0.4128
21181SOL     OW68389   8.211   7.533   0.028  0.2881 -0.1864  0.7469
21181SOL    HW168390   8.297   7.502  -0.002  1.0149  0.7345  1.8167
21181SOL    HW268391   8.209   7.508   0.121 -0.7049 -0.4153  0.6631
21182SOL     OW68392   8.733   7.114   9.579  0.1057  0.0565 -0.0074
21182SOL    HW168393   8.778   7.141   9.499 -0.8155 -0.1871 -0.6241
21182SOL    HW268394   8.795   7.057   9.624  2.8623  4.5878  2.2679
21183SOL     OW68395   7.467   7.489   7.032  0.3991  0.3810  0.2635
21183SOL    HW168396   7.425   7.526   7.110  1.9175  0.6417  0.9780
21183SOL    HW268397   7.412   7.415   7.008 -0.8471  1.1241  0.7701
21184SOL     OW68398   5.216   7.010   8.301 -0.0392 -0.2471  0.1899
21184SOL    HW168399   5.224   6.914   8.301 -1.5697 -0.3909 -0.6596
21184SOL    HW268400   5.124   7.026   8.278  0.7231  1.4636 -1.7508
21185SOL     OW68401   7.642   4.708   9.304 -0.5215 -0.1880 -0.4603
21185SOL    HW168402   7.736   4.715   9.319 -0.4843  0.4746 -0.9845
21185SOL    HW268403   7.604   4.705   9.391 -0.1511  1.5171 -0.2106
21186SOL     OW68404   6.958   6.513   7.628 -0.3941 -0.0348  0.1730
21186SOL    HW168405   6.976   6.478   7.716 -0.3653  0.0949  0.2180
21186SOL    HW268406   6.941   6.435   7.575 -0.4176 -0.1142  0.2951
21187SOL     OW68407   8.413   7.306   8.163  0.8060 -0.0338 -0.3690
21187SOL    HW168408   8.484   7.273   8.218  0.4034 -1.5120 -0.7289
21187SOL    HW268409   8.361   7.361   8.222  0.5909 -1.2940  0.6324
21188SOL     OW68410   6.180   7.513   9.411 -0.2193  0.2786  0.1824
21188SOL    HW168411   6.096   7.560   9.414  0.1972  0.9284  3.1143
21188SOL    HW268412   6.171   7.443   9.475  1.2157 -0.1252 -0.0351
21189SOL     OW68413   5.697   8.730   8.060  0.0534 -0.0927  0.3860
21189SOL    HW168414   5.689   8.821   8.031 -0.8456 -0.1648  0.3869
21189SOL    HW268415   5.683   8.677   7.981  0.3272 -0.2308  0.4293
21190SOL     OW68416   9.288   8.397   8.201  0.1515 -0.9577 -0.1960
21190SOL    HW168417   9.273   8.480   8.246  0.1043 -0.9378 -0.2462
21190SOL    HW268418   9.209   8.384   8.148  0.4683 -0.6890 -0.7313
21191SOL     OW68419   6.930   5.715   6.655 -0.5430 -0.3793 -0.4927
21191SOL    HW168420   6.881   5.747   6.579 -0.7705  1.1054  0.2798
21191SOL    HW268421   6.933   5.789   6.715  0.4934 -1.2444  0.5356
21192SOL     OW68422   3.847   5.938   9.375  0.3777  0.6452 -0.6146
21192SOL    HW168423   3.800   6.012   9.337 -0.7911 -0.6206 -1.7096
21192SOL    HW268424   3.906   5.908   9.306 -1.0230 -1.0372 -1.1207
21193SOL     OW68425   7.112   7.811   7.924 -0.2053 -0.0143 -0.9644
21193SOL    HW168426   7.096   7.718   7.942 -1.8822  0.4877  0.3240
21193SOL    HW268427   7.033   7.840   7.878  0.8408  0.5013 -2.4611
21194SOL     OW68428   4.784   7.128   8.717  0.1447  0.1235  0.1788
21194SOL    HW168429   4.864   7.081   8.693  0.9108  0.7515  1.4374
21194SOL    HW268430   4.775   7.195   8.649 -1.0674 -1.9203 -1.7265
21195SOL     OW68431   7.124   8.320   8.216  0.2390 -0.5283 -0.0965
21195SOL    HW168432   7.058   8.350   8.153  1.1296  3.6807  0.8452
21195SOL    HW268433   7.208   8.331   8.170  0.7183  0.3642  0.9492
21196SOL     OW68434   7.486   6.846   6.699 -0.9322  0.0972  0.1752
21196SOL    HW168435   7.508   6.796   6.778 -1.8048  1.2993  1.1803
21196SOL    HW268436   7.409   6.802   6.663  0.0694 -1.0699 -0.5872
21197SOL     OW68437   7.205   7.984   8.159  0.5735  0.1655  0.6529
21197SOL    HW168438   7.172   7.945   8.078  1.9935  1.0566 -0.3802
21197SOL    HW268439   7.157   8.067   8.167 -1.2249 -0.9387  1.9702
21198SOL     OW68440   3.706   7.520   7.892 -0.7454 -0.3287 -0.5918
21198SOL    HW168441   3.772   7.483   7.950 -0.3631 -0.7635 -1.2990
21198SOL    HW268442   3.655   7.444   7.862 -2.1869  0.0905  0.6990
21199SOL     OW68443   5.304   7.247   8.142 -0.1002  0.6349 -0.0620
21199SOL    HW168444   5.329   7.314   8.205 -0.5653 -0.5824  1.4296
21199SOL    HW268445   5.292   7.167   8.194  0.3884 -0.6057 -1.7926
21200SOL     OW68446   8.967   5.891   7.894 -0.1354  0.0592  0.0038
21200SOL    HW168447   8.928   5.949   7.959  0.6072  1.0798 -0.4545
21200SOL    HW268448   8.895   5.835   7.867 -0.8622  0.7584  0.4586
21201SOL     OW68449   7.575   8.331   8.060 -0.1813 -0.0113 -0.0561
21201SOL    HW168450   7.587   8.392   8.133  0.4329 -0.3521  0.1354
21201SOL    HW268451   7.534   8.254   8.099  1.5045 -0.7868  0.2264
21202SOL     OW68452   6.429   6.609   8.284 -0.5841  0.2786  0.1534
21202SOL    HW168453   6.386   6.556   8.352 -1.0213 -1.0766 -1.1586
21202SOL    HW268454   6.365   6.676   8.262  0.4519  2.1837  2.7227
21203SOL     OW68455   5.949   8.315   9.773  0.0178  0.1606 -0.5654
21203SOL    HW168456   5.919   8.399   9.736  1.8749  1.0615 -0.0834
21203SOL    HW268457   5.926   8.250   9.706 -1.6341  1.0166 -0.8528
21204SOL     OW68458   6.940   9.612   8.046 -0.2038  0.7562 -0.0164
21204SOL    HW168459   6.946   9.619   8.142 -1.6719  0.9689  0.0716
21204SOL    HW268460   6.884   9.686   8.021  0.4030  0.8583 -1.0798
21205SOL     OW68461   5.837   6.146   9.890 -0.6506  0.1205 -0.1453
21205SOL    HW168462   5.759   6.122   9.940  0.1622 -0.2021  0.9919
21205SOL    HW268463   5.867   6.064   9.852 -0.5211  0.1323 -0.0707
21206SOL     OW68464   6.783   5.925   0.387 -0.2702 -0.2283 -0.3569
21206SOL    HW168465   6.772   5.853   0.325  0.4072 -0.1035 -0.6319
21206SOL    HW268466   6.861   5.901   0.437 -2.0706 -1.4248  1.9819
21207SOL     OW68467   4.403   7.395   9.426  0.0271  0.2794  0.3797
21207SOL    HW168468   4.455   7.437   9.358 -1.2275  0.8545 -0.2299
21207SOL    HW268469   4.375   7.467   9.483 -0.8978  0.0912  0.1631
21208SOL     OW68470   5.366   6.919   9.606 -0.0508 -0.1231  0.3355
21208SOL    HW168471   5.302   6.936   9.675 -0.2115  0.8415 -0.0523
21208SOL    HW268472   5.344   6.831   9.574 -0.8174 -0.0247  0.5954
21209SOL     OW68473   5.177   4.365   0.698 -0.6221  0.5465  0.6267
21209SOL    HW168474   5.171   4.457   0.726  0.6664  0.4637  1.1609
21209SOL    HW268475   5.113   4.319   0.753  0.3009  0.7546  1.8856
21210SOL     OW68476   7.466   6.521   9.863  0.2812  0.5374  0.2326
21210SOL    HW168477   7.402   6.505   9.933  0.1430 -3.1216 -0.6657
21210SOL    HW268478   7.422   6.494   9.783  2.2324 -0.1038 -0.6465
21211SOL     OW68479   7.350   6.962   9.769 -0.3556  0.1610  0.0494
21211SOL    HW168480   7.331   7.014   9.691  2.0059  2.3815  0.8694
21211SOL    HW268481   7.420   6.903   9.741 -1.0592 -0.6126 -0.1007
21212SOL     OW68482   7.661   5.636   9.290  0.1207 -0.8057 -0.3753
21212SOL    HW168483   7.690   5.712   9.340  1.0356 -0.6324 -1.1427
21212SOL    HW268484   7.583   5.666   9.244  0.0794 -0.5454 -0.1356
21213SOL     OW68485   6.333   5.601   1.183 -0.1834 -0.0863 -0.5173
21213SOL    HW168486   6.294   5.569   1.102 -2.2242  2.0023 -0.4025
21213SOL    HW268487   6.343   5.695   1.169  2.5862 -0.2041  0.4040
21214SOL     OW68488   9.460   5.352   9.006 -0.0638 -0.5587 -0.2391
21214SOL    HW168489   9.398   5.425   9.015 -0.5726 -1.1257  1.0143
21214SOL    HW268490   9.535   5.378   9.059 -0.3226 -1.0253  0.3622
21215SOL     OW68491   8.848   6.892   9.842  0.2866  0.0201 -0.3574
21215SOL    HW168492   8.876   6.802   9.862  0.8399  0.3205  0.2231
21215SOL    HW268493   8.782   6.912   9.908 -0.0041 -0.0413 -0.6298
21216SOL     OW68494   5.741   6.475   9.723  0.4543 -0.0460 -0.0292
21216SOL    HW168495   5.680   6.453   9.653 -1.5071  0.8336  1.3634
21216SOL    HW268496   5.827   6.475   9.681 -0.5799 -0.4856 -2.2006
21217SOL     OW68497   7.998   7.520   1.335  0.2484 -0.2130 -0.1403
21217SOL    HW168498   7.938   7.532   1.409  1.1109  0.2064  0.5034
21217SOL    HW268499   7.965   7.578   1.267 -1.3953 -1.6813 -0.6076
21218SOL     OW68500   6.476   7.083   8.866  0.0121  0.1693 -0.9386
21218SOL    HW168501   6.393   7.051   8.902  0.8055 -1.6302 -0.6682
21218SOL    HW268502   6.524   7.116   8.941 -0.1278  0.4714 -0.9804
21219SOL     OW68503   6.295   7.062   2.011 -0.0762  0.0166  0.1880
21219SOL    HW168504   6.271   7.075   2.103 -0.9237 -0.6403  0.0666
21219SOL    HW268505   6.383   7.026   2.015 -0.0166  0.2096  0.7392
21220SOL     OW68506   6.596   7.072   9.917 -0.4678 -0.3941 -0.1473
21220SOL    HW168507   6.548   7.122   9.983 -1.1108  0.7855 -1.4865
21220SOL    HW268508   6.627   7.138   9.854 -0.6770 -1.5914 -1.5423
21221SOL     OW68509   6.498   8.315   0.182 -0.2007 -0.1008  0.3136
21221SOL    HW168510   6.547   8.391   0.149 -2.7512  1.2433 -0.5742
21221SOL    HW268511   6.564   8.246   0.191  1.6472  1.2774 -1.9095
21222SOL     OW68512   5.006   6.787   0.454  0.3522 -0.0886  0.2020
21222SOL    HW168513   5.023   6.879   0.476 -0.6561  0.1711 -0.1194
21222SOL    HW268514   5.093   6.746   0.459  0.7102  0.7388  0.9948
21223SOL     OW68515   5.890   7.600   8.727 -0.8806 -0.0793  0.5467
21223SOL    HW168516   5.920   7.521   8.682  0.7451 -0.1036  1.6149
21223SOL    HW268517   5.852   7.655   8.658 -0.2562 -0.9695 -0.5116
21224SOL     OW68518   7.757   6.131   9.313 -0.0545  0.2081  0.3452
21224SOL    HW168519   7.848   6.145   9.288  0.0935  2.7899  2.0771
21224SOL    HW268520   7.754   6.152   9.407 -2.4141  0.0672  0.3517
21225SOL     OW68521   7.574   7.460   9.860  0.4777 -0.1143 -0.7517
21225SOL    HW168522   7.593   7.489   9.771 -1.1499 -0.4365 -1.2382
21225SOL    HW268523   7.579   7.365   9.856  1.5772 -0.0868 -0.1997
21226SOL     OW68524   7.038   4.679   8.844  0.6794  0.5563 -0.2467
21226SOL    HW168525   6.985   4.715   8.915  0.6082  1.3186 -0.6766
21226SOL    HW268526   6.984   4.691   8.765  0.3399 -1.1954 -0.2881
21227SOL     OW68527   6.207   6.039   0.304  0.0093 -0.3595 -0.0901
21227SOL    HW168528   6.258   5.959   0.287  0.7058  0.2093 -0.7155
21227SOL    HW268529   6.127   6.027   0.254  1.1919  0.4215 -2.2238
21228SOL     OW68530   6.294   5.724   9.903 -0.2203  0.0061 -0.4104
21228SOL    HW168531   6.242   5.661   9.953 -0.1378 -0.7521 -1.2664
21228SOL    HW268532   6.373   5.737   9.955 -1.0049  0.7416  0.6251
21229SOL     OW68533   7.660   6.972   1.475  0.3054  0.4570  0.3128
21229SOL    HW168534   7.611   6.897   1.441  2.5902 -0.9914  0.1561
21229SOL    HW268535   7.738   6.977   1.421  0.6989  2.3256  1.0002
21230SOL     OW68536   6.763   5.010   9.729 -0.0534 -0.2156  0.0969
21230SOL    HW168537   6.833   4.963   9.774  0.4414  1.1698  0.8129
21230SOL    HW268538   6.713   5.052   9.799 -0.0013  0.9730 -0.5638
21231SOL     OW68539   7.034   5.593   0.746 -0.0615  0.5110  0.4052
21231SOL    HW168540   6.976   5.661   0.781 -2.4803 -1.0249 -0.5291
21231SOL    HW268541   7.039   5.612   0.652 -0.1638 -0.1463  0.2639
21232SOL     OW68542   6.559   6.621   9.263  0.2111 -0.5487 -0.1622
21232SOL    HW168543   6.527   6.694   9.209  0.0054 -0.4960  0.0307
21232SOL    HW268544   6.505   6.624   9.342 -0.8362 -1.8631 -0.8140
21233SOL     OW68545   7.660   8.625   9.617  0.0617 -0.5981  0.0002
21233SOL    HW168546   7.659   8.701   9.560 -1.7870 -0.8100 -0.3061
21233SOL    HW268547   7.741   8.632   9.667  0.6304  0.7507 -1.1049
21234SOL     OW68548   8.136   6.479   9.160 -0.2074  0.4197  0.2404
21234SOL    HW168549   8.163   6.571   9.167  0.5374  0.1696  0.7150
21234SOL    HW268550   8.051   6.482   9.117 -0.1426  1.3314  0.1693
21235SOL     OW68551   7.509   7.213   9.905 -0.0539 -0.2987  0.0314
21235SOL    HW168552   7.549   7.140   9.858  0.7433 -0.7429  1.3847
21235SOL    HW268553   7.512   7.187   9.997 -1.0994  0.8020  0.3832
21236SOL     OW68554   8.250   5.775   0.520 -0.0325 -0.4240  0.9196
21236SOL    HW168555   8.211   5.821   0.445  0.0927 -2.2119 -0.2843
21236SOL    HW268556   8.344   5.788   0.510  0.1406 -2.5254 -0.5421
21237SOL     OW68557   6.269   6.860   0.414 -0.1829 -1.0919  0.5154
21237SOL    HW168558   6.295   6.770   0.396 -0.8746 -1.7032  2.4579
21237SOL    HW268559   6.325   6.887   0.488  1.6045  0.8512 -1.4733
21238SOL     OW68560   6.337   8.046   7.314 -0.4766  0.4144  0.4206
21238SOL    HW168561   6.366   8.087   7.396  0.5345  0.9998 -0.2218
21238SOL    HW268562   6.338   7.952   7.332  1.2917  0.4516  0.5912
21239SOL     OW68563   6.744   5.959   9.568 -0.0239 -0.4727  0.0943
21239SOL    HW168564   6.776   6.005   9.491  1.1996 -2.4371 -0.6134
21239SOL    HW268565   6.658   5.926   9.543 -0.3056  0.2387  0.1250
21240SOL     OW68566   7.375   6.255   9.392 -0.3026 -0.2485  0.3093
21240SOL    HW168567   7.456   6.294   9.426  0.3699 -0.8325 -0.5754
21240SOL    HW268568   7.309   6.274   9.458  0.2747  1.3594  0.4585
21241SOL     OW68569   7.175   7.435   9.587 -0.1490 -0.0773 -0.3398
21241SOL    HW168570   7.228   7.453   9.665 -0.7052 -0.1576  0.0627
21241SOL    HW268571   7.100   7.494   9.595 -1.2006 -1.4666  0.2034
21242SOL     OW68572   8.586   8.818   7.604 -0.1409  0.1349 -0.2570
21242SOL    HW168573   8.539   8.765   7.668  0.2254  0.0955 -0.0225
21242SOL    HW268574   8.604   8.901   7.648 -0.3848  0.3203 -0.4995
21243SOL     OW68575   9.103   5.682   0.227 -0.0294  0.4177 -0.3007
21243SOL    HW168576   9.116   5.725   0.143  2.8273 -0.8731 -0.5800
21243SOL    HW268577   9.125   5.749   0.292 -1.1230  1.0672 -0.5874
21244SOL     OW68578   8.090   5.490   1.051 -0.2433  0.1913 -0.5995
21244SOL    HW168579   8.044   5.499   1.135 -1.1305  1.4220 -1.2006
21244SOL    HW268580   8.035   5.537   0.988  0.5159 -0.5513 -1.8374
21245SOL     OW68581   6.488   6.245   1.350 -0.1522 -0.2886  0.6788
21245SOL    HW168582   6.471   6.330   1.309  2.7881 -0.0736 -0.2631
21245SOL    HW268583   6.583   6.242   1.359 -0.2156 -3.4215  0.8775
21246SOL     OW68584   7.271   5.966   9.597 -0.4977 -0.1338 -0.5582
21246SOL    HW168585   7.225   5.974   9.680  1.1293  0.6658  0.2822
21246SOL    HW268586   7.258   6.050   9.554 -1.2846 -0.5241 -1.1193
21247SOL     OW68587   5.835   5.429   9.077  0.1916 -0.0742  0.4190
21247SOL    HW168588   5.870   5.453   8.991 -0.0011 -1.8607 -0.1938
21247SOL    HW268589   5.912   5.427   9.134  0.0984  2.7592  0.7271
21248SOL     OW68590   7.972   6.698   9.415 -0.2700  0.0272  0.6213
21248SOL    HW168591   8.063   6.675   9.434 -0.5481 -0.6397  1.1538
21248SOL    HW268592   7.977   6.786   9.377  0.5708  0.0888  0.8681
21249SOL     OW68593   4.298   8.189   7.929  0.2749  0.0316  0.0204
21249SOL    HW168594   4.346   8.251   7.872  1.3632 -1.2132 -0.4573
21249SOL    HW268595   4.220   8.237   7.956  0.8279  1.4308 -0.7804
21250SOL     OW68596   7.377   6.115   0.043  0.4609 -0.2485  0.0929
21250SOL    HW168597   7.390   6.049  -0.025  0.0948  1.0269 -1.2662
21250SOL    HW268598   7.355   6.195  -0.006 -1.6822  0.2491  1.7992
21251SOL     OW68599   6.439   5.944   9.701  0.5148 -0.0651 -0.1097
21251SOL    HW168600   6.449   5.937   9.606  0.6146 -0.4784 -0.0703
21251SOL    HW268601   6.506   6.008   9.727 -0.6210  1.3154 -0.5188
21252SOL     OW68602   7.326   5.729   9.434  0.5617 -0.1294  0.1943
21252SOL    HW168603   7.350   5.761   9.346 -0.5515 -1.2893 -0.5468
21252SOL    HW268604   7.291   5.807   9.478  1.0667  0.4532 -0.4178
21253SOL     OW68605   6.132   5.552   0.401  0.3072  0.3487 -0.1224
21253SOL    HW168606   6.139   5.639   0.362  1.8340  0.1876 -0.2274
21253SOL    HW268607   6.183   5.558   0.482  0.8768 -0.6050 -0.4059
21254SOL     OW68608   6.571   7.996   9.929  0.1355 -0.4320 -0.6357
21254SOL    HW168609   6.633   8.066   9.910  0.2771 -0.7996 -1.5530
21254SOL    HW268610   6.565   7.947   9.848  0.3757 -1.7558  0.1361
21255SOL     OW68611   8.364   9.076   0.477  0.2340 -0.4059 -0.0241
21255SOL    HW168612   8.315   9.109   0.402  0.2903  2.1663  1.0233
21255SOL    HW268613   8.454   9.069   0.445  0.1085 -0.1800 -0.4349
21256SOL     OW68614   7.110   5.736   9.833 -0.0147  0.2955  0.0688
21256SOL    HW168615   7.074   5.811   9.786 -0.6374  0.4982  0.8630
21256SOL    HW268616   7.060   5.732   9.915 -0.0138 -1.0061  0.0139
21257SOL     OW68617   7.277   7.197   8.783 -0.6090 -0.0936 -1.0240
21257SOL    HW168618   7.204   7.180   8.842 -0.3532 -0.1711 -0.7294
21257SOL    HW268619   7.339   7.249   8.836  0.5117 -1.8148 -0.5930
21258SOL     OW68620   7.013   6.217   0.183  0.4130  0.1038 -0.2623
21258SOL    HW168621   6.941   6.262   0.227 -0.6487 -2.8654  1.1551
21258SOL    HW268622   7.088   6.275   0.194 -1.1225  1.9859  0.5919
21259SOL     OW68623   6.093   5.312   0.245 -0.3052 -0.4634 -0.5867
21259SOL    HW168624   6.130   5.392   0.282 -0.3603  0.2520 -2.0343
21259SOL    HW268625   6.066   5.337   0.157 -1.5699 -1.7318 -0.5734
21260SOL     OW68626   6.507   7.229   9.700 -0.1778  0.2753  0.1571
21260SOL    HW168627   6.518   7.188   9.614 -1.4533 -1.2091  0.6631
21260SOL    HW268628   6.414   7.253   9.703 -0.0768  0.5761  1.0017
21261SOL     OW68629   5.368   7.527   8.227 -0.0842  0.5418 -0.5209
21261SOL    HW168630   5.345   7.575   8.306 -0.9383 -1.4810  0.4934
21261SOL    HW268631   5.285   7.510   8.183  0.2094  0.0524 -0.9051
21262SOL     OW68632   6.023   5.753   9.107  0.5168 -0.0340  0.2434
21262SOL    HW168633   6.016   5.832   9.162 -0.4194 -0.3829  0.6350
21262SOL    HW268634   6.097   5.705   9.144 -1.9524 -1.7690  3.1921
21263SOL     OW68635   7.927   6.222   0.768  0.0450  0.1347  0.1922
21263SOL    HW168636   7.923   6.257   0.857 -0.6018 -0.2544  0.3245
21263SOL    HW268637   7.857   6.268   0.721  0.8077  0.8134 -0.2922
21264SOL     OW68638   5.715   7.085   1.181  0.4586  0.8819 -0.4662
21264SOL    HW168639   5.708   7.095   1.086  0.9744  0.8143 -0.5141
21264SOL    HW268640   5.787   7.023   1.193 -1.0983 -0.8700 -0.0888
21265SOL     OW68641   6.767   7.508   9.921  0.3453  0.3868 -0.2052
21265SOL    HW168642   6.708   7.503   9.996 -0.8193 -1.8694 -1.2240
21265SOL    HW268643   6.769   7.601   9.898 -1.0766  0.7911  1.1937
21266SOL     OW68644   5.462   7.581   9.780  0.3738  0.0650  0.1848
21266SOL    HW168645   5.506   7.516   9.834 -0.1269 -0.9779 -0.6498
21266SOL    HW268646   5.391   7.614   9.835  0.5130 -0.2367  0.5423
21267SOL     OW68647   5.708   5.283   9.444 -0.1243 -0.6577 -0.1913
21267SOL    HW168648   5.710   5.362   9.499 -1.3451 -1.5819  1.2164
21267SOL    HW268649   5.800   5.256   9.438  0.1642  0.1938  0.3275
21268SOL     OW68650   7.277   7.147   9.517 -0.3065  0.1118 -0.6812
21268SOL    HW168651   7.206   7.082   9.521 -1.8593  1.6975 -1.6183
21268SOL    HW268652   7.236   7.227   9.549  0.4803  1.5564 -3.2057
21269SOL     OW68653   8.066   5.851   9.971  0.2767  0.3201 -0.2354
21269SOL    HW168654   8.026   5.895  10.046  0.9207  2.2118 -0.9840
21269SOL    HW268655   7.992   5.815   9.922 -0.2127 -0.0137  0.7434
21270SOL     OW68656   5.494   8.211   0.274 -0.0760 -0.1560  0.0467
21270SOL    HW168657   5.475   8.121   0.246 -1.5880 -0.0448  0.6387
21270SOL    HW268658   5.482   8.209   0.369  2.4049  0.0866  0.3825
21271SOL     OW68659   6.845   7.252   9.221  0.1572  0.2145  0.2439
21271SOL    HW168660   6.801   7.311   9.283 -0.7360  0.3792 -0.5432
21271SOL    HW268661   6.938   7.273   9.230 -0.1408  1.6744  0.0419
21272SOL     OW68662   5.620   8.499   9.815  0.4028  0.3553 -0.4987
21272SOL    HW168663   5.576   8.449   9.747 -2.4148 -0.0939  1.5882
21272SOL    HW268664   5.680   8.437   9.856  0.6030  0.0802 -1.1981
21273SOL     OW68665   7.776   7.773   2.098  0.1963  0.1133 -0.6925
21273SOL    HW168666   7.862   7.788   2.060  0.2417  2.6398  0.3636
21273SOL    HW268667   7.724   7.738   2.025  1.6190  0.1950 -1.7697
21274SOL     OW68668   4.913   8.261   0.401  0.0643  0.1501  0.1610
21274SOL    HW168669   4.951   8.253   0.489  0.4816  0.7201  0.0294
21274SOL    HW268670   4.952   8.189   0.352  0.6509  0.4779  0.1431
21275SOL     OW68671   6.003   9.109   2.216 -0.6961 -0.7567  0.2678
21275SOL    HW168672   5.978   9.132   2.127  0.5129 -0.7914 -0.0776
21275SOL    HW268673   5.919   9.091   2.260 -1.4487  1.3979 -0.2387
21276SOL     OW68674   7.025   9.665   0.294  0.4117  0.1006  0.1757
21276SOL    HW168675   7.029   9.606   0.220  1.4199 -0.1761  0.4442
21276SOL    HW268676   7.116   9.688   0.312  0.0532  1.6259  0.1598
21277SOL     OW68677   8.055   7.623   2.846  0.1871 -0.0926  0.8765
21277SOL    HW168678   8.058   7.640   2.752 -0.4511 -1.4693  0.5969
21277SOL    HW268679   7.992   7.685   2.881  1.9237  1.8135  0.7207
21278SOL     OW68680   6.259   7.894   1.060 -0.5148 -0.3976 -1.0735
21278SOL    HW168681   6.170   7.860   1.060 -0.8272  0.4146 -1.4926
21278SOL    HW268682   6.249   7.989   1.057  0.3618 -0.3041 -1.2383
21279SOL     OW68683   5.141   8.825   3.081 -0.1616 -0.1747  0.0807
21279SOL    HW168684   5.093   8.808   3.162 -0.9238 -0.5771 -0.4440
21279SOL    HW268685   5.157   8.919   3.082 -3.9687  0.6139 -1.3278
21280SOL     OW68686   6.136   8.063   2.921  0.0557  0.0910 -0.1558
21280SOL    HW168687   6.077   8.066   2.997 -0.1739  2.9657 -0.4041
21280SOL    HW268688   6.213   8.112   2.949  0.6958 -0.2812 -1.2259
21281SOL     OW68689   7.531   9.028   1.772 -0.1457 -0.2674 -0.1703
21281SOL    HW168690   7.581   9.101   1.734 -1.4925 -0.1017 -1.6794
21281SOL    HW268691   7.457   9.069   1.815 -0.8000 -0.7138 -0.8504
21282SOL     OW68692   6.284   9.369   0.509  0.0190 -0.3963  0.4115
21282SOL    HW168693   6.295   9.432   0.438 -0.5405 -1.3599 -0.5445
21282SOL    HW268694   6.369   9.327   0.519  0.4211  0.5735  1.1201
21283SOL     OW68695   6.331   8.995   0.972 -0.0241 -0.1935 -0.0231
21283SOL    HW168696   6.413   9.039   0.993  0.6161 -0.7931 -1.2386
21283SOL    HW268697   6.357   8.904   0.956 -0.7560 -0.1187 -1.6343
21284SOL     OW68698   6.904   8.070   0.512 -0.0300  0.5049 -0.2399
21284SOL    HW168699   6.871   8.155   0.481 -0.8516 -0.4262 -2.0148
21284SOL    HW268700   6.896   8.075   0.607 -3.7328  1.0099 -0.4851
21285SOL     OW68701   5.034   8.897   2.073 -0.2150 -0.0200 -0.1548
21285SOL    HW168702   5.129   8.899   2.076 -0.1604 -2.3110  0.8071
21285SOL    HW268703   5.009   8.844   2.149 -2.1739 -0.9469 -1.4266
21286SOL     OW68704   7.476   9.099   2.292  0.4443 -0.1554  0.2793
21286SOL    HW168705   7.476   9.016   2.339  0.0550 -0.4110 -0.1634
21286SOL    HW268706   7.568   9.112   2.267  0.6148 -0.1213  0.9218
21287SOL     OW68707   4.142   7.906   1.957  0.8639  0.0358  0.1265
21287SOL    HW168708   4.188   7.858   1.887  0.9573  2.5006 -1.5866
21287SOL    HW268709   4.212   7.950   2.005  0.7285 -0.9776  1.2682
21288SOL     OW68710   6.577   6.941   0.242  0.0195 -0.3720  0.1917
21288SOL    HW168711   6.506   6.980   0.192 -0.5762 -0.1864  1.1752
21288SOL    HW268712   6.602   7.009   0.305  0.5568 -0.7216  0.3617
21289SOL     OW68713   6.958   9.481   0.820 -0.0782 -0.5984 -0.1473
21289SOL    HW168714   7.041   9.495   0.866  0.0255 -0.3604 -0.4061
21289SOL    HW268715   6.984   9.447   0.734 -0.1418  1.6072 -1.0579
21290SOL     OW68716   5.952   9.712   0.712  0.0962 -0.3356  0.0144
21290SOL    HW168717   6.014   9.750   0.650  0.4150 -0.6860  0.1174
21290SOL    HW268718   6.006   9.663   0.774 -0.2854 -0.6641  0.0913
21291SOL     OW68719   8.315   7.310   2.562 -0.2384  0.7028 -0.0760
21291SOL    HW168720   8.299   7.291   2.654 -0.2756  1.5305  0.0870
21291SOL    HW268721   8.315   7.405   2.556 -0.2199  0.6554 -0.9294
21292SOL     OW68722   4.919   8.501   9.947 -0.2517 -0.2253  0.3758
21292SOL    HW168723   4.864   8.526   9.872  0.6849  0.2619 -0.1693
21292SOL    HW268724   4.893   8.411   9.967 -0.4751 -0.3875 -0.5861
21293SOL     OW68725   7.654   1.191   9.045  0.2005  0.1483 -0.0319
21293SOL    HW168726   7.735   1.142   9.034  1.2730  2.1595 -1.3981
21293SOL    HW268727   7.601   1.137   9.105  1.5971 -2.2982 -0.9152
21294SOL     OW68728   7.508   9.230   9.024 -0.0945  0.0315 -0.3015
21294SOL    HW168729   7.436   9.204   9.080 -1.2218  0.5659 -1.4646
21294SOL    HW268730   7.502   9.326   9.020 -1.7742 -0.1158 -3.4982
21295SOL     OW68731   5.628   8.753   9.737  0.0828 -0.0208 -0.2260
21295SOL    HW168732   5.630   8.660   9.758 -0.5103  0.3650  1.6224
21295SOL    HW268733   5.710   8.788   9.772  0.9083 -0.0414 -2.0398
21296SOL     OW68734   5.491   8.668   1.026  0.1471  0.3013  0.1331
21296SOL    HW168735   5.411   8.694   0.981  0.1245 -1.2942 -0.7725
21296SOL    HW268736   5.468   8.671   1.119 -1.2017 -0.9131 -0.1606
21297SOL     OW68737   6.067   9.036   0.655 -0.1584  0.6568  0.3816
21297SOL    HW168738   6.028   9.019   0.740  1.9461 -0.9758  1.0652
21297SOL    HW268739   6.023   8.977   0.595 -0.5280  0.6580  0.6540
21298SOL     OW68740   6.518   8.158   1.296  0.3109  0.1217  0.0059
21298SOL    HW168741   6.424   8.145   1.286  0.0388  0.9932  1.2840
21298SOL    HW268742   6.550   8.175   1.207 -0.2888 -2.8206 -0.8386
21299SOL     OW68743   7.470   8.950   0.188 -0.0968  0.0180 -0.9511
21299SOL    HW168744   7.381   8.981   0.205  0.1435  0.5676 -0.7127
21299SOL    HW268745   7.514   8.957   0.273 -0.0550 -1.0142 -0.8748
21300SOL     OW68746   6.734   6.709   9.618 -0.0343  0.4969 -0.5663
21300SOL    HW168747   6.812   6.703   9.673 -1.5433 -1.4064  1.4780
21300SOL    HW268748   6.661   6.715   9.680 -1.7273 -0.7595 -2.3511
21301SOL     OW68749   5.342   9.321   1.490 -0.0148  0.0119  0.5080
21301SOL    HW168750   5.301   9.293   1.409  1.3878  1.8586 -0.8761
21301SOL    HW268751   5.412   9.259   1.506  1.5111  1.2636 -1.2206
21302SOL     OW68752   7.319   7.431   0.307  0.3558  0.0814 -0.1099
21302SOL    HW168753   7.309   7.453   0.400  0.6290  0.7427 -0.2304
21302SOL    HW268754   7.406   7.465   0.284 -0.2590  1.1205 -0.9363
21303SOL     OW68755   6.637   9.058   1.225  0.3906 -0.0782  0.4737
21303SOL    HW168756   6.604   9.108   1.151 -0.8467 -0.9733  0.4013
21303SOL    HW268757   6.730   9.043   1.205  0.1847  0.1241 -0.6438
21304SOL     OW68758   4.854   6.346   1.533 -0.3520 -0.0207  0.0020
21304SOL    HW168759   4.861   6.403   1.457  1.2093 -0.6368 -0.3423
21304SOL    HW268760   4.794   6.392   1.592 -2.2428  0.0625 -1.9108
21305SOL     OW68761   7.293   9.300   0.715  0.3483  0.0860  0.3221
21305SOL    HW168762   7.217   9.255   0.678 -0.3813  0.8987  0.7897
21305SOL    HW268763   7.340   9.334   0.639  0.7573 -1.2206 -0.0165
21306SOL     OW68764   6.560   0.398   0.733  0.1263 -0.1769 -0.4605
21306SOL    HW168765   6.564   0.330   0.800 -0.1630  2.4671  2.3766
21306SOL    HW268766   6.651   0.415   0.710  0.3598  0.0153  0.5361
21307SOL     OW68767   7.114   7.869   9.459 -0.4621  0.1902  0.0189
21307SOL    HW168768   7.043   7.905   9.405 -1.3216  1.2227  1.7702
21307SOL    HW268769   7.130   7.937   9.525 -0.9419 -1.9172  2.3750
21308SOL     OW68770   7.643   7.388   1.283  0.1069 -0.5387 -0.4168
21308SOL    HW168771   7.637   7.426   1.371 -0.5695 -1.4723 -0.0521
21308SOL    HW268772   7.568   7.424   1.236  0.7048  0.2857 -0.7385
21309SOL     OW68773   7.913   9.401   9.506 -0.3433 -0.0453 -0.4924
21309SOL    HW168774   7.843   9.458   9.475 -0.6413 -0.2789 -0.2405
21309SOL    HW268775   7.893   9.315   9.469  0.0168 -0.0307 -0.7343
21310SOL     OW68776   5.779   8.657   1.925  0.3214 -0.0626  0.3105
21310SOL    HW168777   5.847   8.724   1.932  0.4857 -0.2041  0.0826
21310SOL    HW268778   5.779   8.614   2.011 -0.6939  1.0946  0.8867
21311SOL     OW68779   5.820   5.497   0.357  0.0800 -0.6065  0.0667
21311SOL    HW168780   5.734   5.524   0.388 -1.0084 -1.2003 -2.3042
21311SOL    HW268781   5.867   5.579   0.341  0.1852 -0.2898  1.9160
21312SOL     OW68782   4.292   7.388   1.541 -0.3920  0.3506  0.0110
21312SOL    HW168783   4.366   7.430   1.585 -0.4690 -1.2973  1.7765
21312SOL    HW268784   4.301   7.414   1.450  1.7603  1.0697  0.3874
21313SOL     OW68785   7.332   6.645   0.299  0.5395  0.3480 -0.8109
21313SOL    HW168786   7.300   6.734   0.316  2.0835  0.7873 -0.0006
21313SOL    HW268787   7.384   6.624   0.377  1.1319 -0.8058 -1.5092
21314SOL     OW68788   6.545   7.635   2.479  0.0648  0.3518  0.4828
21314SOL    HW168789   6.464   7.670   2.517 -1.1334 -2.9449  1.1078
21314SOL    HW268790   6.584   7.584   2.550  1.7777  0.4143 -0.4001
21315SOL     OW68791   6.243   9.608   9.402 -0.0745  0.0850 -0.1131
21315SOL    HW168792   6.178   9.678   9.414 -0.2828 -0.0117 -0.6473
21315SOL    HW268793   6.197   9.528   9.426  0.2792  0.1655  0.8723
21316SOL     OW68794   5.450   0.171   1.349  0.3798  0.5198 -0.0750
21316SOL    HW168795   5.361   0.207   1.357  0.3913  0.1677  1.9321
21316SOL    HW268796   5.480   0.161   1.440  2.7398  1.2765 -0.7324
21317SOL     OW68797   7.019   7.703   9.972 -0.3109 -0.2742 -0.0403
21317SOL    HW168798   7.076   7.626   9.979  0.1307  0.1629  1.4907
21317SOL    HW268799   6.960   7.683   9.899 -0.0699 -1.9787  0.2077
21318SOL     OW68800   7.260   8.017   2.553 -0.4932  0.0671 -0.3787
21318SOL    HW168801   7.204   8.094   2.541 -1.4513 -0.7045 -0.8369
21318SOL    HW268802   7.240   7.960   2.479  0.5150 -0.4527 -0.2640
21319SOL     OW68803   5.982   7.866   1.038 -0.5171  0.1131 -0.4202
21319SOL    HW168804   5.952   7.788   1.085  1.2905 -0.4179 -0.1275
21319SOL    HW268805   5.992   7.837   0.948 -0.4236  0.1747 -0.4294
21320SOL     OW68806   6.099   6.975   9.760  0.7378 -0.0461 -0.1491
21320SOL    HW168807   6.077   7.061   9.796 -1.2353 -1.2010  1.5254
21320SOL    HW268808   6.178   6.949   9.807  1.6204  1.0492 -1.0088
21321SOL     OW68809   5.414   9.380   8.604  0.0787  0.0609  0.2560
21321SOL    HW168810   5.363   9.461   8.604 -2.2619 -1.2542 -4.0999
21321SOL    HW268811   5.489   9.399   8.548 -0.5218 -0.7905 -0.8473
21322SOL     OW68812   7.612   9.994   1.049  0.0496  0.0604  0.1720
21322SOL    HW168813   7.629   9.931   1.119 -0.1752  0.6384  0.7485
21322SOL    HW268814   7.677  10.062   1.062  0.3439 -0.0886 -0.5042
21323SOL     OW68815   6.281   9.763   2.527  0.4481  0.1039  0.2144
21323SOL    HW168816   6.324   9.845   2.552 -0.6803  0.4839  0.9488
21323SOL    HW268817   6.295   9.705   2.602 -0.0461  0.1275  0.3295
21324SOL     OW68818   6.646   7.983   0.397  0.0290  0.2200 -0.2875
21324SOL    HW168819   6.592   8.059   0.416  0.7153  0.9676 -1.3147
21324SOL    HW268820   6.713   7.984   0.465  0.1395  0.6309 -0.4026
21325SOL     OW68821   5.427   8.598   0.658  0.0765  0.3506  0.2325
21325SOL    HW168822   5.499   8.545   0.625 -0.0532 -0.2364  0.8822
21325SOL    HW268823   5.375   8.537   0.710 -1.6284  0.4352 -1.3107
21326SOL     OW68824   5.135   8.594   2.483 -0.1474  0.1813  0.0923
21326SOL    HW168825   5.144   8.512   2.532 -0.6336  0.3996  0.5490
21326SOL    HW268826   5.210   8.595   2.424  0.5439 -0.0006  0.9597
21327SOL     OW68827   3.527   7.577   0.985 -0.2643 -0.0415  0.0164
21327SOL    HW168828   3.479   7.654   1.016 -0.1021 -0.2442  0.7919
21327SOL    HW268829   3.573   7.607   0.907 -1.1547  0.3240 -0.3709
21328SOL     OW68830   7.149   8.927   9.813 -0.0972  0.2482 -0.7087
21328SOL    HW168831   7.075   8.866   9.808  0.8795 -1.2589  1.9827
21328SOL    HW268832   7.114   9.010   9.783 -2.4338 -0.8298 -1.0898
21329SOL     OW68833   5.887   8.742   1.077  0.1732  0.0573 -0.0550
21329SOL    HW168834   5.870   8.799   1.003  2.4507  0.9566  0.0611
21329SOL    HW268835   5.821   8.765   1.142 -0.4873  0.7799 -0.9800
21330SOL     OW68836   6.838   7.661   0.189  0.3478 -0.2160 -0.7018
21330SOL    HW168837   6.769   7.725   0.174  0.8969  0.6841  0.5530
21330SOL    HW268838   6.892   7.665   0.109  0.3681  0.8770 -0.6416
21331SOL     OW68839   7.379   9.198   1.184 -0.1462 -0.4910 -0.7777
21331SOL    HW168840   7.387   9.162   1.272  0.2046 -0.9959 -1.0143
21331SOL    HW268841   7.379   9.293   1.196  1.1581 -0.5456 -0.3491
21332SOL     OW68842   6.044   9.094   2.738  0.3291  0.0545 -0.1287
21332SOL    HW168843   5.996   9.158   2.685 -0.2992 -0.7431 -0.5354
21332SOL    HW268844   6.011   9.108   2.827  0.7876  0.8426 -0.0799
21333SOL     OW68845   8.006   8.330   2.897  0.4490  0.7812  0.3302
21333SOL    HW168846   8.011   8.260   2.832  0.1942  1.5887 -0.5784
21333SOL    HW268847   8.003   8.410   2.845  0.8233  1.4742  1.3563
21334SOL     OW68848   6.298   8.411   9.193  0.0728  0.2796 -0.2364
21334SOL    HW168849   6.345   8.461   9.260 -1.1503  1.6647 -0.3909
21334SOL    HW268850   6.219   8.463   9.176 -0.6412 -1.1298 -1.2431
21335SOL     OW68851   5.540   7.678   2.692 -0.1426  0.3561 -0.0993
21335SOL    HW168852   5.540   7.719   2.779  0.1139  0.6435 -0.2289
21335SOL    HW268853   5.470   7.723   2.644 -1.0244 -0.5791  0.3077
21336SOL     OW68854   6.647   8.256   0.470  0.1731  0.1552  0.4789
21336SOL    HW168855   6.658   8.268   0.564 -1.7231  1.1385  0.5893
21336SOL    HW268856   6.659   8.343   0.433  1.5521 -0.3405 -0.2658
21337SOL     OW68857   6.807   5.766   1.837 -0.2976 -0.0042 -0.2158
21337SOL    HW168858   6.727   5.803   1.801 -0.1409 -0.3076 -0.8778
21337SOL    HW268859   6.864   5.753   1.762  1.4031  2.6980  0.5314
21338SOL     OW68860   5.196   8.583   0.054 -0.3179  0.1624  0.1934
21338SOL    HW168861   5.251   8.507   0.070  0.1032  0.5859  0.7750
21338SOL    HW268862   5.258   8.653   0.032 -0.3563  1.4392  3.8597
21339SOL     OW68863   6.866   7.028   0.890 -0.1397 -0.2081  0.1734
21339SOL    HW168864   6.935   6.973   0.927  0.3362  0.1000 -0.2476
21339SOL    HW268865   6.857   6.998   0.799 -0.8072 -0.4855  0.3321
21340SOL     OW68866   5.475   7.945   0.212  0.6245 -0.3585  0.3284
21340SOL    HW168867   5.429   7.947   0.127 -0.7984 -0.6365  1.0727
21340SOL    HW268868   5.509   7.856   0.219  0.5589 -0.3995  0.1381
21341SOL     OW68869   7.665   6.985   9.759 -0.0904  0.0072 -0.2776
21341SOL    HW168870   7.741   6.947   9.715  1.2770  0.5384  1.5676
21341SOL    HW268871   7.642   6.922   9.827 -0.1400  0.7146  0.3726
21342SOL     OW68872   5.905   7.984   8.911 -0.7876  0.5109  0.5785
21342SOL    HW168873   5.842   7.982   8.839  0.5288  2.3466 -0.6893
21342SOL    HW268874   5.923   8.077   8.924  2.6444  0.0049 -0.0226
21343SOL     OW68875   6.424   7.369   2.028  0.7003 -0.7078  0.3922
21343SOL    HW168876   6.459   7.358   2.116  1.5813 -0.7234  0.0563
21343SOL    HW268877   6.376   7.451   2.031  0.0518 -1.1078  1.0899
21344SOL     OW68878   6.803   9.574   1.204 -0.0572 -0.9218  0.4673
21344SOL    HW168879   6.825   9.500   1.148  0.9634 -0.2877  0.0135
21344SOL    HW268880   6.720   9.608   1.168  0.1227 -1.0714 -0.0945
21345SOL     OW68881   6.232   9.227   1.919  0.0445 -0.1751 -0.3477
21345SOL    HW168882   6.310   9.179   1.946  0.4409 -0.3305 -1.7272
21345SOL    HW268883   6.257   9.319   1.927  0.0543 -0.2206  0.1259
21346SOL     OW68884   7.178   0.023   9.350  0.0629 -0.1214 -0.4828
21346SOL    HW168885   7.159  -0.069   9.333 -1.3150 -0.1132  0.8660
21346SOL    HW268886   7.117   0.071   9.294  0.4205 -0.0410 -0.8007
21347SOL     OW68887   6.361   8.566   0.033  0.1380 -0.5580 -0.7722
21347SOL    HW168888   6.454   8.545   0.030  0.4165  0.5614 -0.1057
21347SOL    HW268889   6.328   8.542  -0.054  1.4045  0.6366 -1.6043
21348SOL     OW68890   6.361   8.290   2.066  0.0740 -0.2022 -0.0846
21348SOL    HW168891   6.290   8.353   2.080  0.8874  1.1245 -1.7538
21348SOL    HW268892   6.360   8.273   1.972  0.1039 -2.4385  0.2832
21349SOL     OW68893   7.561   6.986   0.737 -0.2735  0.0863  0.1640
21349SOL    HW168894   7.631   7.038   0.698 -0.5507  0.2631 -0.1023
21349SOL    HW268895   7.491   7.050   0.753 -0.5376 -0.1678  0.0222
21350SOL     OW68896   5.267   7.274   1.333  0.4835  0.0045 -0.4360
21350SOL    HW168897   5.340   7.213   1.325  1.3037  0.9305 -0.0844
21350SOL    HW268898   5.270   7.327   1.254 -0.3778 -0.5632 -0.8567
21351SOL     OW68899   5.750   8.551   2.529 -0.3084  0.0513 -0.1779
21351SOL    HW168900   5.842   8.528   2.512 -0.6465 -0.4899 -1.2795
21351SOL    HW268901   5.747   8.646   2.515  0.6086  0.4807  2.2673
21352SOL     OW68902   7.232   8.776   0.907 -0.1354 -0.5357 -0.0531
21352SOL    HW168903   7.282   8.822   0.974  0.1236 -0.3120 -0.3942
21352SOL    HW268904   7.181   8.711   0.955 -1.4848  0.9511  0.5973
21353SOL     OW68905   4.840   8.522   0.930  0.0192 -0.0715 -0.4514
21353SOL    HW168906   4.867   8.465   1.001  2.6437  1.4824 -0.1236
21353SOL    HW268907   4.829   8.464   0.854  0.4698 -1.2891  0.4060
21354SOL     OW68908   7.467   8.342   2.033  0.1574  0.4198 -0.3060
21354SOL    HW168909   7.533   8.398   1.991  0.5872  0.0628 -0.1119
21354SOL    HW268910   7.476   8.361   2.126  0.7587 -0.4608 -0.1806
21355SOL     OW68911   5.925   0.188   9.402 -0.4419 -0.2712  0.5960
21355SOL    HW168912   5.881   0.272   9.415  0.0389 -0.2182  2.0280
21355SOL    HW268913   6.010   0.199   9.445  0.6763 -0.6291 -1.4826
21356SOL     OW68914   8.478   9.176   9.146  0.0017  0.1907 -0.7964
21356SOL    HW168915   8.524   9.260   9.135  1.5452 -0.5985 -0.4946
21356SOL    HW268916   8.471   9.165   9.241 -1.2139  0.5193 -0.8477
21357SOL     OW68917   9.423   9.511   0.441  0.4684 -0.6834 -0.2711
21357SOL    HW168918   9.344   9.565   0.442  0.9983  0.0812  0.6454
21357SOL    HW268919   9.491   9.569   0.408  1.3734 -0.3090  2.1840
21358SOL     OW68920   6.711   7.521   9.056  0.3873  0.2029  0.0740
21358SOL    HW168921   6.803   7.534   9.079 -0.4579  2.7828  2.1349
21358SOL    HW268922   6.689   7.596   9.001 -0.6258 -0.1721 -0.0382
21359SOL     OW68923   9.314   8.665   2.133 -0.4016 -0.2928 -0.4363
21359SOL    HW168924   9.220   8.683   2.121 -1.2491 -2.2541  2.7745
21359SOL    HW268925   9.325   8.575   2.101  0.3693 -0.1323 -0.6342
21360SOL     OW68926   6.258   8.430   1.246 -0.2991 -1.0322  0.1091
21360SOL    HW168927   6.320   8.421   1.173 -0.2244  0.6092 -0.0510
21360SOL    HW268928   6.279   8.515   1.284 -2.9244 -0.1264 -0.3867
21361SOL     OW68929   8.888   8.759   1.712  0.6184  0.2025 -0.1878
21361SOL    HW168930   8.969   8.729   1.753  0.6081 -0.0097 -0.3246
21361SOL    HW268931   8.915   8.800   1.630  0.6133  0.3875 -0.0961
21362SOL     OW68932   7.716   8.200   1.264  0.1371  0.2035  0.1208
21362SOL    HW168933   7.802   8.210   1.305  0.2424 -2.6256  0.7081
21362SOL    HW268934   7.735   8.198   1.170  0.6028  0.5509  0.2041
21363SOL     OW68935   5.084   8.827   0.192  0.1000 -0.0929 -0.2385
21363SOL    HW168936   5.107   8.775   0.269 -0.8900  0.2146  0.2744
21363SOL    HW268937   5.115   8.915   0.213 -2.1677  0.4958  0.7860
21364SOL     OW68938   6.072   8.121   0.751 -0.3052 -0.7866 -0.6798
21364SOL    HW168939   6.101   8.140   0.840 -1.3318  1.2296 -0.7461
21364SOL    HW268940   6.153   8.122   0.699 -0.0867  1.9596 -0.3876
21365SOL     OW68941   6.330   7.924   0.789 -0.5201  0.0182  0.1111
21365SOL    HW168942   6.276   7.951   0.863 -2.0288 -1.0097 -0.5817
21365SOL    HW268943   6.297   7.837   0.766  0.2536  0.1179 -1.4537
21366SOL     OW68944   6.332   8.908   0.606 -0.3815  0.8361 -0.2596
21366SOL    HW168945   6.379   8.854   0.669  0.6404  2.5511  0.4633
21366SOL    HW268946   6.251   8.932   0.651 -1.2112 -0.7263 -0.8810
21367SOL     OW68947   7.385   7.574   2.436  0.8645 -0.1820  1.0162
21367SOL    HW168948   7.309   7.531   2.477 -0.1438  0.0511 -0.5684
21367SOL    HW268949   7.394   7.656   2.485 -1.4450  0.9299 -0.3016
21368SOL     OW68950   5.746   8.497   0.965 -0.5891  0.3541  0.5796
21368SOL    HW168951   5.813   8.563   0.983  0.1626  0.1983 -1.4691
21368SOL    HW268952   5.663   8.543   0.973 -0.1119  1.2421  0.4238
21369SOL     OW68953   7.181   8.010   0.402  0.1650 -0.3309  0.4791
21369SOL    HW168954   7.199   8.068   0.328  0.3112  0.6925  1.2875
21369SOL    HW268955   7.108   8.053   0.448 -0.8620 -1.6982  0.1385
21370SOL     OW68956   5.966   9.996   1.720 -0.2199  0.6126 -0.6638
21370SOL    HW168957   5.959   9.905   1.750  1.3965 -0.4517 -3.3346
21370SOL    HW268958   5.981  10.046   1.801  2.5977 -1.9611  0.5336
21371SOL     OW68959   7.021   7.857   8.431  0.2297 -0.0060 -0.5588
21371SOL    HW168960   7.027   7.772   8.388 -1.2672  0.0044 -0.8036
21371SOL    HW268961   6.957   7.845   8.501 -0.9466  1.2395 -1.3889
21372SOL     OW68962   6.451   8.582   1.467  0.3569 -0.6353 -0.0109
21372SOL    HW168963   6.463   8.632   1.386  0.4909 -2.1568 -0.9549
21372SOL    HW268964   6.376   8.624   1.510  1.8386  1.7600  0.3193
21373SOL     OW68965   6.864   8.892   0.370 -0.0031 -0.1990 -0.2567
21373SOL    HW168966   6.840   8.832   0.300  1.9445  0.7370 -1.7513
21373SOL    HW268967   6.938   8.849   0.414 -1.3508 -0.8866  1.4020
21374SOL     OW68968   8.141   7.039   1.843  0.1186  0.2007 -0.0165
21374SOL    HW168969   8.159   7.033   1.937  1.5925 -3.0386 -0.4499
21374SOL    HW268970   8.124   7.132   1.829  1.7260  1.0771  3.1320
21375SOL     OW68971   4.614   5.804   1.193  0.0192 -0.2605 -0.2912
21375SOL    HW168972   4.546   5.860   1.230  0.2806 -0.0554 -0.1192
21375SOL    HW268973   4.680   5.865   1.161 -0.2884 -0.4363 -1.2507
21376SOL     OW68974   6.079   7.625   1.314  0.6740 -0.1136 -0.1900
21376SOL    HW168975   6.149   7.578   1.269  1.4456  1.6823 -0.9422
21376SOL    HW268976   6.124   7.699   1.356 -0.5437  0.1360  0.6944
21377SOL     OW68977   6.520   8.752   0.749 -0.5810  0.4331  0.6203
21377SOL    HW168978   6.608   8.783   0.769 -0.1033  0.0763 -0.8720
21377SOL    HW268979   6.471   8.765   0.830  0.7329  1.0216  1.3345
21378SOL     OW68980   6.867   8.482   0.896  0.3629  0.5938 -0.3136
21378SOL    HW168981   6.866   8.574   0.871  0.7592  0.8256  0.4937
21378SOL    HW268982   6.857   8.434   0.813 -0.8766  1.3653 -0.6273
21379SOL     OW68983   6.075   9.030   0.169  0.1038 -0.0306 -0.0940
21379SOL    HW168984   6.100   9.041   0.261  1.2292 -1.0717 -0.2655
21379SOL    HW268985   6.145   9.070   0.119 -0.3478  0.2461 -0.5134
21380SOL     OW68986   5.238   7.622   0.892  0.3328  0.0304  0.3314
21380SOL    HW168987   5.330   7.607   0.913  0.6329 -0.7690 -1.4868
21380SOL    HW268988   5.222   7.713   0.918  0.8369 -0.6760  3.3313
21381SOL     OW68989   6.471   8.495   0.639  0.0652 -0.4546 -0.0766
21381SOL    HW168990   6.476   8.578   0.688 -0.3193 -0.2366 -0.4048
21381SOL    HW268991   6.504   8.430   0.700 -1.2657 -0.3218  0.8064
21382SOL     OW68992   7.466   7.951   0.348  0.0088  0.7135  0.0741
21382SOL    HW168993   7.550   7.919   0.315  0.1652  0.5066  0.6644
21382SOL    HW268994   7.459   8.040   0.314  1.8463  1.8067  2.4250
21383SOL     OW68995   4.296   9.078   0.895 -0.1998 -0.0190  0.6153
21383SOL    HW168996   4.206   9.077   0.927 -0.9580  1.6216 -1.3089
21383SOL    HW268997   4.322   9.170   0.898  0.4058 -0.0851 -1.4143
21384SOL     OW68998   6.909   9.185   1.451  0.3868 -0.2494  0.2070
21384SOL    HW168999   6.840   9.182   1.517 -0.1873  3.4741 -0.0962
21384SOL    HW269000   6.972   9.249   1.486  2.2032 -1.3767 -0.9039
21385SOL     OW69001   7.050   9.458   0.566 -0.0881  0.6969 -0.5456
21385SOL    HW169002   6.986   9.480   0.498 -0.6702 -2.4468 -1.0887
21385SOL    HW269003   7.133   9.489   0.531 -0.5878  0.3860 -2.0458
21386SOL     OW69004   5.816   8.792   2.390 -0.4915 -0.2335  0.4500
21386SOL    HW169005   5.824   8.844   2.471 -0.3007 -1.5845  1.3105
21386SOL    HW269006   5.905   8.765   2.370 -0.3409  1.2659 -1.0248
21387SOL     OW69007   6.849   9.370   9.059 -0.4954  0.0828  0.6956
21387SOL    HW169008   6.887   9.387   8.973  0.1902  0.7165  1.1137
21387SOL    HW269009   6.755   9.381   9.047 -0.4706 -0.6442 -0.1568
21388SOL     OW69010   6.533   7.904   9.669  0.2818  0.0396  0.4560
21388SOL    HW169011   6.562   7.947   9.589 -0.8054  1.2067  0.6696
21388SOL    HW269012   6.454   7.856   9.643 -0.5777  1.1276  0.9909
21389SOL     OW69013   5.293   8.897   1.233  0.5647 -0.1083 -0.0697
21389SOL    HW169014   5.380   8.924   1.263  0.1072  0.0983  1.0815
21389SOL    HW269015   5.240   8.893   1.312 -0.1414 -1.5343 -0.6056
21390SOL     OW69016   5.435   8.630   0.322  0.2526 -0.3678  0.2028
21390SOL    HW169017   5.409   8.594   0.407 -1.3573 -2.4700 -1.1690
21390SOL    HW269018   5.464   8.555   0.271  0.5880  0.7974 -1.3709
21391SOL     OW69019   5.468   7.158   3.576 -0.1475  0.2706  0.2374
21391SOL    HW169020   5.406   7.087   3.594  0.0963 -0.4926 -1.7915
21391SOL    HW269021   5.547   7.133   3.624 -0.0326 -0.8971 -0.5409
21392SOL     OW69022   6.581   6.889   1.985  0.2590  0.1655 -0.1932
21392SOL    HW169023   6.566   6.796   1.999  0.5783 -0.0415 -1.1800
21392SOL    HW269024   6.646   6.913   2.050 -1.9554  0.3621  2.0069
21393SOL     OW69025   5.059   9.480   0.451 -0.0829  0.3226  0.4058
21393SOL    HW169026   5.048   9.574   0.462  1.3945  0.6086 -0.4217
21393SOL    HW269027   5.034   9.464   0.359 -0.2611 -0.0858  0.5240
21394SOL     OW69028   6.575   9.247   1.045  0.9531 -0.1029 -0.0811
21394SOL    HW169029   6.554   9.197   0.966 -2.1942  0.7624  0.1328
21394SOL    HW269030   6.509   9.316   1.047  1.5826  0.4584  2.8032
21395SOL     OW69031   5.551   9.521   1.200  0.3406  0.1820 -0.7633
21395SOL    HW169032   5.645   9.540   1.208  0.3472 -0.2234  0.2561
21395SOL    HW269033   5.509   9.590   1.252  0.1169 -0.0588 -0.6276
21396SOL     OW69034   5.077   7.544   1.149 -0.5508  0.3992 -0.1946
21396SOL    HW169035   5.057   7.634   1.125  1.3689  1.4625  2.0284
21396SOL    HW269036   5.172   7.543   1.160 -0.7053 -1.5472  1.1607
21397SOL     OW69037   6.316   8.821   0.307  0.2207  0.3604 -0.1509
21397SOL    HW169038   6.396   8.775   0.281 -0.5448 -0.8313 -0.4280
21397SOL    HW269039   6.251   8.752   0.320 -0.1764  1.1393  2.3072
21398SOL     OW69040   5.933   8.888   1.933  0.0716 -0.2307  0.0226
21398SOL    HW169041   5.984   8.969   1.938  0.5475 -0.3606 -2.0072
21398SOL    HW269042   5.850   8.909   1.975 -0.2615  1.7162 -1.5035
21399SOL     OW69043   7.027   8.331   2.130  0.2534  0.3293  0.2609
21399SOL    HW169044   7.031   8.303   2.039  2.5442  2.3124 -0.2893
21399SOL    HW269045   6.963   8.402   2.131  0.5154  0.5636  0.1539
21400SOL     OW69046   5.432   7.305   0.954 -0.4539  0.2315 -0.3416
21400SOL    HW169047   5.453   7.385   0.907 -1.4670 -0.2564 -1.6515
21400SOL    HW269048   5.337   7.305   0.960 -0.5610 -1.5324 -1.5727
21401SOL     OW69049   7.175   6.856   0.561 -0.5852 -0.6051 -0.1573
21401SOL    HW169050   7.169   6.871   0.467  2.1177 -0.8177 -0.4130
21401SOL    HW269051   7.240   6.786   0.570  0.7689  0.8475  1.9512
21402SOL     OW69052   5.726   9.183   2.308 -0.0778 -0.7744  0.0296
21402SOL    HW169053   5.789   9.216   2.372  0.9908 -1.6922 -0.5264
21402SOL    HW269054   5.650   9.240   2.317  0.1190 -0.8039  2.0102
21403SOL     OW69055   6.497   7.859   1.527  0.1961 -0.0791 -0.2466
21403SOL    HW169056   6.575   7.871   1.473  0.4677  0.5052  0.2621
21403SOL    HW269057   6.427   7.839   1.464  0.1458  2.2936 -1.0024
21404SOL     OW69058   5.244   9.660   1.473 -0.8240  0.3518 -0.1856
21404SOL    HW169059   5.338   9.677   1.465  0.1466 -3.0288  2.6977
21404SOL    HW269060   5.208   9.741   1.511  0.8408  1.7836 -1.5872
21405SOL     OW69061   6.577   6.695   0.600 -0.4708  0.2436  0.2342
21405SOL    HW169062   6.638   6.690   0.526 -1.6827 -0.6242 -0.7422
21405SOL    HW269063   6.584   6.610   0.642 -1.0609  0.1104  0.0652
21406SOL     OW69064   6.905   8.128   0.797  0.1325 -0.2791 -0.2078
21406SOL    HW169065   6.976   8.099   0.855  0.7129  0.3999 -0.5703
21406SOL    HW269066   6.825   8.109   0.846  0.5344 -1.6824 -0.0843
21407SOL     OW69067   7.556   9.369   1.349 -0.1699 -0.3331  0.1963
21407SOL    HW169068   7.527   9.415   1.428  0.4459 -0.7992  0.6939
21407SOL    HW269069   7.541   9.432   1.278 -1.3687 -0.1567  0.5841
21408SOL     OW69070   6.446   9.660   1.545  0.3150  0.2555  0.7298
21408SOL    HW169071   6.441   9.702   1.631  1.6465 -0.8976  1.3733
21408SOL    HW269072   6.373   9.598   1.544 -0.3838  1.0676  0.5836
21409SOL     OW69073   5.087   7.805   1.109  0.3968  0.1547  0.3596
21409SOL    HW169074   5.017   7.870   1.096  1.6922  1.0021 -3.2025
21409SOL    HW269075   5.166   7.858   1.121  0.6860 -0.8015  2.9825
21410SOL     OW69076   5.963   9.973   0.940 -0.0488 -0.2886 -0.4235
21410SOL    HW169077   6.026  10.045   0.933 -0.7769  0.1751 -2.5275
21410SOL    HW269078   5.960   9.953   1.034  2.7363  0.0930 -0.1932
21411SOL     OW69079   7.125   0.840   1.862  0.2308  0.1620  0.5434
21411SOL    HW169080   7.118   0.797   1.947 -0.5738  1.7386  1.3006
21411SOL    HW269081   7.039   0.825   1.821  1.1831 -2.0787 -0.7563
21412SOL     OW69082   7.118   0.006   0.622  0.3149 -0.0444  0.5926
21412SOL    HW169083   7.062   0.036   0.693  0.5345  1.2410  0.2245
21412SOL    HW269084   7.059  -0.044   0.565 -0.3423  0.8378  0.4910
21413SOL     OW69085   6.434   8.811   9.678  0.7107  0.2506  0.2821
21413SOL    HW169086   6.393   8.732   9.714  0.3285  1.3832  2.4111
21413SOL    HW269087   6.521   8.813   9.717 -0.0076  1.9436  1.8569
21414SOL     OW69088   5.067   8.607   1.209 -0.0098  0.3858 -0.6381
21414SOL    HW169089   5.015   8.648   1.279  1.4948 -0.3941  0.9619
21414SOL    HW269090   5.017   8.530   1.183  0.2735 -0.3033  0.8239
21415SOL     OW69091   6.757   7.754   9.824  0.3241  0.3595  0.4852
21415SOL    HW169092   6.716   7.809   9.890  1.0207  0.4833  0.8215
21415SOL    HW269093   6.701   7.763   9.747  1.3087  2.8717  0.0094
21416SOL     OW69094   8.410   9.125   2.545 -0.6098 -0.5030  0.0635
21416SOL    HW169095   8.480   9.160   2.600 -1.5840 -0.2789  1.1968
21416SOL    HW269096   8.436   9.035   2.527 -0.7883 -0.9363  1.8274
21417SOL     OW69097   6.709   8.585   1.657 -0.3946 -0.6702 -0.2078
21417SOL    HW169098   6.618   8.601   1.681 -0.3780  0.3908 -0.8170
21417SOL    HW269099   6.743   8.530   1.728 -1.0296  0.3913  0.9405
21418SOL     OW69100   8.703   7.199   1.051  0.6267  0.2236  0.1606
21418SOL    HW169101   8.715   7.237   1.138  0.0211  1.7961 -0.4307
21418SOL    HW269102   8.618   7.232   1.022  1.0870  0.1654 -1.2706
21419SOL     OW69103   6.591   9.672   9.476 -0.1325 -0.1052  0.1394
21419SOL    HW169104   6.529   9.740   9.503  1.6239  2.0730 -1.1708
21419SOL    HW269105   6.622   9.634   9.559 -0.7451  1.0429  0.9124
21420SOL     OW69106   7.893   7.622   0.768 -0.0237  0.3370 -0.2084
21420SOL    HW169107   7.809   7.578   0.765 -0.0199  0.3624 -0.9822
21420SOL    HW269108   7.873   7.714   0.751  0.4208 -0.0658 -3.2287
21421SOL     OW69109   5.835   9.253   0.825  0.3342 -0.1800 -0.4251
21421SOL    HW169110   5.822   9.191   0.753  1.9533  0.9064 -1.7161
21421SOL    HW269111   5.759   9.311   0.821  0.4396 -0.0998 -1.3072
21422SOL     OW69112   7.788   7.066   0.596 -0.0424 -0.0504 -0.7815
21422SOL    HW169113   7.816   7.100   0.511  0.9632 -0.3856 -0.5913
21422SOL    HW269114   7.766   6.974   0.579  1.6613 -0.5606 -0.3913
21423SOL     OW69115   4.841   9.218   0.787  0.4167  0.8661 -0.4240
21423SOL    HW169116   4.753   9.189   0.761  0.9838 -0.2006 -1.1989
21423SOL    HW269117   4.825   9.289   0.849 -0.9972  0.6368 -0.4963
21424SOL     OW69118   6.865   7.821   1.627  0.3490 -0.0093 -0.3826
21424SOL    HW169119   6.784   7.863   1.655  0.5690 -1.4634  2.6581
21424SOL    HW269120   6.907   7.884   1.569 -2.3374  1.2732 -1.0022
21425SOL     OW69121   5.008   9.043   0.901  0.4902 -0.4165  0.2660
21425SOL    HW169122   4.934   9.097   0.875  0.4467 -0.3934  0.4391
21425SOL    HW269123   4.993   9.023   0.993  0.3055 -1.0468  0.1013
21426SOL     OW69124   5.358   8.698   2.729 -0.4228  0.3238  0.1026
21426SOL    HW169125   5.445   8.720   2.694  0.7162 -0.5983  2.2281
21426SOL    HW269126   5.345   8.606   2.704 -0.3745  0.1866  0.5775
21427SOL     OW69127   6.363   8.175   0.508  0.4711  0.2574 -0.7396
21427SOL    HW169128   6.284   8.227   0.519  1.0510  0.7475  1.4283
21427SOL    HW269129   6.421   8.230   0.454  0.9041  1.6991  1.1537
21428SOL     OW69130   5.281   8.240   9.533  0.2761  0.0902  0.0069
21428SOL    HW169131   5.303   8.261   9.443 -0.0211 -1.5263 -0.4600
21428SOL    HW269132   5.273   8.145   9.534 -4.4757  0.3648  0.6288
21429SOL     OW69133   6.417   7.762   1.243 -0.4889 -0.4547  0.3681
21429SOL    HW169134   6.383   7.826   1.181 -0.4916 -1.1289 -0.3313
21429SOL    HW269135   6.512   7.767   1.233 -0.5057 -0.8893 -0.0226
21430SOL     OW69136   6.653   7.867   0.155  0.1567  0.2242 -0.4005
21430SOL    HW169137   6.647   7.904   0.243  0.1354 -1.0085  0.1314
21430SOL    HW269138   6.632   7.940   0.097 -1.8458  0.5745  0.6950
21431SOL     OW69139   6.353   7.971   0.127  0.0945  0.8204  0.3758
21431SOL    HW169140   6.308   8.055   0.112 -1.1783 -0.3834 -2.9609
21431SOL    HW269141   6.423   7.969   0.062 -0.3960 -1.0587 -0.1163
21432SOL     OW69142   6.413   9.500   0.297  0.7212  0.4081  0.0402
21432SOL    HW169143   6.468   9.430   0.333  1.3510  1.0355  0.3130
21432SOL    HW269144   6.436   9.503   0.204 -0.8988 -1.2080 -0.4496
21433SOL     OW69145   4.781   8.338   0.696  0.4308  0.1192 -0.1678
21433SOL    HW169146   4.730   8.383   0.628  0.4522  1.5486  0.7402
21433SOL    HW269147   4.720   8.328   0.769  1.3603  1.6806  0.8614
21434SOL     OW69148   7.164   8.041   1.287 -0.2272 -0.1895 -0.3047
21434SOL    HW169149   7.226   7.981   1.329  0.4610  1.5208  1.1526
21434SOL    HW269150   7.212   8.123   1.277 -1.8820  0.8026 -0.2627
21435SOL     OW69151   4.458   9.851   1.249 -0.6680  0.2701 -0.3897
21435SOL    HW169152   4.410   9.932   1.259 -2.5380 -0.6472 -1.6972
21435SOL    HW269153   4.395   9.790   1.210  0.4167 -2.0735  1.4127
21436SOL     OW69154   6.790   8.333   0.114 -0.2496 -0.0566 -0.1623
21436SOL    HW169155   6.841   8.387   0.054  0.1090  1.3573  1.3782
21436SOL    HW269156   6.841   8.253   0.124 -0.2305 -0.2365 -1.5868
21437SOL     OW69157   6.350   8.186   9.801  0.1599  1.0356 -0.2031
21437SOL    HW169158   6.433   8.223   9.772  0.5842  0.6146  0.4730
21437SOL    HW269159   6.321   8.133   9.727  1.0857  0.2127  0.0192
21438SOL     OW69160   5.874   8.173   1.238 -0.4922 -0.0696  0.2336
21438SOL    HW169161   5.785   8.149   1.211 -0.5170  0.5335 -0.2278
21438SOL    HW269162   5.908   8.225   1.165 -0.2751  0.9059  1.0255
21439SOL     OW69163   6.241   7.547   2.778 -0.2242  0.4296  0.5578
21439SOL    HW169164   6.308   7.587   2.834  0.1555 -0.0191  0.4230
21439SOL    HW269165   6.200   7.481   2.834 -1.3461  1.4952  1.0171
21440SOL     OW69166   6.937   7.253   0.145  0.0036  0.1563  0.5346
21440SOL    HW169167   7.015   7.238   0.199  1.6348  0.5682 -1.6702
21440SOL    HW269168   6.960   7.221   0.058 -1.2266  2.9767 -0.9074
21441SOL     OW69169   7.430   5.918   8.517  0.0434 -0.3348  0.0118
21441SOL    HW169170   7.338   5.930   8.541  0.3190 -0.3712  1.1264
21441SOL    HW269171   7.479   5.946   8.595  0.9606 -0.6626 -0.4384
21442SOL     OW69172   5.734   9.435   1.946  0.4022 -0.3182  0.1108
21442SOL    HW169173   5.719   9.403   1.858  0.6291  1.9188 -0.7771
21442SOL    HW269174   5.646   9.448   1.983  0.2612  0.8076 -0.5887
21443SOL     OW69175   7.076   8.998   9.508  0.2545 -0.3885  1.0111
21443SOL    HW169176   7.079   8.907   9.478 -0.3585 -0.0981  0.0610
21443SOL    HW269177   6.986   9.012   9.536 -0.5997  0.9390 -2.1311
21444SOL     OW69178   8.542   9.860   1.495 -0.1368 -0.0396 -0.7184
21444SOL    HW169179   8.516   9.774   1.462  1.7057 -0.4954 -1.0117
21444SOL    HW269180   8.544   9.916   1.417 -0.7095  0.1346 -0.6165
21445SOL     OW69181   5.362   8.582   1.258 -0.4111 -0.1194 -0.4144
21445SOL    HW169182   5.284   8.585   1.202 -1.3726  0.1815  0.9376
21445SOL    HW269183   5.336   8.624   1.339  0.3265 -2.4401  1.0753
21446SOL     OW69184   6.495   8.521   0.385  0.6139  0.1294 -0.1952
21446SOL    HW169185   6.470   8.522   0.477  1.0817 -0.9068 -0.0471
21446SOL    HW269186   6.423   8.476   0.341  0.9977 -0.5463 -0.1402
21447SOL     OW69187   5.663   8.911   0.953  0.3825 -0.6343 -0.3846
21447SOL    HW169188   5.592   8.862   0.995  0.4470 -0.1521  0.2930
21447SOL    HW269189   5.686   8.858   0.876 -1.1784 -0.4478 -0.9986
21448SOL     OW69190   6.606   7.844   2.849  0.2241 -0.2578 -0.0191
21448SOL    HW169191   6.645   7.929   2.831  1.7502 -0.6276  1.4027
21448SOL    HW269192   6.518   7.864   2.881  0.1206  0.7090 -0.8913
21449SOL     OW69193   6.358   6.647   8.733 -0.8228 -0.3471 -0.2321
21449SOL    HW169194   6.442   6.624   8.774 -1.1388 -2.0453 -0.4864
21449SOL    HW269195   6.370   6.737   8.703  0.2913  0.0373  1.3019
21450SOL     OW69196   9.231   8.851   0.472  0.2927  0.1100 -0.3538
21450SOL    HW169197   9.208   8.761   0.494 -0.6700  0.0831 -1.4759
21450SOL    HW269198   9.323   8.846   0.444  0.8048 -0.2204  1.2823
21451SOL     OW69199   6.437   8.936   1.334 -0.3174 -0.3807 -0.4804
21451SOL    HW169200   6.522   8.966   1.300 -0.7537 -0.1570 -1.3858
21451SOL    HW269201   6.419   8.855   1.285 -0.8706 -0.1486 -0.6652
21452SOL     OW69202   7.183   9.412   1.399  0.0716  0.2339  0.1038
21452SOL    HW169203   7.192   9.398   1.494 -0.6760  2.3941  0.5153
21452SOL    HW269204   7.259   9.367   1.362  0.5129 -0.4434  1.7476
21453SOL     OW69205   8.576   7.250   1.903  0.1237  0.2040  0.6577
21453SOL    HW169206   8.599   7.191   1.975  0.7991 -0.2593  0.0717
21453SOL    HW269207   8.597   7.338   1.935  2.1656 -0.1580  0.3599
21454SOL     OW69208   6.912   6.444   0.407 -0.2743  0.1559 -0.5656
21454SOL    HW169209   6.996   6.457   0.451 -0.2210  0.4009 -0.7379
21454SOL    HW269210   6.880   6.360   0.440 -0.7803  0.8947  0.8192
21455SOL     OW69211   5.230   9.377   0.630  0.2372 -1.0517  0.1051
21455SOL    HW169212   5.218   9.405   0.721  2.2205  1.7506 -0.4125
21455SOL    HW269213   5.167   9.429   0.581  2.7277  1.3873 -0.6605
21456SOL     OW69214   5.623   7.788   1.112  0.1531  0.0483  0.8865
21456SOL    HW169215   5.645   7.791   1.019 -0.1524 -0.6081  0.7919
21456SOL    HW269216   5.698   7.745   1.154  0.3060  0.3754  0.9506
21457SOL     OW69217   7.079   6.985   9.521  0.5915  0.0453 -0.0172
21457SOL    HW169218   6.990   6.974   9.488  0.4893 -0.8548  0.5304
21457SOL    HW269219   7.069   6.990   9.616  1.1495 -0.3021  0.0635
21458SOL     OW69220   7.167   6.882   0.282 -0.2501  0.1288 -0.7962
21458SOL    HW169221   7.078   6.903   0.257  0.0048  2.6944  0.2941
21458SOL    HW269222   7.216   6.880   0.200 -0.9116  0.7893 -1.2053
21459SOL     OW69223   5.922   7.342   1.735 -0.2948  0.4798  0.0414
21459SOL    HW169224   5.998   7.339   1.794  0.1033 -0.7630 -0.5123
21459SOL    HW269225   5.928   7.428   1.694  1.1336  0.1945 -0.3896
21460SOL     OW69226   5.549   8.595   2.962  0.2746  0.1971  0.4458
21460SOL    HW169227   5.590   8.575   2.878 -0.2928  1.8298 -0.2452
21460SOL    HW269228   5.456   8.578   2.948  0.4513 -1.6641  1.4275
21461SOL     OW69229   3.833   9.080   3.723  0.1871  0.2261  0.5532
21461SOL    HW169230   3.840   9.139   3.798 -2.3948 -1.3841  2.1350
21461SOL    HW269231   3.796   8.999   3.759  2.1924 -1.8561 -1.8220
21462SOL     OW69232   6.379   8.988   3.627  0.1169 -0.6292  0.2034
21462SOL    HW169233   6.302   8.955   3.673  1.6220 -2.1221  1.7390
21462SOL    HW269234   6.393   9.075   3.663 -1.0708 -0.1985 -0.3674
21463SOL     OW69235   7.369   8.947   2.558 -0.9282 -0.1641  0.1492
21463SOL    HW169236   7.427   8.898   2.616 -0.9187 -1.5648 -0.9950
21463SOL    HW269237   7.396   9.038   2.568  1.4139 -0.7654 -0.2432
21464SOL     OW69238   6.853   8.521   1.884 -0.0175 -0.3085  0.6394
21464SOL    HW169239   6.844   8.550   1.974  2.7845 -1.4744  1.3498
21464SOL    HW269240   6.947   8.526   1.867 -0.1790 -2.8914 -1.2627
21465SOL     OW69241   5.228   5.882   0.692  0.0189 -0.0559  0.4689
21465SOL    HW169242   5.274   5.964   0.708 -2.6781  1.3695  1.3614
21465SOL    HW269243   5.187   5.895   0.606 -0.7081 -0.3134  0.7755
21466SOL     OW69244   7.419   9.436   5.823  0.0348  0.2776 -0.3617
21466SOL    HW169245   7.442   9.528   5.811 -0.3261  0.5920  1.2851
21466SOL    HW269246   7.330   9.438   5.859 -0.3179 -0.7464 -1.1526
21467SOL     OW69247   7.593   0.239   4.582 -0.0646  0.0257  0.0473
21467SOL    HW169248   7.607   0.209   4.492 -1.0995  0.8097 -0.3928
21467SOL    HW269249   7.499   0.227   4.597  0.2084 -0.7112  1.2598
21468SOL     OW69250   7.297   9.291   2.702 -0.5300 -0.4708  0.4063
21468SOL    HW169251   7.324   9.367   2.753  0.7630 -1.2547  0.8976
21468SOL    HW269252   7.207   9.311   2.676 -0.0004  1.5050  0.0032
21469SOL     OW69253   6.339   8.591   3.683  0.0819 -0.8034 -0.2236
21469SOL    HW169254   6.287   8.556   3.755  0.7102 -0.3108  0.4857
21469SOL    HW269255   6.282   8.586   3.607 -1.8080  1.7185  0.9583
21470SOL     OW69256   5.060   7.271   3.248 -0.1262 -0.3296 -0.0070
21470SOL    HW169257   5.131   7.299   3.307  0.7753 -1.0576 -0.7475
21470SOL    HW269258   5.043   7.348   3.194 -1.2268  0.4825  1.4223
21471SOL     OW69259   6.666   9.130   3.608  0.3789 -0.5645 -0.3649
21471SOL    HW169260   6.619   9.202   3.650 -0.0718 -0.3111 -1.2837
21471SOL    HW269261   6.681   9.160   3.518  3.4956 -0.1086  0.2693
21472SOL     OW69262   4.868   7.878   2.598  0.7831  0.5821 -0.0936
21472SOL    HW169263   4.953   7.847   2.565  1.4397  1.4999  0.7216
21472SOL    HW269264   4.886   7.910   2.686 -0.6845 -0.4611  0.6116
21473SOL     OW69265   8.062   5.507   1.350  0.0924 -0.0711 -0.4001
21473SOL    HW169266   8.050   5.479   1.441  1.2028 -0.3282 -0.3140
21473SOL    HW269267   8.055   5.602   1.353  0.1887 -0.0729 -0.0259
21474SOL     OW69268   6.839   8.611   1.392 -0.6155  0.2431 -0.3753
21474SOL    HW169269   6.896   8.689   1.397 -0.2018  0.0840 -2.2785
21474SOL    HW269270   6.787   8.615   1.472 -0.0794  2.0864 -0.0792
21475SOL     OW69271   5.875   8.857   2.645  0.0044  0.0169  0.1913
21475SOL    HW169272   5.968   8.882   2.645  0.1011 -0.3340  1.0630
21475SOL    HW269273   5.866   8.797   2.719 -0.8136 -0.3564 -0.2015
21476SOL     OW69274   6.175   7.520   1.776 -0.7750 -0.3952  0.0037
21476SOL    HW169275   6.174   7.479   1.690 -0.1554 -2.2049  0.8255
21476SOL    HW269276   6.241   7.589   1.769 -1.1394 -0.1550 -1.1346
21477SOL     OW69277   5.709   9.095   4.149 -0.5410 -0.2172  0.3908
21477SOL    HW169278   5.629   9.098   4.096  0.4767 -1.2520 -1.2249
21477SOL    HW269279   5.738   9.186   4.155  0.1515 -0.2614 -2.0910
21478SOL     OW69280   6.156   9.250   3.386  0.2378  0.1727  0.3656
21478SOL    HW169281   6.068   9.262   3.350  0.5629  0.1345 -0.4613
21478SOL    HW269282   6.211   9.235   3.309  0.8340 -0.5877  0.9347
21479SOL     OW69283   6.911   8.134   2.337 -0.0965 -0.3440 -0.1543
21479SOL    HW169284   6.947   8.119   2.250 -1.8084 -0.6603 -0.8249
21479SOL    HW269285   6.839   8.195   2.323  1.1041  1.5074  1.3699
21480SOL     OW69286   7.808   9.079   1.219 -0.8692  0.6143  0.2447
21480SOL    HW169287   7.816   9.034   1.135 -2.6441 -0.0838  0.4311
21480SOL    HW269288   7.890   9.129   1.228  1.2099 -2.6131  0.0673
21481SOL     OW69289   5.410   9.513   3.477  0.4134 -0.4189 -0.2790
21481SOL    HW169290   5.380   9.587   3.423 -0.7121 -1.6498 -1.3886
21481SOL    HW269291   5.359   9.521   3.558 -0.4447 -0.5360 -0.7972
21482SOL     OW69292   4.543   6.920   2.164 -0.2578 -0.4741 -0.0499
21482SOL    HW169293   4.511   7.009   2.182  0.4888  0.0019 -1.0129
21482SOL    HW269294   4.497   6.893   2.085 -0.3527 -0.8806  0.1438
21483SOL     OW69295   7.106   8.228   2.535 -0.4556 -0.0125 -0.3068
21483SOL    HW169296   7.045   8.210   2.463 -0.2102  0.6008 -0.6724
21483SOL    HW269297   7.056   8.284   2.595 -0.3001  0.3863 -0.5449
21484SOL     OW69298   8.203   6.630   0.389 -0.0089 -0.0940  0.6731
21484SOL    HW169299   8.277   6.688   0.403  0.8328 -0.7763 -0.8091
21484SOL    HW269300   8.146   6.677   0.328  0.8827 -0.9727 -0.8661
21485SOL     OW69301   5.270   9.586   3.718 -0.0942  0.2538 -0.0654
21485SOL    HW169302   5.286   9.678   3.738 -0.8982  0.5910 -0.9474
21485SOL    HW269303   5.205   9.559   3.783 -0.3378  0.4896 -0.2072
21486SOL     OW69304   7.075   9.620   1.273 -0.2736  0.1222 -0.0213
21486SOL    HW169305   7.121   9.543   1.307  0.5910 -0.5525 -2.6037
21486SOL    HW269306   6.987   9.587   1.252 -0.0996 -0.0005 -0.5477
21487SOL     OW69307   6.923   8.614   3.494  0.0438 -0.4120 -0.2227
21487SOL    HW169308   6.970   8.653   3.568 -1.7557  0.8900  0.2845
21487SOL    HW269309   6.903   8.689   3.437 -1.2894 -0.9323 -0.4688
21488SOL     OW69310   5.220   7.453   3.416  0.1292  1.0927 -0.0953
21488SOL    HW169311   5.158   7.508   3.464 -1.7986 -1.6216  0.6034
21488SOL    HW269312   5.302   7.460   3.465 -1.2274  0.1064  2.3482
21489SOL     OW69313   5.535   8.435   2.263  0.0159 -0.8277  0.3757
21489SOL    HW169314   5.545   8.358   2.207  1.4545 -0.8193  0.6016
21489SOL    HW269315   5.455   8.477   2.233  1.0321 -0.5525 -2.0205
21490SOL     OW69316   7.136   8.822   3.790 -0.1409  0.1116 -0.5021
21490SOL    HW169317   7.100   8.809   3.878  0.1092 -0.8983 -0.5361
21490SOL    HW269318   7.064   8.858   3.740 -0.1921  0.9923  0.2015
21491SOL     OW69319   7.277   9.614   3.447  0.2085  0.3181  0.1205
21491SOL    HW169320   7.242   9.703   3.454 -2.3211 -0.5916 -0.7247
21491SOL    HW269321   7.323   9.600   3.530 -1.3515  1.5871  1.2353
21492SOL     OW69322   5.585   8.554   4.643 -0.1803  0.1604 -0.0020
21492SOL    HW169323   5.642   8.481   4.666  1.7196  1.8573  0.8196
21492SOL    HW269324   5.501   8.533   4.685 -0.3819 -2.5722 -1.6107
21493SOL     OW69325   7.937   7.043   2.592 -0.0044  0.0191  0.7247
21493SOL    HW169326   8.017   7.054   2.643  1.2473 -0.2532 -1.0995
21493SOL    HW269327   7.943   6.953   2.558 -0.2260  0.5718 -0.8151
21494SOL     OW69328   5.435   8.848   3.060 -0.0637  0.1304  0.0436
21494SOL    HW169329   5.496   8.786   3.019  0.1953 -0.0978  0.7623
21494SOL    HW269330   5.363   8.855   2.997 -0.3688 -1.3427  0.2077
21495SOL     OW69331   5.563   8.309   1.800  0.6773  0.0971 -0.7380
21495SOL    HW169332   5.561   8.399   1.768 -1.0300  0.0458 -0.8078
21495SOL    HW269333   5.509   8.260   1.739  0.0370 -0.6186  0.3784
21496SOL     OW69334   7.105   8.268   1.620 -0.2855 -0.1304  0.0790
21496SOL    HW169335   7.171   8.223   1.567  0.7195 -0.0696  1.2625
21496SOL    HW269336   7.103   8.357   1.586 -0.8134 -0.5133 -0.9213
21497SOL     OW69337   8.007   7.348   2.649  0.4763 -0.0912  0.2807
21497SOL    HW169338   7.983   7.441   2.643 -0.9686 -0.4140  0.6273
21497SOL    HW269339   8.091   7.348   2.694  1.2362  1.1242 -1.0935
21498SOL     OW69340   6.407   6.353   3.524 -0.6562  0.3002  0.5204
21498SOL    HW169341   6.441   6.325   3.439 -2.1258 -0.4794  0.1842
21498SOL    HW269342   6.426   6.280   3.583  0.0928  0.7166  0.8008
21499SOL     OW69343   7.711   9.691   4.245  0.1986  0.5180 -0.1319
21499SOL    HW169344   7.762   9.655   4.317  0.0529 -0.3422 -0.4491
21499SOL    HW269345   7.632   9.725   4.286  0.4262  0.6530  0.1978
21500SOL     OW69346   7.099   5.825   1.926  0.1192  0.2125 -0.1586
21500SOL    HW169347   7.106   5.733   1.952  1.6180  0.4863  0.4963
21500SOL    HW269348   7.014   5.831   1.883 -1.9775 -0.5357  3.6366
21501SOL     OW69349   7.380   8.384   4.129  0.0249  0.3879 -0.1192
21501SOL    HW169350   7.436   8.436   4.072 -0.8323  1.1355 -0.2732
21501SOL    HW269351   7.297   8.431   4.132 -1.0833 -1.4431 -1.0132
21502SOL     OW69352   4.833   8.613   3.003 -0.2149  0.2310  0.1888
21502SOL    HW169353   4.869   8.630   2.916  0.7358 -0.1318  0.5041
21502SOL    HW269354   4.908   8.582   3.055 -0.2210  2.7078  1.7987
21503SOL     OW69355   5.782   8.198   2.880 -0.4885 -0.3414  0.3900
21503SOL    HW169356   5.805   8.174   2.970 -0.2586  0.1698  0.4716
21503SOL    HW269357   5.799   8.292   2.876 -1.2212 -0.2232  0.0325
21504SOL     OW69358   6.313   8.889   1.816 -0.1019 -0.0198  0.2654
21504SOL    HW169359   6.398   8.913   1.778  0.8111 -1.0243  1.6260
21504SOL    HW269360   6.271   8.835   1.749 -0.3070  1.6706 -1.0106
21505SOL     OW69361   6.023   8.090   4.131  0.0866  0.1880 -0.0006
21505SOL    HW169362   5.957   8.033   4.091 -1.8186  1.4940  1.1975
21505SOL    HW269363   6.018   8.171   4.081  0.6644  0.3617  0.2246
21506SOL     OW69364   7.362   1.023   3.142  0.3514 -0.3203  0.6593
21506SOL    HW169365   7.340   1.110   3.109  0.9887 -0.5095 -0.3006
21506SOL    HW269366   7.437   0.996   3.089  0.8889 -0.9729  1.7456
21507SOL     OW69367   6.329   9.581   3.070 -0.4618 -0.1984  0.2619
21507SOL    HW169368   6.296   9.498   3.036 -0.8295  0.2679 -0.5493
21507SOL    HW269369   6.304   9.646   3.003 -0.2305  0.5694  0.9053
21508SOL     OW69370   6.534   8.847   2.423 -0.0466 -0.4388 -0.4839
21508SOL    HW169371   6.623   8.814   2.433 -0.5262 -1.3358  0.9294
21508SOL    HW269372   6.515   8.837   2.329  1.0588 -0.9197 -0.6594
21509SOL     OW69373   5.250   6.517   3.146  0.0869  0.7180 -0.0299
21509SOL    HW169374   5.301   6.462   3.206 -0.7603  1.8631  1.7939
21509SOL    HW269375   5.185   6.457   3.109  0.2729  0.1064  0.6113
21510SOL     OW69376   7.742   8.552   4.109  0.4612  0.0385  0.0678
21510SOL    HW169377   7.824   8.577   4.066  0.2522 -3.0693 -2.3366
21510SOL    HW269378   7.678   8.547   4.038 -1.1465 -0.2190  1.5052
21511SOL     OW69379   7.736   7.922   4.408  0.0920 -0.4851  0.0683
21511SOL    HW169380   7.689   7.978   4.469 -1.2977  0.5675 -1.9110
21511SOL    HW269381   7.668   7.886   4.352  1.3931 -1.0537 -1.1724
21512SOL     OW69382   5.729   9.715   0.555 -0.2508  0.1860 -0.1504
21512SOL    HW169383   5.680   9.637   0.580 -0.5168  0.3064 -0.2929
21512SOL    HW269384   5.811   9.708   0.604 -1.0929  0.8250  1.3802
21513SOL     OW69385   8.074   9.126   3.940  0.1407 -0.1695  0.3540
21513SOL    HW169386   8.168   9.118   3.952  0.2375  0.3414 -0.0351
21513SOL    HW269387   8.062   9.137   3.846 -0.2850  0.0047  0.4262
21514SOL     OW69388   4.818   9.695   2.680  0.3132  0.0220  0.3923
21514SOL    HW169389   4.769   9.744   2.746  0.0245  0.5064 -0.1708
21514SOL    HW269390   4.836   9.759   2.611 -0.6468 -0.8222 -0.6588
21515SOL     OW69391   5.104   9.308   2.199 -0.3858  0.1534  1.0002
21515SOL    HW169392   5.034   9.370   2.174 -0.1329  0.9367  2.1703
21515SOL    HW269393   5.062   9.248   2.261 -0.4848 -0.5057  0.2990
21516SOL     OW69394   6.088   9.243   3.825  0.2085  0.1768 -0.6551
21516SOL    HW169395   6.147   9.291   3.766 -1.2064  1.9238 -0.6881
21516SOL    HW269396   6.100   9.285   3.910 -0.3183 -0.0757 -0.4594
21517SOL     OW69397   8.727   8.555   1.640  0.2406  0.0478  0.0721
21517SOL    HW169398   8.774   8.638   1.646  0.5533 -0.1442  0.2395
21517SOL    HW269399   8.795   8.489   1.629 -0.0143 -0.1812 -0.1390
21518SOL     OW69400   4.527   8.637   1.734 -0.1578 -0.5197 -0.1606
21518SOL    HW169401   4.459   8.605   1.675 -1.7574  1.7006  0.4129
21518SOL    HW269402   4.557   8.718   1.694  1.3172 -0.8450  0.2392
21519SOL     OW69403   7.097   9.075   3.161 -0.0434  0.6020  0.1764
21519SOL    HW169404   7.107   9.160   3.205  1.2402 -0.0555  1.1632
21519SOL    HW269405   7.185   9.037   3.162 -0.3595 -0.1993 -1.3856
21520SOL     OW69406   6.807   8.865   2.359 -0.4559  0.5124  0.4389
21520SOL    HW169407   6.894   8.864   2.399  0.1355 -0.3027 -0.8453
21520SOL    HW269408   6.818   8.913   2.278 -1.3019  0.7589  0.4574
21521SOL     OW69409   5.513   9.352   4.312  0.4131  0.4527 -0.5103
21521SOL    HW169410   5.466   9.316   4.237  2.1207 -0.6653 -1.0633
21521SOL    HW269411   5.521   9.445   4.293 -0.4178  0.4200 -1.0330
21522SOL     OW69412   5.943   9.747   0.343 -0.1984 -0.0414 -0.2588
21522SOL    HW169413   5.883   9.717   0.411  0.9732 -2.9721 -0.4630
21522SOL    HW269414   6.012   9.793   0.390 -0.2682 -0.5783  0.3764
21523SOL     OW69415   5.859   7.604   0.642 -0.0723  0.4753 -0.1656
21523SOL    HW169416   5.876   7.693   0.610 -0.2165  1.3186  2.0837
21523SOL    HW269417   5.771   7.583   0.611  0.3859  0.6682 -1.6477
21524SOL     OW69418   6.441   7.324   2.534  0.2180  0.3782  0.5820
21524SOL    HW169419   6.387   7.351   2.608 -0.1553 -0.1836  0.5200
21524SOL    HW269420   6.528   7.310   2.572 -0.0202 -0.1129  0.9572
21525SOL     OW69421   6.284   8.953   2.066  0.2793 -0.1633  0.2091
21525SOL    HW169422   6.286   8.920   1.976  1.2861 -1.2902  0.6267
21525SOL    HW269423   6.297   9.047   2.058 -2.1339  0.1031 -0.9874
21526SOL     OW69424   6.523   7.596   4.321  0.3560  0.3774  0.0020
21526SOL    HW169425   6.514   7.667   4.385  3.0473 -0.8904  1.8736
21526SOL    HW269426   6.542   7.519   4.374  2.0191 -0.8507 -2.2963
21527SOL     OW69427   6.675   7.973   1.769  0.1314  0.2610 -0.0512
21527SOL    HW169428   6.689   8.067   1.783  1.2244  0.2754 -1.1799
21527SOL    HW269429   6.585   7.966   1.739 -0.3554  0.8234  1.2563
21528SOL     OW69430   6.756   7.341   2.117  0.0142  0.2053 -0.0271
21528SOL    HW169431   6.799   7.425   2.128 -0.3106  0.2323  1.1198
21528SOL    HW269432   6.685   7.342   2.181  0.2651 -1.1022  0.2864
21529SOL     OW69433   8.154   0.242   2.448  0.5794 -0.0408 -0.0780
21529SOL    HW169434   8.157   0.184   2.372 -0.2752 -1.6001  1.0541
21529SOL    HW269435   8.246   0.257   2.470  0.8001 -1.6930  0.1464
21530SOL     OW69436   6.620   0.352   3.367 -0.0625  0.6019 -0.2734
21530SOL    HW169437   6.698   0.367   3.420 -0.3616  0.9881  0.0563
21530SOL    HW269438   6.602   0.258   3.377 -0.4089  0.7681  0.7166
21531SOL     OW69439   4.506   6.563   0.455 -0.6419 -0.6211 -0.3061
21531SOL    HW169440   4.591   6.584   0.494 -0.8093 -0.4236 -0.0455
21531SOL    HW269441   4.479   6.644   0.412 -0.6703 -0.7029 -0.4448
21532SOL     OW69442   7.553   7.486   2.054  0.0273  0.5199 -0.0160
21532SOL    HW169443   7.619   7.485   1.986  0.1643 -0.0556  0.1218
21532SOL    HW269444   7.470   7.476   2.008  0.2465 -2.0946  0.0261
21533SOL     OW69445   6.821   0.370   3.538  0.3819 -0.3111 -0.2696
21533SOL    HW169446   6.821   0.417   3.621  0.2245 -0.2735 -0.2899
21533SOL    HW269447   6.893   0.408   3.488 -0.2411  0.4590 -0.5920
21534SOL     OW69448   7.047   9.880   0.900 -0.3322 -0.3238 -0.3924
21534SOL    HW169449   6.966   9.830   0.894  0.2940 -1.4476  0.3195
21534SOL    HW269450   7.109   9.833   0.845  0.0870  0.0400 -0.2378
21535SOL     OW69451   7.554   9.158   2.565 -0.4226  0.1942  0.2060
21535SOL    HW169452   7.621   9.092   2.544 -0.5888 -0.2601  1.0824
21535SOL    HW269453   7.600   9.221   2.621 -0.8137 -0.3068  1.0989
21536SOL     OW69454   8.220   9.281   3.501 -0.6968  0.3854 -0.3941
21536SOL    HW169455   8.185   9.322   3.422  0.9603  1.6721 -0.4789
21536SOL    HW269456   8.279   9.346   3.538  1.8895 -1.8239 -0.4671
21537SOL     OW69457   6.471   9.149   2.020  0.3045 -0.2369  0.0721
21537SOL    HW169458   6.474   9.220   2.084 -0.8128 -0.5339  0.4743
21537SOL    HW269459   6.551   9.099   2.035  1.6296  1.5171 -0.9122
21538SOL     OW69460   6.980   8.416   2.692 -0.1285  0.1702 -0.4368
21538SOL    HW169461   7.037   8.492   2.698  0.7910 -0.4905 -0.7214
21538SOL    HW269462   6.923   8.422   2.770  0.4550  0.7176 -0.0501
21539SOL     OW69463   6.503   6.550   3.146  0.0872 -0.5087  0.7111
21539SOL    HW169464   6.507   6.491   3.221  2.6194 -1.0751  0.1543
21539SOL    HW269465   6.571   6.616   3.164 -0.7627  0.6029 -0.0640
21540SOL     OW69466   6.061   6.555   2.307 -0.2766 -0.5310 -0.3707
21540SOL    HW169467   6.010   6.529   2.384  0.3477 -1.5231 -0.2807
21540SOL    HW269468   6.024   6.503   2.236 -1.7102  1.3277 -1.0146
21541SOL     OW69469   6.124   8.286   2.351  0.2950  0.3782  0.1316
21541SOL    HW169470   6.145   8.376   2.375  0.9550  0.4779 -0.8009
21541SOL    HW269471   6.045   8.293   2.299  1.7215  0.6828 -2.0437
21542SOL     OW69472   7.297   7.575   2.741  0.0497 -0.1818  0.1018
21542SOL    HW169473   7.379   7.612   2.708  0.8764 -2.1316 -0.0755
21542SOL    HW269474   7.320   7.488   2.772 -2.0287 -0.8956 -0.2650
21543SOL     OW69475   7.354   8.107   4.121  0.1387 -0.3215  0.2106
21543SOL    HW169476   7.360   8.200   4.144  2.1124 -0.1900 -0.7803
21543SOL    HW269477   7.265   8.097   4.088 -0.3280  1.0539  0.9794
21544SOL     OW69478   8.315   9.465   2.003  0.2363  0.6573  0.0634
21544SOL    HW169479   8.219   9.460   1.993  0.2246  1.4874 -0.2535
21544SOL    HW269480   8.331   9.555   2.031  0.9623  0.6442 -0.3081
21545SOL     OW69481   5.950   9.639   2.659 -0.0549  0.1087 -0.1780
21545SOL    HW169482   5.915   9.727   2.675 -0.2574  0.4564 -2.4895
21545SOL    HW269483   6.040   9.654   2.631 -0.0456 -0.4423 -0.4425
21546SOL     OW69484   8.152   7.689   0.522  0.1694 -0.1045  0.2093
21546SOL    HW169485   8.229   7.744   0.532  0.5452 -0.5851 -0.0100
21546SOL    HW269486   8.131   7.661   0.611 -0.6582  1.2400  0.4557
21547SOL     OW69487   8.225   7.195   1.476 -0.3803  0.2264 -0.5529
21547SOL    HW169488   8.246   7.156   1.391 -4.0131 -2.1688 -0.4318
21547SOL    HW269489   8.302   7.177   1.530  0.6584 -1.0544 -2.4126
21548SOL     OW69490   6.662   9.277   1.610 -0.0376 -0.2301  0.1769
21548SOL    HW169491   6.647   9.339   1.539 -0.8119 -1.0923 -0.4304
21548SOL    HW269492   6.582   9.280   1.662  0.7589  0.8276  1.3538
21549SOL     OW69493   6.417   0.447   3.725  0.5616 -0.1341 -0.6309
21549SOL    HW169494   6.467   0.521   3.759  1.2837  0.2897 -2.5478
21549SOL    HW269495   6.457   0.370   3.764  0.9950  0.3808 -0.0661
21550SOL     OW69496   6.842   9.407   2.491 -0.2303  0.0514  0.2270
21550SOL    HW169497   6.807   9.443   2.410 -0.0435  0.2213  0.2215
21550SOL    HW269498   6.897   9.477   2.527 -0.4721  0.0548  0.6033
21551SOL     OW69499   7.252   0.864   3.639 -0.0547  0.3444  0.4514
21551SOL    HW169500   7.340   0.855   3.674 -0.2114  0.3417  0.8550
21551SOL    HW269501   7.260   0.844   3.546  0.6075  1.6316  0.2213
21552SOL     OW69502   6.836   7.809   3.563  0.1134  0.0484 -0.1042
21552SOL    HW169503   6.857   7.891   3.516 -0.1869  1.3685  2.0152
21552SOL    HW269504   6.848   7.741   3.497 -1.2702  1.9353 -2.4041
21553SOL     OW69505   7.376   9.558   3.689  0.3416  0.5662 -0.4960
21553SOL    HW169506   7.425   9.632   3.726  1.5552 -1.3697  1.9253
21553SOL    HW269507   7.426   9.481   3.716 -1.1372 -1.1680 -2.6054
21554SOL     OW69508   6.785   0.300   4.614  0.3867  0.1241 -0.2606
21554SOL    HW169509   6.693   0.324   4.599 -0.1796 -1.6584  0.2770
21554SOL    HW269510   6.810   0.251   4.536  0.1659 -1.3888  0.6040
21555SOL     OW69511   8.051   9.265   1.879 -0.6526 -0.8336  0.2150
21555SOL    HW169512   8.042   9.265   1.783 -0.7711 -3.0288  0.2053
21555SOL    HW269513   8.037   9.357   1.904 -1.0218 -0.3013 -1.8275
21556SOL     OW69514   8.118   7.689   2.589 -0.2418  0.2246 -0.2182
21556SOL    HW169515   8.198   7.635   2.584 -0.0736  0.4375  0.1425
21556SOL    HW269516   8.144   7.773   2.553 -0.2798  0.3204 -0.0220
21557SOL     OW69517   7.644   8.803   2.654 -0.0642  0.0681  0.0976
21557SOL    HW169518   7.711   8.735   2.641 -0.0369  0.5392 -2.4141
21557SOL    HW269519   7.693   8.885   2.654 -0.5201  0.3433 -0.7735
21558SOL     OW69520   5.708   9.834   4.250 -0.1665 -0.0782  0.1384
21558SOL    HW169521   5.665   9.916   4.275 -0.7344 -0.4079  0.2601
21558SOL    HW269522   5.691   9.825   4.156 -0.0934 -0.0491  0.1227
21559SOL     OW69523   5.221   7.928   2.929 -0.0645  0.0260 -0.2422
21559SOL    HW169524   5.239   8.008   2.979  0.3958 -0.8573  1.0278
21559SOL    HW269525   5.152   7.953   2.868 -1.0010  1.0137  1.1793
21560SOL     OW69526   4.978   9.632   2.416 -0.3445 -0.7719  0.7101
21560SOL    HW169527   5.071   9.655   2.409 -0.6011  0.6151  1.6503
21560SOL    HW269528   4.935   9.714   2.438 -1.9742 -1.1327 -0.9669
21561SOL     OW69529   7.857   8.832   2.093 -0.0788  0.5913  0.2822
21561SOL    HW169530   7.862   8.923   2.064 -1.3703  0.4825 -0.3510
21561SOL    HW269531   7.835   8.837   2.186 -0.7244  0.9397  0.1162
21562SOL     OW69532   5.945   9.823   3.335  0.8500  0.4467  0.3417
21562SOL    HW169533   5.976   9.881   3.265 -0.0084  2.6148  1.7003
21562SOL    HW269534   6.021   9.812   3.392  1.1476 -0.1439 -0.1709
21563SOL     OW69535   6.038   8.611   2.442 -0.1017 -0.3176 -0.2725
21563SOL    HW169536   6.092   8.641   2.369  0.0950 -0.1995 -0.0793
21563SOL    HW269537   6.099   8.603   2.516 -0.3465 -0.1745 -0.0515
21564SOL     OW69538   5.348   9.336   4.102 -0.0696  0.2595  0.0021
21564SOL    HW169539   5.342   9.416   4.050  0.1377  0.2388 -0.0554
21564SOL    HW269540   5.410   9.281   4.055  1.3475  0.8838  1.1015
21565SOL     OW69541   6.112   8.990   4.155  0.4392  0.4051  0.1729
21565SOL    HW169542   6.198   8.988   4.197  0.0048  1.7505  1.1868
21565SOL    HW269543   6.100   9.081   4.130 -0.1393 -0.0301 -1.1609
21566SOL     OW69544   6.995   7.499   1.967  0.0765  0.0292 -0.6972
21566SOL    HW169545   7.021   7.584   1.932  0.8283 -0.0660 -0.3853
21566SOL    HW269546   6.901   7.492   1.948 -0.3554  1.6603  0.7850
21567SOL     OW69547   6.648   7.995   3.290 -0.3697  0.0639 -0.0655
21567SOL    HW169548   6.736   8.028   3.274  0.6181 -1.3365  2.2418
21567SOL    HW269549   6.658   7.900   3.289 -1.3311 -0.1075  2.8182
21568SOL     OW69550   6.431   7.664   3.127  0.1217 -0.3904  0.2716
21568SOL    HW169551   6.524   7.669   3.147 -0.0320  2.0668  0.5503
21568SOL    HW269552   6.417   7.733   3.062 -1.2943 -1.5404 -0.6829
21569SOL     OW69553   8.254   9.599   1.229 -0.0876 -0.3562 -0.7694
21569SOL    HW169554   8.165   9.567   1.240 -0.5947  1.6991  1.6974
21569SOL    HW269555   8.265   9.609   1.135 -3.0610  0.8983 -1.0366
21570SOL     OW69556   5.383   8.300   2.917 -0.4315  0.5956 -0.1004
21570SOL    HW169557   5.408   8.223   2.866 -0.1646  0.0780  0.7967
21570SOL    HW269558   5.304   8.273   2.964 -0.0967  0.7287  0.5424
21571SOL     OW69559   7.143   7.951   3.625 -0.6946  0.2136  0.3764
21571SOL    HW169560   7.070   7.978   3.569  0.3156 -2.2978 -2.2568
21571SOL    HW269561   7.219   7.999   3.591 -0.0620 -1.3748 -0.4658
21572SOL     OW69562   6.597   7.495   3.352 -0.0343 -0.2151 -0.6756
21572SOL    HW169563   6.665   7.453   3.405  0.5546  1.3466 -0.1652
21572SOL    HW269564   6.528   7.429   3.345 -0.2102 -0.3686  2.2142
21573SOL     OW69565   4.084   8.948   3.320 -0.2141 -0.1334  0.3321
21573SOL    HW169566   4.047   8.976   3.404 -0.0623 -0.4894  0.5182
21573SOL    HW269567   4.127   9.026   3.286  1.1416 -0.4092  1.3532
21574SOL     OW69568   6.166   9.043   2.999 -0.0830 -0.4914  0.0226
21574SOL    HW169569   6.191   8.998   2.918  0.4991  0.8452 -0.5607
21574SOL    HW269570   6.070   9.045   2.996 -0.0355  0.6674 -1.2832
21575SOL     OW69571   7.587   8.961   4.011 -0.2706 -0.4246  0.3991
21575SOL    HW169572   7.511   8.996   3.964 -0.2287 -0.8401  0.0200
21575SOL    HW269573   7.623   8.894   3.952  2.3326  2.0278 -0.9350
21576SOL     OW69574   6.911   9.116   1.794  0.2833 -0.0173 -0.3500
21576SOL    HW169575   6.995   9.087   1.757 -0.1394 -2.7008  0.7016
21576SOL    HW269576   6.855   9.039   1.790 -2.3614  1.8732 -1.5111
21577SOL     OW69577   6.594   7.846   3.700  0.0162 -0.2553 -0.0916
21577SOL    HW169578   6.522   7.826   3.640  0.9087 -0.9071 -0.9756
21577SOL    HW269579   6.673   7.821   3.651  0.9114  1.4926  0.4266
21578SOL     OW69580   8.428   8.761   3.749  0.8319 -0.6401 -0.5321
21578SOL    HW169581   8.364   8.726   3.687 -0.5938 -1.4825  1.3777
21578SOL    HW269582   8.505   8.705   3.737  0.7090 -0.5659 -1.7817
21579SOL     OW69583   6.785   8.076   2.757 -0.5745 -0.5383 -0.4757
21579SOL    HW169584   6.796   8.068   2.663 -1.6439 -1.7341 -0.5156
21579SOL    HW269585   6.738   8.159   2.769 -0.1515 -0.2293 -0.9633
21580SOL     OW69586   7.847   8.968   2.835  0.3066 -0.4627  0.5121
21580SOL    HW169587   7.859   8.909   2.761  0.4274 -1.1945  1.1109
21580SOL    HW269588   7.872   9.054   2.802 -0.6109 -0.6031 -0.5955
21581SOL     OW69589   7.668   8.922   4.962 -0.2621 -0.6062  0.5525
21581SOL    HW169590   7.624   8.848   5.004  0.9828 -1.2084  0.8427
21581SOL    HW269591   7.699   8.887   4.879 -0.2397 -0.2280  0.4019
21582SOL     OW69592   6.073   8.227   1.751  0.4053 -0.4717  0.2621
21582SOL    HW169593   6.037   8.205   1.665  2.0553 -1.0438 -0.2898
21582SOL    HW269594   6.013   8.184   1.813 -1.3756  0.8017 -0.5458
21583SOL     OW69595   7.836   7.165   1.274 -0.0892 -0.1997 -0.5294
21583SOL    HW169596   7.809   7.097   1.212  0.6544 -0.3233 -0.7151
21583SOL    HW269597   7.803   7.247   1.235 -1.5935 -0.5114  0.0376
21584SOL     OW69598   7.631   8.383   2.909 -0.6696  1.1216  0.0826
21584SOL    HW169599   7.676   8.455   2.954 -1.7030  0.8398  1.5797
21584SOL    HW269600   7.564   8.426   2.856  0.0225  1.3858 -0.6055
21585SOL     OW69601   5.553   6.923   3.302  0.6710  0.2348  0.7755
21585SOL    HW169602   5.496   6.878   3.239  0.2104 -0.2762  1.5451
21585SOL    HW269603   5.492   6.973   3.357  1.1360  1.3539  0.2869
21586SOL     OW69604   6.667   9.094   3.330 -0.1154 -0.4908  0.0462
21586SOL    HW169605   6.708   9.093   3.244 -1.3534 -0.0952 -0.5669
21586SOL    HW269606   6.625   9.008   3.337  1.5854 -1.2533  1.0607
21587SOL     OW69607   8.620   6.298   1.534 -0.6640  0.2817  0.0884
21587SOL    HW169608   8.560   6.350   1.480  0.1419  0.4586 -0.6466
21587SOL    HW269609   8.677   6.364   1.575 -3.1671  0.4197  3.5775
21588SOL     OW69610   7.910   9.424   1.375  0.1044  0.2774 -0.6161
21588SOL    HW169611   7.857   9.476   1.436  0.6775  0.6287 -0.4126
21588SOL    HW269612   7.921   9.480   1.299  1.4214  0.8004 -0.0657
21589SOL     OW69613   5.668   9.954   2.696 -0.3346 -0.0217  0.2243
21589SOL    HW169614   5.593   9.955   2.755  1.2679 -0.0728  2.3379
21589SOL    HW269615   5.744   9.942   2.753  1.4598  1.8106 -1.6282
21590SOL     OW69616   5.821   0.329   3.941 -0.4021  0.7697 -0.0458
21590SOL    HW169617   5.829   0.238   3.914  0.9826  0.9142 -0.1726
21590SOL    HW269618   5.734   0.335   3.981 -0.3777 -0.6660  0.2388
21591SOL     OW69619   6.201   0.023   3.435  0.2614 -0.4803 -0.5221
21591SOL    HW169620   6.223  -0.033   3.360 -0.5001  0.5272 -1.5083
21591SOL    HW269621   6.137   0.085   3.400 -1.5920 -1.2464  1.4572
21592SOL     OW69622   6.341   8.843   3.182  0.5175 -0.2000 -0.0234
21592SOL    HW169623   6.286   8.921   3.173  0.2894 -0.2402  0.9612
21592SOL    HW269624   6.280   8.770   3.183  0.6247 -0.2875  0.4521
21593SOL     OW69625   5.523   9.353   2.215  0.1355 -0.5605  0.3098
21593SOL    HW169626   5.573   9.371   2.135  1.0146  3.3223  1.6243
21593SOL    HW269627   5.438   9.395   2.200  1.1776  2.3548  2.3373
21594SOL     OW69628   5.535   8.676   4.236  0.1345 -0.1133  0.7855
21594SOL    HW169629   5.447   8.683   4.272  0.5026 -2.1304  2.2152
21594SOL    HW269630   5.593   8.691   4.311  1.0044  0.5471 -0.0024
21595SOL     OW69631   7.455   9.284   4.344 -0.2594  0.0215 -0.0954
21595SOL    HW169632   7.529   9.267   4.402 -0.9263 -0.9081  0.4969
21595SOL    HW269633   7.416   9.365   4.376  0.9220  0.9114 -0.8551
21596SOL     OW69634   7.179   9.074   1.711 -0.2627  0.4436 -0.0837
21596SOL    HW169635   7.211   9.121   1.634 -0.8861 -0.0353 -0.6423
21596SOL    HW269636   7.220   9.118   1.785  0.2751  0.9608 -0.6888
21597SOL     OW69637   8.278   8.242   4.128 -0.5810  0.2796 -0.1075
21597SOL    HW169638   8.304   8.173   4.066 -1.1148 -1.6954  1.8219
21597SOL    HW269639   8.361   8.275   4.163 -0.4051 -1.1237  0.8173
21598SOL     OW69640   6.507   8.719   4.412 -0.1668 -0.0818 -0.1083
21598SOL    HW169641   6.419   8.749   4.435 -0.4036  0.2616 -1.4163
21598SOL    HW269642   6.564   8.792   4.435 -0.1329 -0.5192  1.2799
21599SOL     OW69643   6.263   8.604   0.917  0.5749  0.0847 -0.0002
21599SOL    HW169644   6.308   8.520   0.925  1.3399  0.4916 -0.0376
21599SOL    HW269645   6.324   8.668   0.953  0.2643  0.7095 -0.5741
21600SOL     OW69646   8.067   0.201   5.625 -0.7284 -0.2975 -0.0161
21600SOL    HW169647   8.074   0.296   5.633  0.6126 -0.5635  2.6001
21600SOL    HW269648   8.116   0.180   5.545  0.1442  1.0913  0.1401
21601SOL     OW69649   7.668   8.803   1.870 -0.4531 -0.2730 -0.0987
21601SOL    HW169650   7.631   8.891   1.860  0.5114  0.1725  0.1441
21601SOL    HW269651   7.727   8.810   1.946  0.9195 -0.6750 -1.0975
21602SOL     OW69652   5.649   9.470   3.373 -0.3158  0.6767 -0.0434
21602SOL    HW169653   5.665   9.563   3.389 -0.5542  0.3069  2.4664
21602SOL    HW269654   5.556   9.457   3.392 -1.1271  0.5360 -3.6167
21603SOL     OW69655   7.996   9.081   4.888 -0.0563 -0.0181  0.0644
21603SOL    HW169656   8.078   9.129   4.888  0.5843 -1.0934  1.4933
21603SOL    HW269657   7.954   9.106   4.805  1.7016  0.5218 -0.6918
21604SOL     OW69658   7.798   9.505   4.060  0.1366  0.3708  0.2109
21604SOL    HW169659   7.770   9.565   4.128 -0.2337  0.2150  0.1960
21604SOL    HW269660   7.730   9.438   4.057  0.0923  0.4363 -0.3837
21605SOL     OW69661   7.079   1.435   2.723 -0.0228 -0.0364  0.2866
21605SOL    HW169662   7.108   1.430   2.632 -0.5638  0.7796  0.0711
21605SOL    HW269663   7.060   1.344   2.746 -1.8172 -0.0305 -1.0453
21606SOL     OW69664   6.482   0.800   2.580  0.8914 -1.1750 -0.3103
21606SOL    HW169665   6.406   0.744   2.567  0.0292 -0.1711  0.3734
21606SOL    HW269666   6.549   0.762   2.523 -0.2788 -1.7338 -1.3348
21607SOL     OW69667   5.709   0.593   2.098 -0.2959  0.5300  0.1984
21607SOL    HW169668   5.784   0.594   2.158  0.3943  1.0708 -0.6505
21607SOL    HW269669   5.732   0.656   2.030 -1.0819 -0.0341 -0.6102
21608SOL     OW69670   7.978   8.004   3.562  0.1354 -0.1352  0.1528
21608SOL    HW169671   7.935   8.043   3.639 -1.5082  0.6314 -1.1194
21608SOL    HW269672   8.020   8.079   3.519 -0.9659 -0.1585 -0.9761
21609SOL     OW69673   7.935   7.887   1.349  0.0151  0.3285  1.1376
21609SOL    HW169674   7.897   7.899   1.262  0.3855  2.9984  1.2991
21609SOL    HW269675   7.879   7.822   1.391 -0.4444 -0.6565 -0.9137
21610SOL     OW69676   7.467   9.156   2.900  0.0439  0.6600  0.0807
21610SOL    HW169677   7.475   9.128   2.809 -0.7242 -0.0993  0.2459
21610SOL    HW269678   7.420   9.239   2.896  0.0227  0.6338 -0.2167
21611SOL     OW69679   6.947   1.071   4.807 -0.1643  0.6362 -0.2147
21611SOL    HW169680   6.948   1.055   4.712 -1.5221  0.4695 -0.2113
21611SOL    HW269681   6.859   1.103   4.825 -0.1241  0.0468  1.0969
21612SOL     OW69682   7.958   8.735   3.286  0.3329  0.0332  0.1254
21612SOL    HW169683   8.053   8.745   3.290  0.4509 -1.0956  0.3600
21612SOL    HW269684   7.924   8.825   3.287  1.3504  0.4220  1.1069
21613SOL     OW69685   5.341   9.748   2.801 -0.4343  0.2340  0.5600
21613SOL    HW169686   5.347   9.712   2.712  1.9698  2.4528 -0.2220
21613SOL    HW269687   5.377   9.679   2.857  1.6109  0.3098 -0.6176
21614SOL     OW69688   5.829   0.827   1.310  0.0787 -0.2042 -0.0545
21614SOL    HW169689   5.743   0.806   1.272  0.4343 -1.6481 -0.0698
21614SOL    HW269690   5.880   0.861   1.236 -0.3751  0.3718 -0.1083
21615SOL     OW69691   8.140   8.836   3.528  0.3062 -0.1699 -0.1486
21615SOL    HW169692   8.189   8.756   3.543 -0.0721  0.0306  2.2628
21615SOL    HW269693   8.150   8.853   3.434  1.5360 -2.2623 -0.4165
21616SOL     OW69694   8.148   7.231   3.463  0.3484  0.2773  0.4852
21616SOL    HW169695   8.082   7.245   3.531  0.7059 -0.6121  1.0238
21616SOL    HW269696   8.137   7.139   3.437 -1.1120  1.1174 -2.0695
21617SOL     OW69697   7.214   9.896   1.910  0.1174 -0.4626  0.1474
21617SOL    HW169698   7.291   9.951   1.922 -0.5211  0.3416  0.5246
21617SOL    HW269699   7.214   9.838   1.986  0.2436 -0.3380  0.2421
21618SOL     OW69700   6.509   9.792   1.781 -0.3762 -0.1181  0.2781
21618SOL    HW169701   6.561   9.752   1.850  0.3469 -1.2730 -0.9137
21618SOL    HW269702   6.535   9.884   1.781 -0.2490 -0.1456  1.4017
21619SOL     OW69703   4.632   8.052   3.352  0.1517  0.0203 -0.2266
21619SOL    HW169704   4.608   7.968   3.391  2.2019  0.0134  1.1495
21619SOL    HW269705   4.569   8.066   3.282 -1.2773 -1.8339  0.6604
21620SOL     OW69706   7.663   8.747   1.348  0.1458  0.1971 -0.3520
21620SOL    HW169707   7.654   8.760   1.443 -0.6600 -0.3527 -0.3435
21620SOL    HW269708   7.593   8.684   1.326  0.7874 -0.2285 -1.1915
21621SOL     OW69709   7.529   7.787   1.538  0.1244  0.1269 -0.2968
21621SOL    HW169710   7.574   7.841   1.603 -0.3134  0.5245 -0.3154
21621SOL    HW269711   7.595   7.770   1.471 -0.0891  1.8447 -0.9983
21622SOL     OW69712   5.626   7.529   1.525  0.0370  0.3188 -0.4676
21622SOL    HW169713   5.553   7.479   1.562 -0.0306  1.2505  0.6726
21622SOL    HW269714   5.585   7.602   1.479  0.2419  0.8549  0.1934
21623SOL     OW69715   7.033   9.444   2.014 -0.3999 -0.7274  0.0787
21623SOL    HW169716   6.977   9.467   2.088 -0.3851  1.7643 -0.6301
21623SOL    HW269717   7.119   9.480   2.037 -0.1931 -0.6746 -0.7611
21624SOL     OW69718   6.684   6.318   2.244 -0.3042 -0.0755 -0.1055
21624SOL    HW169719   6.746   6.258   2.204 -0.0083  0.4225 -0.4061
21624SOL    HW269720   6.731   6.402   2.248 -1.0760  0.3879 -0.6600
21625SOL     OW69721   7.355   9.206   1.520 -0.5469  0.0697 -0.4557
21625SOL    HW169722   7.363   9.287   1.570  0.3442 -0.7136  0.6936
21625SOL    HW269723   7.444   9.171   1.516 -0.7674 -0.3738 -1.7607
21626SOL     OW69724   6.961   6.642   3.075 -0.6551  0.2639  0.0701
21626SOL    HW169725   6.990   6.589   3.149  0.7121 -1.2954 -1.5271
21626SOL    HW269726   7.038   6.691   3.049 -1.3617  1.4662  0.2024
21627SOL     OW69727   7.960   8.495   1.330  0.0054  0.5619  0.7389
21627SOL    HW169728   7.886   8.469   1.384  0.2867 -0.1138  0.8166
21627SOL    HW269729   7.971   8.422   1.269 -0.5600  1.4932 -0.4950
21628SOL     OW69730   6.673   7.551   1.889 -0.3967 -0.3910 -0.1100
21628SOL    HW169731   6.706   7.558   1.800  2.0878 -0.7784  0.7411
21628SOL    HW269732   6.648   7.459   1.899  0.0380 -0.5154 -0.1654
21629SOL     OW69733   6.460   6.199   3.018 -0.2388 -0.2419 -0.0196
21629SOL    HW169734   6.436   6.131   2.955 -0.2288 -0.8964  0.6742
21629SOL    HW269735   6.531   6.246   2.976 -0.9439  0.0099 -0.9549
21630SOL     OW69736   4.967   8.775   2.588 -0.1408 -0.0247  0.0519
21630SOL    HW169737   5.024   8.710   2.546 -1.1013 -0.9978  0.2246
21630SOL    HW269738   4.952   8.739   2.676 -0.1354  0.7685  0.3764
21631SOL     OW69739   6.620   8.948   0.933  0.2521 -0.3555  0.3370
21631SOL    HW169740   6.712   8.955   0.957  0.2886  0.5797 -0.0516
21631SOL    HW269741   6.584   8.883   0.994  0.2453  2.2602  3.2721
21632SOL     OW69742   5.845   8.197   0.596  0.0270  0.3273  0.0163
21632SOL    HW169743   5.887   8.176   0.680 -1.1675  2.2701  1.1346
21632SOL    HW269744   5.918   8.215   0.537  0.8743 -0.3925  0.8183
21633SOL     OW69745   6.371   8.048   2.284  0.5130  0.2281 -0.3096
21633SOL    HW169746   6.352   8.121   2.224 -0.1182 -1.1506 -1.8292
21633SOL    HW269747   6.436   7.996   2.238 -0.2649 -1.0620  0.0270
21634SOL     OW69748   6.563   9.896   3.634 -0.0678 -0.0722 -0.4041
21634SOL    HW169749   6.535   9.823   3.578 -0.8344 -0.8339  0.9387
21634SOL    HW269750   6.483   9.947   3.648  0.7378  1.8192 -2.4498
21635SOL     OW69751   7.222   8.371   4.665  0.5124  0.6625  0.3047
21635SOL    HW169752   7.208   8.459   4.630 -0.2156  0.4895  0.1491
21635SOL    HW269753   7.200   8.379   4.758  4.2269  1.5571  1.1857
21636SOL     OW69754   5.514   9.193   3.947 -1.1424 -0.0809  0.2898
21636SOL    HW169755   5.522   9.274   3.896  2.0472 -0.2451  0.4440
21636SOL    HW269756   5.472   9.131   3.887 -0.5812  0.7302 -0.9712
21637SOL     OW69757   7.039   9.939   4.397 -0.4685  0.6360  0.2011
21637SOL    HW169758   7.074   9.949   4.486 -0.0011 -1.0111  0.2233
21637SOL    HW269759   7.116   9.918   4.344 -0.9492  0.2317 -0.3338
21638SOL     OW69760   5.773   0.207   2.886  0.6089  0.5929 -0.3187
21638SOL    HW169761   5.840   0.236   2.948 -0.2881  0.5042  0.6976
21638SOL    HW269762   5.783   0.112   2.881  0.2609  0.5294  0.1834
21639SOL     OW69763   8.728   7.984   3.238  0.0730 -0.4497 -0.7439
21639SOL    HW169764   8.719   8.074   3.209  0.1715  0.4456  1.8722
21639SOL    HW269765   8.645   7.965   3.284  0.0807 -1.6651 -1.1949
21640SOL     OW69766   7.904   6.813   1.356  0.3950 -0.2620  0.1104
21640SOL    HW169767   7.959   6.749   1.400  0.6324 -0.2633 -0.1917
21640SOL    HW269768   7.962   6.888   1.341  0.6811 -0.7894 -1.4416
21641SOL     OW69769   8.011   8.179   5.311  0.5882 -0.0538  0.3575
21641SOL    HW169770   8.083   8.233   5.344 -0.6159  1.9566 -0.1881
21641SOL    HW269771   8.029   8.170   5.217 -0.5461  1.6065 -0.0446
21642SOL     OW69772   8.283   8.523   4.008  0.2021  0.0692 -0.7079
21642SOL    HW169773   8.367   8.477   4.018 -0.0619  0.0074  1.3976
21642SOL    HW269774   8.258   8.507   3.917  0.4037 -3.5075 -0.1988
21643SOL     OW69775   6.780   9.723   3.669  0.5198  0.4190 -0.1037
21643SOL    HW169776   6.791   9.686   3.582  1.2913  2.5246 -0.9292
21643SOL    HW269777   6.708   9.785   3.661 -0.4970 -0.5620  1.1651
21644SOL     OW69778   5.897   0.086   3.527  0.6734  0.1382 -0.0859
21644SOL    HW169779   5.880   0.133   3.609  1.3555  0.3795 -0.0816
21644SOL    HW269780   5.901  -0.006   3.553 -1.1074  0.0246 -0.1655
21645SOL     OW69781   6.337   8.093   2.569  0.3687 -0.1369 -0.0706
21645SOL    HW169782   6.385   8.109   2.488  0.1056  1.7985  0.1324
21645SOL    HW269783   6.251   8.133   2.554  0.1578 -0.1817  0.9876
21646SOL     OW69784   6.634   8.320   0.772 -0.2574  0.2221  0.2339
21646SOL    HW169785   6.648   8.316   0.866 -1.4565 -0.4434  0.3915
21646SOL    HW269786   6.609   8.230   0.748  1.6870 -0.0158 -0.9834
21647SOL     OW69787   6.233   9.843   1.827  0.2921  0.1559  0.3833
21647SOL    HW169788   6.323   9.857   1.797  0.6556  1.4965  2.0662
21647SOL    HW269789   6.181   9.844   1.747  1.7628 -0.6246 -0.6068
21648SOL     OW69790   5.109   9.267   4.559  0.5942 -0.3551  0.1343
21648SOL    HW169791   5.108   9.269   4.655  0.8086 -1.9795  0.1833
21648SOL    HW269792   5.190   9.222   4.537 -0.8062 -2.5462 -0.7236
21649SOL     OW69793   5.801   8.356   1.913 -0.3639  0.0859  0.2454
21649SOL    HW169794   5.725   8.318   1.868 -1.7513  1.7629  1.1106
21649SOL    HW269795   5.816   8.440   1.870  0.4118  0.1832  0.6938
21650SOL     OW69796   5.450   7.233   2.960 -0.5840 -0.2133 -0.0918
21650SOL    HW169797   5.427   7.310   3.012 -2.5314 -0.0198 -1.1715
21650SOL    HW269798   5.472   7.269   2.874  1.4762 -0.6227  0.2521
21651SOL     OW69799   6.505   7.442   3.630 -0.2996  0.0959 -0.1125
21651SOL    HW169800   6.575   7.467   3.691 -0.2269 -0.3047 -0.0357
21651SOL    HW269801   6.535   7.475   3.545 -1.5690  2.9409  0.4889
21652SOL     OW69802   7.836   8.601   2.713  0.1441  0.6324 -0.1867
21652SOL    HW169803   7.925   8.570   2.698  0.0948  0.6872 -0.5798
21652SOL    HW269804   7.839   8.641   2.800  0.4857  0.5799 -0.1742
21653SOL     OW69805   8.400   8.903   2.747 -0.2639 -1.1758  0.3625
21653SOL    HW169806   8.327   8.860   2.704  0.3274 -1.4154 -0.4130
21653SOL    HW269807   8.373   8.995   2.755 -0.6640 -1.2719  0.1099
21654SOL     OW69808   7.186   7.160   4.319 -0.5311  0.3020  0.1765
21654SOL    HW169809   7.230   7.122   4.243 -3.2034  1.4322 -2.0344
21654SOL    HW269810   7.256   7.178   4.381  1.9132  0.7073 -2.6137
21655SOL     OW69811   7.387   8.206   1.571 -0.0571 -0.3994 -0.1385
21655SOL    HW169812   7.441   8.145   1.522  0.2580  0.1077 -0.4292
21655SOL    HW269813   7.407   8.188   1.663 -1.6139 -2.2441 -0.1258
21656SOL     OW69814   7.597   7.941   3.254  0.3571 -0.1016 -0.1209
21656SOL    HW169815   7.582   7.988   3.336 -0.2100 -0.4632 -0.0121
21656SOL    HW269816   7.525   7.968   3.198  0.4312 -0.2882 -0.3052
21657SOL     OW69817   6.850   6.135   1.821 -0.7926  0.3707  0.1586
21657SOL    HW169818   6.808   6.103   1.742 -0.2461  0.7759 -0.2959
21657SOL    HW269819   6.927   6.079   1.832 -1.4822 -0.4297  1.0400
21658SOL     OW69820   5.930   8.438   3.110  0.1580 -0.7668  0.2382
21658SOL    HW169821   5.979   8.362   3.142  1.2337  0.7298  2.2774
21658SOL    HW269822   5.871   8.460   3.181  0.0098  0.4455 -0.2522
21659SOL     OW69823   7.158   8.834   3.487 -0.4067  0.2442  0.3627
21659SOL    HW169824   7.126   8.925   3.492  0.7103  0.6592  0.0545
21659SOL    HW269825   7.186   8.823   3.397  0.3022 -0.1292  0.6302
21660SOL     OW69826   7.899   7.843   3.370 -0.1225 -0.3343 -0.4541
21660SOL    HW169827   7.929   7.912   3.429 -0.5708 -1.5622  1.2544
21660SOL    HW269828   7.959   7.770   3.385 -1.2286 -1.2339 -0.2707
21661SOL     OW69829   7.822   7.910   3.932  0.3714  0.3342  0.2381
21661SOL    HW169830   7.823   7.992   3.882  0.4464  0.4692  0.4630
21661SOL    HW269831   7.749   7.919   3.992  0.2507  0.1483  0.1185
21662SOL     OW69832   7.266   7.819   1.521  0.2797 -0.1188 -0.5085
21662SOL    HW169833   7.252   7.855   1.609 -0.1083 -2.3288  0.3648
21662SOL    HW269834   7.359   7.796   1.519 -0.2809 -2.5746  0.3191
21663SOL     OW69835   7.163   7.647   3.001 -0.4602  0.2191  0.2775
21663SOL    HW169836   7.210   7.579   2.953 -1.8222 -0.4559 -0.1268
21663SOL    HW269837   7.139   7.606   3.084 -0.2455  0.5860  0.5211
21664SOL     OW69838   6.562   7.443   1.634 -0.5973  0.7531  0.3418
21664SOL    HW169839   6.654   7.470   1.626 -0.6698  1.0368  0.4570
21664SOL    HW269840   6.545   7.392   1.555 -0.5959  1.4360 -0.1061
21665SOL     OW69841   4.838   8.359   4.405  0.1464 -0.1925 -0.8271
21665SOL    HW169842   4.934   8.360   4.403  0.3076 -0.7126  3.1121
21665SOL    HW269843   4.813   8.451   4.399  0.8637 -0.0539 -1.8417
21666SOL     OW69844   5.502   8.790   4.001  0.2061 -0.5042 -0.1256
21666SOL    HW169845   5.406   8.788   4.002  0.1833 -1.2721 -1.8961
21666SOL    HW269846   5.527   8.759   4.088 -1.1570 -0.0983  0.4293
21667SOL     OW69847   6.193   9.301   4.883  0.0353 -0.0249 -0.0343
21667SOL    HW169848   6.108   9.343   4.868  1.0957  1.7254 -1.3695
21667SOL    HW269849   6.215   9.325   4.973 -1.0776 -0.8790  0.4828
21668SOL     OW69850   6.487   8.786   2.151  0.3614 -0.1910  0.1620
21668SOL    HW169851   6.545   8.813   2.080 -1.1424 -2.0257 -1.8223
21668SOL    HW269852   6.401   8.819   2.126 -0.8842 -3.8468 -0.7279
21669SOL     OW69853   4.751   9.216   4.227  0.2656  0.3305  0.0457
21669SOL    HW169854   4.790   9.147   4.173 -2.5796 -3.3915  2.5243
21669SOL    HW269855   4.811   9.225   4.301  0.4164  0.2385 -0.0654
21670SOL     OW69856   5.964   7.598   4.515 -0.4126 -0.0366  0.1064
21670SOL    HW169857   6.057   7.599   4.537 -0.0862 -0.1070 -1.2227
21670SOL    HW269858   5.919   7.591   4.600  0.8002 -0.5269  0.7224
21671SOL     OW69859   5.997   9.165   4.650 -0.5627  0.3923 -0.5880
21671SOL    HW169860   5.942   9.243   4.641 -1.8361 -0.3821  0.2844
21671SOL    HW269861   5.941   9.093   4.622  0.5972 -0.2181 -1.3484
21672SOL     OW69862   7.604   8.447   6.223 -0.4544 -0.4243 -0.2629
21672SOL    HW169863   7.521   8.418   6.186 -0.6306  0.7259 -0.8179
21672SOL    HW269864   7.667   8.438   6.151  0.4559 -3.6452  0.8764
21673SOL     OW69865   5.804   9.731   5.335  0.0812 -0.1960 -0.2581
21673SOL    HW169866   5.781   9.819   5.365  1.9077  1.6137 -3.9180
21673SOL    HW269867   5.720   9.693   5.308 -0.5116  1.0020 -0.1484
21674SOL     OW69868   5.825   8.832   4.190 -0.4238  0.5421 -0.2469
21674SOL    HW169869   5.882   8.888   4.137 -0.6622  0.8643 -0.1639
21674SOL    HW269870   5.741   8.878   4.192 -0.4849  0.4082  0.2136
21675SOL     OW69871   5.992   0.010   5.376 -0.0498  0.2928  0.7210
21675SOL    HW169872   6.021  -0.075   5.409 -0.0014  0.1542  0.3250
21675SOL    HW269873   6.061   0.070   5.404  1.5463 -0.3220 -1.6962
21676SOL     OW69874   7.032   9.393   5.638 -0.6234  0.2528 -0.2564
21676SOL    HW169875   6.987   9.316   5.607  1.8599 -0.4643 -2.2575
21676SOL    HW269876   7.074   9.366   5.720 -0.2749 -0.3433 -0.6338
21677SOL     OW69877   7.247   9.244   5.421  0.8895  0.5474  0.2984
21677SOL    HW169878   7.167   9.272   5.377  1.0694 -1.0612 -1.0652
21677SOL    HW269879   7.317   9.265   5.359  1.5475  2.0095  1.5124
21678SOL     OW69880   4.913   9.713   4.851 -0.0239  0.0336  0.7441
21678SOL    HW169881   5.002   9.687   4.826 -0.3117  0.9957 -1.4360
21678SOL    HW269882   4.921   9.806   4.871  0.0448 -0.5554  3.6989
21679SOL     OW69883   5.749   9.824   5.986 -0.1300 -0.0297  0.1922
21679SOL    HW169884   5.718   9.915   5.984 -2.2801 -0.7575 -1.0668
21679SOL    HW269885   5.839   9.829   5.952  1.3662  2.1622  4.1541
21680SOL     OW69886   8.003   9.181   5.521  0.0668 -0.1862 -0.1000
21680SOL    HW169887   7.909   9.182   5.503  0.1404  0.7421 -0.4344
21680SOL    HW269888   8.042   9.150   5.439  0.2849  2.5446 -1.0659
21681SOL     OW69889   8.468   6.526   6.260 -0.3547 -0.0627  0.1253
21681SOL    HW169890   8.376   6.520   6.235 -0.3384 -1.8127  0.4197
21681SOL    HW269891   8.502   6.437   6.249  0.8493  0.1609  1.7434
21682SOL     OW69892   6.889   6.573   5.183  0.0021 -0.0368 -0.3296
21682SOL    HW169893   6.935   6.636   5.128 -0.6305  0.6276 -0.0968
21682SOL    HW269894   6.832   6.526   5.122 -0.5344  0.5461 -0.2799
21683SOL     OW69895   7.849   1.971   1.573 -0.3119  0.4434  0.3009
21683SOL    HW169896   7.926   1.997   1.624 -0.4274  0.6757  0.3535
21683SOL    HW269897   7.811   1.898   1.623  1.1872 -1.2271 -0.8964
21684SOL     OW69898   5.534   0.271   4.152 -0.9368  0.4277  1.1333
21684SOL    HW169899   5.456   0.217   4.168 -1.0798  1.3228  3.7507
21684SOL    HW269900   5.605   0.221   4.191 -0.6691  0.8992  1.2524
21685SOL     OW69901   8.050   8.275   3.833 -0.4022  0.2599  0.1205
21685SOL    HW169902   8.103   8.196   3.823  0.5229  0.9559 -0.5292
21685SOL    HW269903   8.113   8.347   3.823 -1.3624  1.0851  0.0188
21686SOL     OW69904   5.520   9.546   2.916  0.0063 -0.1144 -0.0523
21686SOL    HW169905   5.605   9.522   2.880 -0.3624 -1.2623 -0.1904
21686SOL    HW269906   5.457   9.503   2.858 -0.6148 -1.0839  1.3360
21687SOL     OW69907   6.589   7.461   5.601  0.6169  0.3215  0.0945
21687SOL    HW169908   6.684   7.449   5.598  0.9463  2.3496  1.4244
21687SOL    HW269909   6.569   7.469   5.694 -1.3938 -3.6667  0.1335
21688SOL     OW69910   8.185   8.852   3.881 -0.2875 -0.4594  0.9207
21688SOL    HW169911   8.273   8.829   3.852 -0.9377 -1.9831  0.1320
21688SOL    HW269912   8.173   8.942   3.850  0.5697 -0.6469  0.0094
21689SOL     OW69913   5.566   7.790   4.599  0.1482  0.8549  0.4384
21689SOL    HW169914   5.507   7.865   4.586  0.3444  1.2061  1.5122
21689SOL    HW269915   5.533   7.747   4.678 -1.1037 -1.3059 -1.1937
21690SOL     OW69916   8.011   7.669   3.131  0.4233 -0.1304  0.2424
21690SOL    HW169917   8.061   7.598   3.171  0.9645  0.0025 -0.1951
21690SOL    HW269918   8.077   7.724   3.089 -0.0545  0.2884  0.0404
21691SOL     OW69919   7.596   9.686   5.817  0.0143 -0.5215  0.4096
21691SOL    HW169920   7.667   9.658   5.875 -1.6129 -3.1747  1.2131
21691SOL    HW269921   7.638   9.705   5.734  2.0438  0.8007  1.6976
21692SOL     OW69922   7.339   7.536   3.485 -0.4698  0.1110 -0.1641
21692SOL    HW169923   7.346   7.627   3.455  0.1162 -0.2130 -1.0245
21692SOL    HW269924   7.416   7.493   3.449 -0.3753 -0.5684  0.8379
21693SOL     OW69925   6.977   8.963   6.538  0.3292  0.0798 -0.4443
21693SOL    HW169926   7.011   8.911   6.611  1.0243 -0.9023 -1.4623
21693SOL    HW269927   6.884   8.974   6.558  0.5693  0.0550  0.7322
21694SOL     OW69928   7.132   8.880   5.860 -0.2174 -0.4636 -0.4180
21694SOL    HW169929   7.135   8.792   5.898  0.4478  0.4945  1.8509
21694SOL    HW269930   7.173   8.870   5.774  1.8953 -1.9461  0.7036
21695SOL     OW69931   7.143   8.919   6.759  0.4264 -0.0173  0.5492
21695SOL    HW169932   7.178   8.843   6.713 -0.5795 -0.4259  0.4618
21695SOL    HW269933   7.220   8.974   6.776  0.7705  0.3327 -1.9799
21696SOL     OW69934   7.343   9.463   4.880  0.0357  0.0767 -0.4702
21696SOL    HW169935   7.437   9.481   4.881 -0.2809  1.8492 -1.7203
21696SOL    HW269936   7.328   9.415   4.799 -0.1053 -0.4522 -0.1363
21697SOL     OW69937   7.976   8.169   4.114 -0.2472 -0.1109 -0.1029
21697SOL    HW169938   7.975   8.112   4.036 -0.9564  0.6748 -0.6778
21697SOL    HW269939   8.020   8.249   4.084  1.0347 -0.4673  0.7906
21698SOL     OW69940   8.048   9.627   4.120 -0.2754  0.0507 -0.0220
21698SOL    HW169941   8.090   9.577   4.050  0.8874  0.5606  0.3090
21698SOL    HW269942   7.955   9.607   4.110  0.0213 -1.0364 -0.8005
21699SOL     OW69943   7.959   8.055   5.557  0.3167 -0.2150 -0.6407
21699SOL    HW169944   7.958   8.056   5.462 -0.2615  0.6513 -0.6346
21699SOL    HW269945   7.879   8.101   5.582  0.4520 -0.4578  0.2604
21700SOL     OW69946   7.166   7.371   5.619 -0.3525 -0.1220  0.8876
21700SOL    HW169947   7.255   7.346   5.644  0.2748  0.9004 -0.2548
21700SOL    HW269948   7.158   7.462   5.647 -0.3812  0.3727 -0.6562
21701SOL     OW69949   6.825   8.492   3.223 -0.1637 -0.3655 -0.0520
21701SOL    HW169950   6.739   8.521   3.255 -0.3863 -0.7342 -0.3131
21701SOL    HW269951   6.888   8.532   3.283 -0.5896 -1.2642  0.9932
21702SOL     OW69952   6.277   8.254   5.169 -0.1775  0.1763  0.4955
21702SOL    HW169953   6.266   8.251   5.074 -2.2794 -1.2046  0.7365
21702SOL    HW269954   6.331   8.331   5.184 -0.1777  0.6745 -1.7911
21703SOL     OW69955   6.448   8.748   5.743 -0.1267 -0.1151  0.5693
21703SOL    HW169956   6.466   8.718   5.654  1.9864 -0.2901  1.0345
21703SOL    HW269957   6.449   8.844   5.737 -0.7615 -0.1196  0.2766
21704SOL     OW69958   5.580   8.987   5.083 -0.0672  0.4291 -0.2072
21704SOL    HW169959   5.538   8.918   5.031 -2.6731  2.2529 -0.6369
21704SOL    HW269960   5.567   8.961   5.174  1.2790 -0.9409 -0.3940
21705SOL     OW69961   6.486   8.835   2.940 -0.5264 -0.2779 -0.3197
21705SOL    HW169962   6.424   8.852   3.011  0.0006  0.5356 -0.0406
21705SOL    HW269963   6.561   8.794   2.984  0.8733  2.5131  0.0458
21706SOL     OW69964   8.567   7.773   5.143 -0.4735  0.6163  0.0032
21706SOL    HW169965   8.621   7.808   5.213  0.7471 -0.2395 -0.4773
21706SOL    HW269966   8.491   7.734   5.187  1.3003 -1.7590  1.0448
21707SOL     OW69967   6.851   8.557   4.768 -0.2144 -0.3460  0.1995
21707SOL    HW169968   6.809   8.473   4.751 -0.0841 -0.5352  0.8097
21707SOL    HW269969   6.847   8.603   4.684  1.7221 -1.8361 -0.7813
21708SOL     OW69970   5.244   8.785   3.938  0.6369  0.0359  0.2957
21708SOL    HW169971   5.217   8.748   3.854  2.7677  4.1436 -2.3602
21708SOL    HW269972   5.171   8.843   3.964  1.0047  0.6223  0.0350
21709SOL     OW69973   6.720   8.956   4.102 -0.4376 -0.2912  0.6630
21709SOL    HW169974   6.682   9.023   4.045  0.2633  1.8918  2.7284
21709SOL    HW269975   6.649   8.893   4.115 -1.4325  0.5805 -0.4387
21710SOL     OW69976   6.951   9.569   5.820  0.2375 -0.9318  0.1011
21710SOL    HW169977   6.868   9.527   5.845 -0.2577 -0.4181 -0.6460
21710SOL    HW269978   6.969   9.537   5.732  0.8391 -1.0373  0.2579
21711SOL     OW69979   9.280   8.716   5.974 -0.9006  0.1539 -0.8872
21711SOL    HW169980   9.321   8.798   5.946 -1.0838  0.4306 -0.3611
21711SOL    HW269981   9.277   8.723   6.069 -0.2734 -0.7757 -0.7961
21712SOL     OW69982   7.317   9.104   4.868  0.2265 -0.7666  0.0043
21712SOL    HW169983   7.385   9.153   4.915 -1.3722  1.5262  0.0344
21712SOL    HW269984   7.264   9.064   4.937  1.5526 -2.6242 -0.0203
21713SOL     OW69985   6.988   8.014   5.070  0.3814 -0.2946  0.0088
21713SOL    HW169986   6.963   8.080   5.005 -1.9521 -0.5827  0.6051
21713SOL    HW269987   7.048   8.060   5.128 -0.3799  1.0073 -0.2214
21714SOL     OW69988   5.829   7.564   5.527 -0.0064 -0.3205 -0.0054
21714SOL    HW169989   5.825   7.607   5.613 -0.5530  0.8377 -0.5895
21714SOL    HW269990   5.745   7.586   5.486  0.3252 -0.7180 -0.9106
21715SOL     OW69991   6.834   9.463   4.038  0.0549 -0.6423 -0.4455
21715SOL    HW169992   6.831   9.484   4.132 -1.2768 -0.1752 -0.5939
21715SOL    HW269993   6.871   9.374   4.035  1.9038  0.0701  0.4037
21716SOL     OW69994   7.482   9.091   3.399  0.0408  0.0376 -0.1755
21716SOL    HW169995   7.487   9.002   3.434 -0.5259  0.4860  1.0732
21716SOL    HW269996   7.464   9.079   3.306  2.1879 -1.1780 -0.4652
21717SOL     OW69997   5.872   7.966   4.740 -0.3651  0.0783  0.4813
21717SOL    HW169998   5.948   8.001   4.694 -1.3254  1.2358 -0.2505
21717SOL    HW269999   5.838   7.898   4.682 -0.9255  0.7794 -0.0166
21718SOL     OW70000   7.282   7.999   3.026 -0.3098  0.2872 -0.5779
21718SOL    HW170001   7.361   8.052   3.020  0.9507 -1.5971 -0.9146
21718SOL    HW270002   7.249   8.013   3.115  1.8154 -0.8653  0.4204
21719SOL     OW70003   6.748   0.138   3.698  0.2248  0.0112 -0.0620
21719SOL    HW170004   6.699   0.066   3.657 -2.9248  1.6508  0.7205
21719SOL    HW270005   6.772   0.195   3.624  1.0566 -0.8260 -0.4529
21720SOL     OW70006   8.459   8.576   5.559  0.0711  0.5876  0.2830
21720SOL    HW170007   8.453   8.641   5.629  1.3893 -0.1241  1.0670
21720SOL    HW270008   8.446   8.492   5.602  1.1669  0.1239 -0.2628
21721SOL     OW70009   6.369   8.958   4.265  0.3116 -0.0399  0.7038
21721SOL    HW170010   6.409   8.886   4.217 -0.3181 -0.6695  1.1195
21721SOL    HW270011   6.440   9.021   4.276  0.1241  0.8025 -2.3398
21722SOL     OW70012   5.832   8.502   5.700  0.6213  0.2526  0.1301
21722SOL    HW170013   5.816   8.586   5.742  0.4905 -0.3164  1.2481
21722SOL    HW270014   5.746   8.459   5.699  0.6241  0.2596 -0.7282
21723SOL     OW70015   7.488   8.796   6.367 -0.3047  0.0194  0.4102
21723SOL    HW170016   7.533   8.877   6.343  0.4396 -0.4256  0.2903
21723SOL    HW270017   7.464   8.756   6.283 -1.3220  0.4703  0.4796
21724SOL     OW70018   6.918   7.832   5.254  0.1994 -0.5661 -0.1800
21724SOL    HW170019   7.002   7.786   5.266  1.0518  1.3169  1.4209
21724SOL    HW270020   6.931   7.886   5.176  0.5390 -0.1504  0.1633
21725SOL     OW70021   6.210   0.928   4.312  0.4022  0.0035 -0.2795
21725SOL    HW170022   6.176   0.934   4.223  1.7618  0.0534 -0.8156
21725SOL    HW270023   6.188   0.839   4.341  1.1079 -0.4623 -1.1535
21726SOL     OW70024   6.341   7.171   4.156 -0.0029  0.0511  0.0762
21726SOL    HW170025   6.253   7.136   4.165  0.7640 -1.5025  1.8035
21726SOL    HW270026   6.350   7.190   4.062 -0.6783 -3.8114 -0.8484
21727SOL     OW70027   6.832   9.304   6.377  0.3068 -0.2362 -0.1450
21727SOL    HW170028   6.878   9.387   6.368  1.8113 -0.9436  0.7692
21727SOL    HW270029   6.870   9.248   6.309  0.1992 -0.5647  0.0648
21728SOL     OW70030   5.396   8.438   4.462 -0.5051  0.0264 -0.2881
21728SOL    HW170031   5.455   8.514   4.455 -0.6959 -0.0379 -3.7965
21728SOL    HW270032   5.446   8.372   4.509  0.8129  1.3009  0.1219
21729SOL     OW70033   5.025   9.733   3.010  0.2533  0.2260  0.3439
21729SOL    HW170034   5.028   9.647   2.969  2.1052 -0.0555  1.0282
21729SOL    HW270035   4.953   9.779   2.966 -0.6790 -1.6237 -0.0885
21730SOL     OW70036   7.397   7.557   4.188  0.5149  0.4193  0.8498
21730SOL    HW170037   7.325   7.604   4.230 -0.9992 -0.8120 -0.2766
21730SOL    HW270038   7.380   7.565   4.094  1.9966  0.3237  0.5587
21731SOL     OW70039   6.935   8.006   5.947 -0.1079  0.5035 -0.8591
21731SOL    HW170040   6.899   7.976   5.863  0.3783 -0.0413 -0.8774
21731SOL    HW270041   6.858   8.022   6.002 -0.4456  1.2731 -1.5402
21732SOL     OW70042   8.422   0.081   4.297 -0.2423  0.4500  0.1863
21732SOL    HW170043   8.492   0.136   4.333 -0.4032  0.2275  0.8504
21732SOL    HW270044   8.341   0.130   4.316 -0.2515  0.8733 -0.8834
21733SOL     OW70045   7.572   9.660   4.876 -0.3003 -0.6501 -0.1360
21733SOL    HW170046   7.610   9.609   4.804  2.6548  3.1560 -1.4408
21733SOL    HW270047   7.531   9.735   4.833 -2.1724 -0.4897  1.8824
21734SOL     OW70048   7.431   6.987   5.362 -0.4525  0.0716  0.5547
21734SOL    HW170049   7.383   7.001   5.443 -0.4932 -1.9434  0.9116
21734SOL    HW270050   7.366   6.951   5.301  0.3652 -1.8190  0.7615
21735SOL     OW70051   6.969   8.845   4.016 -0.4785 -0.0749  0.1866
21735SOL    HW170052   6.880   8.813   4.026 -0.5815  0.4258  0.9115
21735SOL    HW270053   6.975   8.920   4.075 -0.3564  1.4811 -1.7541
21736SOL     OW70054   6.190   9.549   5.566 -0.5885  0.2814  0.4208
21736SOL    HW170055   6.127   9.577   5.498 -0.1604 -0.9031 -0.4862
21736SOL    HW270056   6.225   9.466   5.532  2.4294  1.5821  0.2978
21737SOL     OW70057   7.575   6.870   5.704 -0.3435 -0.1454  0.5966
21737SOL    HW170058   7.575   6.808   5.631  0.3597 -0.4966  0.8947
21737SOL    HW270059   7.569   6.816   5.782 -1.3210  0.2418  0.7958
21738SOL     OW70060   5.690   8.452   4.123 -0.2196 -0.0752 -0.6442
21738SOL    HW170061   5.612   8.398   4.111  0.0106 -0.8075  1.0117
21738SOL    HW270062   5.668   8.509   4.197  0.9662 -0.5695  0.0975
21739SOL     OW70063   6.129   8.012   4.377  0.4902  0.2841  0.1301
21739SOL    HW170064   6.107   8.058   4.296  0.7484  1.3510  0.6474
21739SOL    HW270065   6.134   7.920   4.352  0.6213  0.6065 -1.0751
21740SOL     OW70066   7.480   0.671   5.439 -0.4077  0.0224  0.4596
21740SOL    HW170067   7.568   0.635   5.438  0.0541  1.1449 -0.1093
21740SOL    HW270068   7.430   0.616   5.378  0.1668  0.0595 -0.0431
21741SOL     OW70069   6.582   8.295   5.070 -0.4983  0.3378  0.6589
21741SOL    HW170070   6.571   8.229   5.002 -0.6360 -0.2329  1.2301
21741SOL    HW270071   6.522   8.365   5.045  1.6195  1.4629 -1.4185
21742SOL     OW70072   6.586   9.483   3.820  0.5794 -0.1070 -0.2119
21742SOL    HW170073   6.662   9.503   3.875 -0.3803  1.6816  0.4922
21742SOL    HW270074   6.605   9.528   3.737  0.7443 -0.4994 -0.3883
21743SOL     OW70075   5.877   8.265   4.269  0.2238  0.1506 -0.1120
21743SOL    HW170076   5.838   8.309   4.193  0.7139 -0.6211 -0.8231
21743SOL    HW270077   5.922   8.189   4.232 -0.1469 -0.6473  1.0340
21744SOL     OW70078   7.030   9.135   4.695  0.6634  0.4084 -0.6966
21744SOL    HW170079   7.110   9.138   4.747  0.4354  1.1044 -0.3764
21744SOL    HW270080   6.982   9.060   4.729  0.2618  1.1823  0.5012
21745SOL     OW70081   6.662   9.356   2.698 -0.2765  0.1135  0.1080
21745SOL    HW170082   6.745   9.363   2.650  0.9269  0.3609  2.1861
21745SOL    HW270083   6.681   9.394   2.784 -2.8357  1.1020  0.2561
21746SOL     OW70084   5.532   8.301   6.306  0.0625  0.2083  0.1336
21746SOL    HW170085   5.526   8.272   6.397 -0.4102  0.5081  0.2036
21746SOL    HW270086   5.457   8.262   6.263  0.3523 -0.0298 -0.1570
21747SOL     OW70087   8.734   9.949   4.639  0.1048 -0.0076 -0.0710
21747SOL    HW170088   8.673   9.884   4.673  0.4802  0.3759  1.3660
21747SOL    HW270089   8.794   9.899   4.584 -1.2560 -0.4457 -1.1995
21748SOL     OW70090   7.444   1.745   5.700  0.1560 -0.3712 -0.1766
21748SOL    HW170091   7.527   1.696   5.702  0.1828 -0.3649 -0.9266
21748SOL    HW270092   7.471   1.837   5.693  0.1379 -0.0865  2.8450
21749SOL     OW70093   7.419   8.453   3.272  0.0546  0.0366  0.1565
21749SOL    HW170094   7.448   8.544   3.277 -0.0026  0.0653 -0.0353
21749SOL    HW270095   7.492   8.402   3.306 -0.0823  0.1881  0.6788
21750SOL     OW70096   5.988   8.469   3.736 -0.1835  0.4284 -0.1834
21750SOL    HW170097   5.924   8.444   3.670 -1.8160 -0.7570  1.8200
21750SOL    HW270098   5.939   8.522   3.799  1.5113  2.1691 -0.2632
21751SOL     OW70099   6.373   0.482   7.217 -0.0055  0.3377  0.1244
21751SOL    HW170100   6.468   0.485   7.229 -0.0907  0.7948  0.7062
21751SOL    HW270101   6.358   0.527   7.133  0.0446  2.9777  1.4659
21752SOL     OW70102   5.961   8.309   3.997 -0.1834 -0.0379  0.0257
21752SOL    HW170103   5.904   8.384   4.015 -1.6993 -1.4125  1.1364
21752SOL    HW270104   5.991   8.322   3.907 -2.4418  0.6220 -0.6722
21753SOL     OW70105   6.856   0.126   4.394  0.4382 -0.5952  0.2050
21753SOL    HW170106   6.921   0.056   4.390  0.9895 -0.0540 -0.3937
21753SOL    HW270107   6.896   0.199   4.347 -0.3922 -0.0826  0.2806
21754SOL     OW70108   8.318   9.442   5.529 -0.2337 -0.5475 -0.1772
21754SOL    HW170109   8.378   9.464   5.457  1.0140 -1.5208  0.5660
21754SOL    HW270110   8.335   9.509   5.595  0.2902 -1.0403  0.1851
21755SOL     OW70111   4.995   8.852   5.684 -0.3701 -0.2928  0.0498
21755SOL    HW170112   4.973   8.946   5.686 -1.9684 -0.6551  1.0864
21755SOL    HW270113   5.062   8.841   5.751  1.1307  0.3948 -1.3060
21756SOL     OW70114   4.683   8.949   3.598  0.5007  0.2106 -0.4440
21756SOL    HW170115   4.713   8.973   3.510  1.2686 -0.0552 -0.2623
21756SOL    HW270116   4.643   8.863   3.586  0.4597  0.2447 -0.5597
21757SOL     OW70117   5.488   8.146   3.696  0.1311 -0.1140 -0.1752
21757SOL    HW170118   5.447   8.215   3.748 -0.8214 -0.3531 -0.5907
21757SOL    HW270119   5.456   8.162   3.607  2.2224  0.6463 -0.8032
21758SOL     OW70120   4.648   8.804   5.780 -0.1737  0.0513  0.1030
21758SOL    HW170121   4.562   8.833   5.750  0.1697 -0.4058 -1.4058
21758SOL    HW270122   4.691   8.884   5.811 -0.5465  0.5737 -0.6922
21759SOL     OW70123   7.743   9.247   5.466 -0.3804  0.5522  0.4768
21759SOL    HW170124   7.669   9.211   5.515 -0.4961  0.6574  0.3821
21759SOL    HW270125   7.704   9.277   5.384 -0.5719  2.3376  1.1877
21760SOL     OW70126   6.779   9.802   5.808 -0.2556 -0.3247  0.3509
21760SOL    HW170127   6.780   9.839   5.896 -1.1560  0.7770 -0.0940
21760SOL    HW270128   6.849   9.737   5.809  0.7071  0.7009  1.4413
21761SOL     OW70129   7.265   8.120   3.279 -0.1729 -0.1601 -0.0650
21761SOL    HW170130   7.323   8.192   3.252 -0.3263  0.7625  2.0064
21761SOL    HW270131   7.318   8.068   3.339 -0.4274 -1.1906 -0.7172
21762SOL     OW70132   5.308   8.045   5.041 -0.1983  0.3679 -0.8609
21762SOL    HW170133   5.344   8.130   5.014 -0.1756  0.8219  0.5931
21762SOL    HW270134   5.251   8.065   5.115 -0.4358 -0.8498 -0.7072
21763SOL     OW70135   7.503   8.372   6.663  0.5304  0.0267  0.5606
21763SOL    HW170136   7.554   8.294   6.638  0.3420  0.2564 -0.5678
21763SOL    HW270137   7.515   8.432   6.590 -0.7082  0.4006  0.6632
21764SOL     OW70138   6.879   7.434   4.564  0.3646 -0.3386 -0.0737
21764SOL    HW170139   6.961   7.478   4.588  0.2659 -0.7406  1.0534
21764SOL    HW270140   6.817   7.459   4.632  0.2152 -1.9341  0.4089
21765SOL     OW70141   5.975   8.017   6.016  0.3757 -0.0578  0.1674
21765SOL    HW170142   6.059   8.055   5.988  0.2640 -0.4545 -0.7155
21765SOL    HW270143   5.952   7.956   5.946 -1.1719  0.8342 -0.1173
21766SOL     OW70144   4.771   8.298   4.773 -0.0187  0.6533  0.7866
21766SOL    HW170145   4.782   8.360   4.845 -1.4715  0.8874  0.8197
21766SOL    HW270146   4.696   8.331   4.725 -2.2050 -2.2674  2.0554
21767SOL     OW70147   5.551   6.479   3.138  0.4115  0.0931 -0.1618
21767SOL    HW170148   5.623   6.540   3.154  0.0051  0.0612  2.0468
21767SOL    HW270149   5.476   6.535   3.118  0.2538  0.2924  0.9629
21768SOL     OW70150   4.263   8.383   5.782  0.6186  0.4718 -0.0286
21768SOL    HW170151   4.293   8.387   5.691 -1.5503  2.0052 -0.7072
21768SOL    HW270152   4.319   8.445   5.829  0.3922  1.2273 -0.7397
21769SOL     OW70153   6.193   8.273   3.766  0.0713  0.2869 -0.0803
21769SOL    HW170154   6.215   8.322   3.846 -2.6156 -1.3085  1.7115
21769SOL    HW270155   6.140   8.334   3.715  1.5511  1.2081 -0.5735
21770SOL     OW70156   6.739   7.602   4.050 -0.7704  0.2356  0.2336
21770SOL    HW170157   6.778   7.561   4.128 -1.2461 -2.0833 -0.7083
21770SOL    HW270158   6.814   7.634   4.000 -0.2989 -0.6934  0.3361
21771SOL     OW70159   8.135   9.774   5.859  0.2998  0.2516 -0.6133
21771SOL    HW170160   8.090   9.838   5.915  1.5020  1.7460 -1.2946
21771SOL    HW270161   8.227   9.783   5.882  0.4121 -1.8433 -0.1567
21772SOL     OW70162   6.933   9.231   4.080 -0.4773  0.0667  0.9080
21772SOL    HW170163   7.017   9.245   4.123  0.6740 -0.3901 -1.1262
21772SOL    HW270164   6.889   9.164   4.134  1.5570 -1.6080  0.5613
21773SOL     OW70165   8.551   7.936   2.989 -0.1383 -0.1823 -0.4468
21773SOL    HW170166   8.610   8.003   2.954 -0.7232  0.5607 -0.0228
21773SOL    HW270167   8.510   7.978   3.065  0.6448 -1.5527  0.7465
21774SOL     OW70168   8.207   8.028   6.163 -0.5286 -0.0855 -0.0029
21774SOL    HW170169   8.288   7.980   6.146  0.5367  2.1898 -1.7627
21774SOL    HW270170   8.160   8.027   6.079 -1.1550  0.6791  0.3303
21775SOL     OW70171   7.859   0.206   4.805  0.0630  0.1906 -0.2244
21775SOL    HW170172   7.783   0.234   4.753  0.0375 -0.1246 -0.3639
21775SOL    HW270173   7.862   0.267   4.878 -0.1552  0.3836 -0.3741
21776SOL     OW70174   6.479   8.499   4.154 -0.4204  0.7301  0.2454
21776SOL    HW170175   6.536   8.450   4.095 -1.4591 -0.0084 -0.1602
21776SOL    HW270176   6.491   8.456   4.239 -1.7340 -0.6186 -0.2161
21777SOL     OW70177   8.404   8.790   4.947 -0.3632 -0.5996 -0.3046
21777SOL    HW170178   8.318   8.807   4.985  0.2628  1.1315  0.3832
21777SOL    HW270179   8.427   8.872   4.904  0.6922 -1.2522 -0.9867
21778SOL     OW70180   7.406   8.743   4.194  0.5399 -0.0224  0.0913
21778SOL    HW170181   7.415   8.838   4.203  1.3332  0.1251 -1.9436
21778SOL    HW270182   7.466   8.720   4.123 -0.9114 -1.8020 -0.5988
21779SOL     OW70183   6.824   7.355   3.432  0.2153  0.6488  0.0816
21779SOL    HW170184   6.891   7.297   3.397  0.7221  1.3412 -0.1086
21779SOL    HW270185   6.869   7.405   3.500  0.4109  2.4490 -1.3274
21780SOL     OW70186   6.487   9.547   5.186  0.0699 -0.1967  0.0116
21780SOL    HW170187   6.456   9.637   5.171 -2.2552 -0.9101  0.2453
21780SOL    HW270188   6.453   9.525   5.273 -0.8011 -1.8480 -0.7209
21781SOL     OW70189   6.125   7.727   4.276  0.0833  0.1405  0.5086
21781SOL    HW170190   6.177   7.654   4.307  1.4073  0.5395 -0.7273
21781SOL    HW270191   6.039   7.689   4.256  0.9409 -1.1894 -0.6865
21782SOL     OW70192   6.409   7.673   5.784  0.3190  0.0102 -0.1005
21782SOL    HW170193   6.341   7.606   5.783  1.5292 -1.2503  0.2990
21782SOL    HW270194   6.427   7.691   5.692 -0.5863  0.3907 -0.2061
21783SOL     OW70195   4.162   8.645   3.905 -0.1029  0.1807  0.1598
21783SOL    HW170196   4.183   8.708   3.974 -1.5250  0.9685 -0.1121
21783SOL    HW270197   4.109   8.694   3.843 -0.3405 -1.0069 -0.5910
21784SOL     OW70198   7.322   0.255   3.967 -0.3616 -0.3575  0.0483
21784SOL    HW170199   7.330   0.350   3.976 -0.7558 -0.2630 -0.5632
21784SOL    HW270200   7.263   0.243   3.892 -0.1223 -1.0848 -0.0253
21785SOL     OW70201   5.417   0.512   4.997  0.0693 -0.4483 -0.6444
21785SOL    HW170202   5.340   0.485   5.047  0.8816 -0.5269  0.5745
21785SOL    HW270203   5.490   0.504   5.058  0.7177  1.9621 -1.0457
21786SOL     OW70204   5.238   8.666   5.006 -0.0879 -0.0077  0.4972
21786SOL    HW170205   5.207   8.755   5.019  0.2789  0.1315  0.4372
21786SOL    HW270206   5.301   8.652   5.077 -1.9637 -1.0887  1.9966
21787SOL     OW70207   6.479   7.920   4.399 -0.2437  0.5656 -0.1769
21787SOL    HW170208   6.460   7.972   4.321 -0.2710 -2.2996 -2.1130
21787SOL    HW270209   6.393   7.889   4.429 -0.3721  2.6448  1.7629
21788SOL     OW70210   5.047   8.057   4.895 -0.8866  0.3056  0.4591
21788SOL    HW170211   5.020   7.969   4.871 -0.9137  0.8150 -1.5315
21788SOL    HW270212   5.140   8.049   4.916 -0.1942  0.2264 -2.4000
21789SOL     OW70213   7.749   8.577   4.913  0.2593 -0.5328 -0.0099
21789SOL    HW170214   7.660   8.567   4.947 -0.1933 -0.7783 -1.2459
21789SOL    HW270215   7.805   8.545   4.984 -0.5856  0.4495  1.1146
21790SOL     OW70216   6.730   8.077   3.818  0.5118  0.1231 -0.2086
21790SOL    HW170217   6.681   8.020   3.758 -0.5252  0.5668  0.2067
21790SOL    HW270218   6.715   8.165   3.784  0.3249  0.3341  0.4273
21791SOL     OW70219   8.006   8.566   4.511  0.5171  0.3888  0.3269
21791SOL    HW170220   8.029   8.649   4.470 -1.1710  0.9063  0.3786
21791SOL    HW270221   8.011   8.501   4.440 -1.5938  1.1399 -0.5400
21792SOL     OW70222   5.655   0.041   6.255  0.1772  0.0852 -0.0322
21792SOL    HW170223   5.577  -0.012   6.239 -0.0834  0.5152 -0.2031
21792SOL    HW270224   5.679   0.024   6.346  0.2296 -0.5024 -0.1580
21793SOL     OW70225   6.768   7.765   5.565 -0.3662 -0.7631  0.2370
21793SOL    HW170226   6.797   7.682   5.602 -2.6807 -1.3952  0.7018
21793SOL    HW270227   6.746   7.818   5.642 -0.3295 -0.2593 -0.1007
21794SOL     OW70228   6.918   9.553   6.329  0.0672  0.4051  0.0367
21794SOL    HW170229   6.851   9.609   6.290 -1.9365 -1.5837  0.4732
21794SOL    HW270230   6.999   9.579   6.286 -1.0269  2.6701 -0.7475
21795SOL     OW70231   5.553   9.330   4.695  0.4831  0.3116 -0.0147
21795SOL    HW170232   5.581   9.286   4.615 -0.3502 -0.3043  0.0263
21795SOL    HW270233   5.474   9.377   4.670  0.6239  0.7065  0.2743
21796SOL     OW70234   6.679   9.523   5.855  0.5749  0.0310  0.1693
21796SOL    HW170235   6.594   9.481   5.846  0.9190 -0.5097 -0.5825
21796SOL    HW270236   6.672   9.603   5.805 -0.1680  1.0306  1.8155
21797SOL     OW70237   5.696   8.904   5.517 -0.1426  0.5659 -0.3237
21797SOL    HW170238   5.786   8.870   5.511 -0.0194  0.9293 -0.5576
21797SOL    HW270239   5.705   8.983   5.570 -0.1286  1.3080 -1.4226
21798SOL     OW70240   7.994   7.951   4.264  0.2692  0.0008  0.5257
21798SOL    HW170241   8.003   8.044   4.242  0.3786 -0.3328 -0.8680
21798SOL    HW270242   7.916   7.948   4.320  2.8519  1.5184  4.3844
21799SOL     OW70243   8.084   0.041   5.906 -0.0392 -0.2549  0.2359
21799SOL    HW170244   8.171   0.029   5.869 -0.9120  0.9237 -2.2781
21799SOL    HW270245   8.087   0.127   5.949  0.7382 -1.2843  2.3165
21800SOL     OW70246   8.700   7.685   6.135 -0.2542  0.2244 -0.2815
21800SOL    HW170247   8.610   7.654   6.126 -0.4995  1.0620 -0.7519
21800SOL    HW270248   8.713   7.744   6.061  1.0107 -0.6521 -0.7744
21801SOL     OW70249   6.195   8.890   3.827  0.1060  0.0470  0.3705
21801SOL    HW170250   6.201   8.799   3.858  0.8831 -0.4094 -1.0663
21801SOL    HW270251   6.182   8.941   3.906  0.2865 -1.2651  1.2683
21802SOL     OW70252   5.268   8.987   5.490  0.3245  0.5387 -0.0706
21802SOL    HW170253   5.188   9.016   5.445  0.8072  1.3310 -0.4238
21802SOL    HW270254   5.312   9.068   5.516  1.2089  0.1077 -0.2129
21803SOL     OW70255   7.558   8.113   4.580 -0.1230  0.3910 -0.2456
21803SOL    HW170256   7.533   8.123   4.488  0.8201  0.2748 -0.5231
21803SOL    HW270257   7.544   8.199   4.619 -3.2364 -0.2479  0.2002
21804SOL     OW70258   7.897   0.963   4.548  0.6508  0.3160 -0.1446
21804SOL    HW170259   7.891   1.015   4.628  1.1907 -0.8230  0.6510
21804SOL    HW270260   7.820   0.906   4.550 -0.8708  2.2127 -1.8637
21805SOL     OW70261   5.594   0.525   5.823  0.1617 -0.1552  0.1527
21805SOL    HW170262   5.561   0.605   5.865 -1.1034 -0.7402  0.2909
21805SOL    HW270263   5.580   0.539   5.730  0.6982  0.1228  0.1134
21806SOL     OW70264   6.819   8.586   2.149 -0.6878  0.2529 -0.1062
21806SOL    HW170265   6.761   8.543   2.211 -1.3399  2.9517  1.2302
21806SOL    HW270266   6.849   8.665   2.194  3.7966 -0.8384 -0.8473
21807SOL     OW70267   8.410   9.921   6.143 -0.2102  0.5890 -0.3056
21807SOL    HW170268   8.454   9.961   6.067  1.5044 -0.9517 -0.1542
21807SOL    HW270269   8.468   9.850   6.169 -1.5087  0.2049  1.5865
21808SOL     OW70270   6.567   8.304   1.526 -0.0686 -0.0230  0.8005
21808SOL    HW170271   6.533   8.231   1.475 -0.4474 -1.2817  2.7980
21808SOL    HW270272   6.493   8.363   1.537  0.2251  0.6684 -0.7685
21809SOL     OW70273   6.885   8.315   4.508 -0.4529  0.1276  0.4082
21809SOL    HW170274   6.820   8.320   4.578 -1.3924 -1.7892 -0.2901
21809SOL    HW270275   6.940   8.240   4.532  0.1370  0.3671 -0.1721
21810SOL     OW70276   7.006   6.809   5.087 -0.9058  0.5859  0.4808
21810SOL    HW170277   7.033   6.896   5.058  0.7413 -0.5091 -1.3911
21810SOL    HW270278   7.039   6.802   5.177  0.2636  1.3360  0.1145
21811SOL     OW70279   6.408   9.278   3.747 -0.3032 -0.1025  0.5064
21811SOL    HW170280   6.343   9.320   3.692 -1.3592 -0.4444  1.4828
21811SOL    HW270281   6.453   9.351   3.791 -0.2456  0.1163  0.0869
21812SOL     OW70282   7.755   8.295   4.226 -0.0008  0.2726 -0.3437
21812SOL    HW170283   7.827   8.258   4.174  0.4321 -0.6760  0.9162
21812SOL    HW270284   7.746   8.385   4.193  3.3758  1.2120  1.0569
21813SOL     OW70285   7.199   9.874   3.808  0.0408  0.0091 -0.0220
21813SOL    HW170286   7.225   9.957   3.848  1.1897 -0.2170 -0.2846
21813SOL    HW270287   7.263   9.859   3.739 -0.2551 -1.0169 -0.0830
21814SOL     OW70288   5.834   9.136   3.841 -0.2023  0.6394  0.1596
21814SOL    HW170289   5.809   9.137   3.934 -0.4130  0.3563  0.1055
21814SOL    HW270290   5.917   9.183   3.839  0.1958 -0.0355  0.6072
21815SOL     OW70291   5.963   7.107   2.733  0.1589 -0.0192 -0.1003
21815SOL    HW170292   6.017   7.178   2.766  0.7409 -0.9159  0.8908
21815SOL    HW270293   6.025   7.043   2.698 -0.2930 -0.7119  0.3543
21816SOL     OW70294   7.317   8.713   2.977  0.1770  0.6440 -0.1287
21816SOL    HW170295   7.269   8.752   2.905  0.0182  1.2096  0.2828
21816SOL    HW270296   7.409   8.732   2.959  0.0713  1.5611  0.2806
21817SOL     OW70297   4.359   9.735   3.770  0.0806  0.3995  0.6129
21817SOL    HW170298   4.420   9.789   3.719  1.3022  0.6225  2.2510
21817SOL    HW270299   4.325   9.793   3.838  0.1760 -0.4418  1.4045
21818SOL     OW70300   7.981   8.460   5.046 -0.1682  0.5126 -0.6220
21818SOL    HW170301   8.021   8.506   4.972 -1.8841 -0.8222 -2.4007
21818SOL    HW270302   8.028   8.377   5.051 -1.2950 -0.1775 -1.3974
21819SOL     OW70303   4.299   9.638   4.130 -0.1096  0.3859  0.0170
21819SOL    HW170304   4.365   9.707   4.134  0.6305 -0.3444  0.5896
21819SOL    HW270305   4.293   9.605   4.220 -0.3808 -0.3612 -0.2691
21820SOL     OW70306   5.742   7.853   3.928 -0.0748  0.2942 -0.1457
21820SOL    HW170307   5.773   7.771   3.890  0.3661  0.6787 -0.6302
21820SOL    HW270308   5.765   7.919   3.863 -2.4441  0.5342 -0.7812
21821SOL     OW70309   4.504   9.635   3.436 -0.4717  0.1296  0.1622
21821SOL    HW170310   4.424   9.687   3.442  0.3860  1.4313  0.5292
21821SOL    HW270311   4.473   9.545   3.425 -1.9824  1.0239 -3.5799
21822SOL     OW70312   6.184   8.387   4.910  0.2693  0.4795  0.1435
21822SOL    HW170313   6.247   8.458   4.895  0.4102  0.3416  0.0836
21822SOL    HW270314   6.218   8.314   4.857 -1.1406  1.1014 -1.6570
21823SOL     OW70315   6.627   6.976   6.048  0.1682 -0.0587 -0.3630
21823SOL    HW170316   6.585   7.060   6.029 -1.3266 -0.7367 -0.1108
21823SOL    HW270317   6.662   6.947   5.965  1.1727  1.0675 -0.3514
21824SOL     OW70318   4.985   8.315   3.996  0.1137 -0.0232 -0.1402
21824SOL    HW170319   5.015   8.330   3.907  0.2338 -1.2803 -0.3105
21824SOL    HW270320   4.890   8.328   3.992  0.1194 -0.0876 -0.4399
21825SOL     OW70321   7.793   9.120   3.868 -0.1815  0.4200 -0.3518
21825SOL    HW170322   7.883   9.121   3.902  0.0482 -1.5144 -0.8646
21825SOL    HW270323   7.740   9.088   3.941 -0.4279  1.2286 -0.1639
21826SOL     OW70324   6.741   7.716   3.272  0.0470  0.2031  0.3573
21826SOL    HW170325   6.683   7.646   3.304 -0.3019  0.2089 -0.2612
21826SOL    HW270326   6.829   7.687   3.297 -0.2852  0.5500  1.9542
21827SOL     OW70327   7.109   9.130   3.550  0.2277 -0.0578 -0.2067
21827SOL    HW170328   7.144   9.157   3.635 -0.3199 -1.4024  0.4491
21827SOL    HW270329   7.162   9.179   3.487  0.6161  0.9780  0.9020
21828SOL     OW70330   7.711   8.507   4.563  0.3879 -0.2400 -0.6404
21828SOL    HW170331   7.740   8.576   4.504 -2.2867 -0.7597 -2.6161
21828SOL    HW270332   7.750   8.427   4.528 -0.5170 -0.4302 -1.2093
21829SOL     OW70333   6.818   8.255   5.237  0.2507 -0.0945  0.4329
21829SOL    HW170334   6.729   8.290   5.242  0.7687  1.5186 -1.2159
21829SOL    HW270335   6.829   8.231   5.145  1.3593 -0.7553  0.7236
21830SOL     OW70336   5.106   8.021   4.403 -0.2931  0.3453 -0.3284
21830SOL    HW170337   5.093   8.110   4.371 -0.0900  1.3091  2.1530
21830SOL    HW270338   5.021   7.996   4.440 -0.4545 -0.6447 -1.3329
21831SOL     OW70339   8.188   8.526   6.339 -0.1361  0.7237  0.4107
21831SOL    HW170340   8.180   8.606   6.288 -0.2641  0.0757 -0.6032
21831SOL    HW270341   8.098   8.501   6.359 -0.1773  0.0848 -0.4921
21832SOL     OW70342   8.210   8.417   5.887 -0.2686 -0.2109 -0.5474
21832SOL    HW170343   8.263   8.386   5.961 -0.4229  0.1141 -0.2971
21832SOL    HW270344   8.259   8.391   5.810 -0.0225 -0.4102 -0.3255
21833SOL     OW70345   7.763   8.167   2.732  0.0259  0.0583  0.4065
21833SOL    HW170346   7.727   8.246   2.772  0.3980 -1.3191  3.6745
21833SOL    HW270347   7.848   8.194   2.699 -0.1572  1.2145  0.8475
21834SOL     OW70348   6.541   6.951   2.727  0.1570 -0.0693 -0.2496
21834SOL    HW170349   6.460   6.953   2.676  0.5049  2.0706 -0.7690
21834SOL    HW270350   6.527   6.881   2.792 -2.3705  0.7162  0.1089
21835SOL     OW70351   8.817   7.941   4.807  0.4902  0.6225  0.2209
21835SOL    HW170352   8.900   7.935   4.856  0.6713  2.0627  0.1099
21835SOL    HW270353   8.844   7.958   4.717  0.1860 -2.8069 -0.5801
21836SOL     OW70354   6.926   8.226   4.917  0.9544  0.7159 -0.3663
21836SOL    HW170355   6.865   8.273   4.860  2.0222  2.4501 -0.1156
21836SOL    HW270356   7.003   8.283   4.921  3.3414 -2.2677 -2.1681
21837SOL     OW70357   8.485   0.784   4.067  0.6203 -0.4076 -0.6250
21837SOL    HW170358   8.496   0.751   3.978  2.1508  1.7191 -1.2810
21837SOL    HW270359   8.530   0.720   4.122 -0.3632 -1.7507 -1.3530
21838SOL     OW70360   6.358   8.191   4.804 -0.3937  0.3076 -0.1237
21838SOL    HW170361   6.419   8.258   4.773 -0.2397  0.1932 -0.0677
21838SOL    HW270362   6.412   8.131   4.855 -0.7010  0.6590  0.6136
21839SOL     OW70363   5.184   9.771   2.255  0.3082  0.3982 -0.2535
21839SOL    HW170364   5.258   9.820   2.217  1.1616 -0.4958  0.2216
21839SOL    HW270365   5.110   9.794   2.199  0.9637  1.2396 -0.8090
21840SOL     OW70366   6.664   9.255   4.462  0.1991 -0.0753  0.0507
21840SOL    HW170367   6.622   9.321   4.408 -0.7766 -1.5543 -1.0500
21840SOL    HW270368   6.666   9.176   4.407  1.0069 -1.0567  1.4437
21841SOL     OW70369   6.315   7.922   6.030 -0.7231 -0.2842 -0.5092
21841SOL    HW170370   6.272   8.006   6.016 -0.2060  0.3961  1.7777
21841SOL    HW270371   6.405   7.935   5.999 -0.4295  0.2593  0.5517
21842SOL     OW70372   4.697   7.855   3.872  0.0333 -0.3888  0.2985
21842SOL    HW170373   4.653   7.935   3.901  1.9725  0.2453  1.5531
21842SOL    HW270374   4.790   7.874   3.881  0.5235 -2.8872  0.8459
21843SOL     OW70375   6.749   8.319   4.251  0.1963 -0.5679 -0.2807
21843SOL    HW170376   6.707   8.233   4.256  0.9843 -1.0407 -1.5273
21843SOL    HW270377   6.784   8.334   4.339  0.6771 -1.8518 -0.2442
21844SOL     OW70378   6.671   8.723   4.997 -0.5006  0.1382 -0.6542
21844SOL    HW170379   6.584   8.763   4.994 -0.4347  0.2546 -1.0204
21844SOL    HW270380   6.673   8.664   4.923 -0.0173  0.6501 -1.0533
21845SOL     OW70381   6.522   8.659   4.720  0.0316 -0.1944 -0.1752
21845SOL    HW170382   6.549   8.707   4.641 -1.3923  0.4434 -0.2953
21845SOL    HW270383   6.545   8.568   4.702  1.1756  0.1751 -0.6633
21846SOL     OW70384   6.430   8.467   5.272 -0.5325  0.1307  0.0141
21846SOL    HW170385   6.428   8.513   5.188  0.6373  0.0122 -0.0966
21846SOL    HW270386   6.367   8.513   5.327 -0.9694  0.4924 -0.7878
21847SOL     OW70387   7.295   0.414   4.846  0.7239  0.3687 -0.3894
21847SOL    HW170388   7.327   0.348   4.785  0.1224  0.2234 -0.5515
21847SOL    HW270389   7.222   0.455   4.800  1.1387  1.2001 -0.3194
21848SOL     OW70390   5.341   9.174   4.436  0.2757  0.2623  0.2467
21848SOL    HW170391   5.324   9.102   4.375  0.5695  0.6095 -0.2522
21848SOL    HW270392   5.423   9.213   4.405  1.1033 -0.3573  1.6403
21849SOL     OW70393   8.255   7.565   4.448  0.3428  0.3865  0.3259
21849SOL    HW170394   8.327   7.534   4.503  1.8803  3.0816 -0.1046
21849SOL    HW270395   8.266   7.518   4.366  1.3242  0.4040  0.4376
21850SOL     OW70396   7.568   8.853   4.652  0.2800  0.1093 -0.5163
21850SOL    HW170397   7.490   8.894   4.689  0.1197 -1.4820  0.9959
21850SOL    HW270398   7.537   8.771   4.615  0.8727  0.5307 -1.9743
21851SOL     OW70399   5.512   8.837   2.348  0.5495 -0.6009 -0.3889
21851SOL    HW170400   5.520   8.841   2.444 -1.8518  0.3174 -0.2174
21851SOL    HW270401   5.603   8.844   2.317  1.2897 -0.1011  1.7862
21852SOL     OW70402   8.051   8.650   2.357  0.0606  1.1459 -0.3196
21852SOL    HW170403   8.085   8.686   2.276  0.6810 -0.4924 -0.8028
21852SOL    HW270404   7.969   8.698   2.372  0.6271  2.4081 -1.1669
21853SOL     OW70405   6.914   8.213   3.200 -0.3738 -0.3752  0.0539
21853SOL    HW170406   6.919   8.309   3.194  1.0680 -0.4128  0.3262
21853SOL    HW270407   6.900   8.185   3.110 -2.0470  0.1390  0.1321
21854SOL     OW70408   6.677   8.698   3.057 -0.1746 -0.0569  0.0738
21854SOL    HW170409   6.636   8.673   3.139  0.0323 -0.3193  0.0983
21854SOL    HW270410   6.768   8.671   3.066  0.6245  2.6880  0.9753
21855SOL     OW70411   7.082   9.157   2.360  0.3750  0.8312 -0.4480
21855SOL    HW170412   7.053   9.248   2.367  0.1244  0.6973  0.3172
21855SOL    HW270413   7.088   9.141   2.266 -1.4563  1.0538 -0.6326
21856SOL     OW70414   4.220   7.932   6.261 -0.4246 -0.2924  0.2951
21856SOL    HW170415   4.151   7.886   6.309 -2.0777  1.8512  0.0624
21856SOL    HW270416   4.279   7.863   6.232 -2.4893 -2.2076  0.4862
21857SOL     OW70417   7.584   8.391   5.642  0.3688 -0.0134  0.0338
21857SOL    HW170418   7.655   8.395   5.578  0.6983  2.3021  0.4817
21857SOL    HW270419   7.601   8.465   5.701 -0.8537 -1.1031  1.8141
21858SOL     OW70420   7.024   8.189   4.266 -0.0552  0.1196  0.1593
21858SOL    HW170421   6.992   8.278   4.252 -0.0483  0.0281 -0.4448
21858SOL    HW270422   7.108   8.201   4.311 -0.2921  0.4013  0.5291
21859SOL     OW70423   6.146   9.361   6.848  0.8488  0.2169  1.2618
21859SOL    HW170424   6.118   9.331   6.934  0.4445 -0.1742  0.9957
21859SOL    HW270425   6.079   9.423   6.821  0.6912 -0.0614  1.0042
21860SOL     OW70426   6.467   0.572   6.100  0.5891 -0.7662 -0.3095
21860SOL    HW170427   6.469   0.652   6.153  1.3730 -0.3099 -1.0198
21860SOL    HW270428   6.376   0.565   6.071  0.1159 -1.0926  1.1938
21861SOL     OW70429   6.418   0.071   7.113 -0.2083  0.0961 -0.1034
21861SOL    HW170430   6.400   0.010   7.184 -0.1073  0.0807 -0.0903
21861SOL    HW270431   6.389   0.026   7.034  0.8012 -0.3874 -0.2107
21862SOL     OW70432   7.137   5.987   6.617  0.5795  0.2366 -0.3621
21862SOL    HW170433   7.111   5.953   6.703  0.0645  0.5960 -0.3736
21862SOL    HW270434   7.086   6.067   6.606  2.1800  1.3160 -0.1080
21863SOL     OW70435   7.190   9.496   9.185  0.2844  0.5478  0.5587
21863SOL    HW170436   7.099   9.516   9.206  0.6648  0.0491  2.8111
21863SOL    HW270437   7.238   9.578   9.199 -0.1341  1.4178 -2.8228
21864SOL     OW70438   6.246   8.676   4.864 -0.0358  0.2566  0.2961
21864SOL    HW170439   6.242   8.690   4.770  0.9413 -1.0276  0.0507
21864SOL    HW270440   6.187   8.742   4.901  1.2461  2.1964 -1.0589
21865SOL     OW70441   4.559   9.556   7.100  0.4646  0.0902  0.2404
21865SOL    HW170442   4.570   9.648   7.123 -0.7778 -0.1233  1.8095
21865SOL    HW270443   4.629   9.511   7.149  0.1133  0.0387  0.6989
21866SOL     OW70444   6.882   0.377   7.704  0.1037  0.3297  0.5243
21866SOL    HW170445   6.949   0.385   7.637 -0.9095  1.3691 -0.3801
21866SOL    HW270446   6.907   0.299   7.753  0.2154 -1.1749 -1.8171
21867SOL     OW70447   7.437   8.129   7.190  0.2285  0.3684 -0.0594
21867SOL    HW170448   7.513   8.175   7.155  0.0067  0.6785 -0.1343
21867SOL    HW270449   7.460   8.036   7.185 -0.0646  0.3752 -1.6498
21868SOL     OW70450   6.061   8.925   6.114  0.1269  0.5519 -0.2604
21868SOL    HW170451   6.046   8.833   6.134  1.0811  0.8791  2.1373
21868SOL    HW270452   6.004   8.943   6.039  1.5744 -2.5335 -2.2189
21869SOL     OW70453   9.129   0.111   7.969 -0.0369  0.5091  0.1047
21869SOL    HW170454   9.098   0.192   7.930 -0.4843  1.0194  1.4914
21869SOL    HW270455   9.090   0.109   8.056  1.0330 -0.5499  0.5886
21870SOL     OW70456   5.102   0.112   5.660  0.2929  0.0059  0.4405
21870SOL    HW170457   5.073   0.202   5.647 -1.9221 -0.6873  0.3713
21870SOL    HW270458   5.034   0.072   5.715  0.7414 -1.8895 -0.3293
21871SOL     OW70459   8.386   9.893   6.501  0.0131  0.3157  0.1327
21871SOL    HW170460   8.471   9.898   6.456  0.0867  0.7943  0.3151
21871SOL    HW270461   8.360   9.985   6.512  0.3227  0.2278  1.6846
21872SOL     OW70462   5.688   8.401   6.699  0.3131 -0.6494  0.2792
21872SOL    HW170463   5.597   8.371   6.693 -0.3727  1.3204  0.6958
21872SOL    HW270464   5.717   8.373   6.786 -0.3040 -0.1499  0.6453
21873SOL     OW70465   6.745   9.062   5.296  0.4690 -0.3374  0.0440
21873SOL    HW170466   6.673   9.065   5.233  1.4975  0.2247 -1.1191
21873SOL    HW270467   6.720   8.993   5.357 -0.2630 -1.2877 -1.3043
21874SOL     OW70468   7.229   9.728   7.184  0.2082  0.1130  0.4862
21874SOL    HW170469   7.262   9.640   7.202 -0.7998 -0.0005  1.9088
21874SOL    HW270470   7.157   9.740   7.246  0.8541  2.2488  0.8933
21875SOL     OW70471   3.686   0.323   3.044  0.4841  0.0278  0.5249
21875SOL    HW170472   3.612   0.270   3.016  1.3609 -1.2506  0.6243
21875SOL    HW270473   3.671   0.409   3.004 -0.6050 -0.4777 -0.1435
21876SOL     OW70474   8.524   8.318   7.677  0.4616  0.2094 -0.1956
21876SOL    HW170475   8.526   8.344   7.769  0.9408  0.6863 -0.3404
21876SOL    HW270476   8.518   8.223   7.679 -1.6726  0.3400  0.3360
21877SOL     OW70477   5.751   7.179   7.162 -0.3822  0.1890  0.0069
21877SOL    HW170478   5.673   7.131   7.190 -0.0456  0.5111  1.5290
21877SOL    HW270479   5.728   7.214   7.076 -1.5529 -0.5474  0.0105
21878SOL     OW70480   8.333   0.326   6.495 -0.0564 -0.0494  0.3900
21878SOL    HW170481   8.338   0.353   6.403 -2.3387 -0.6739  0.0589
21878SOL    HW270482   8.240   0.320   6.513  0.3795 -0.4309  2.6254
21879SOL     OW70483   5.656   1.317   5.196  0.4995 -0.4725  0.0660
21879SOL    HW170484   5.576   1.326   5.145  0.4744 -1.2910 -0.0309
21879SOL    HW270485   5.726   1.309   5.131  0.5367 -0.8920  0.1616
21880SOL     OW70486   8.814   0.087   6.601 -0.1470  0.1779 -0.3423
21880SOL    HW170487   8.870   0.148   6.553  1.0757 -0.1104  0.7114
21880SOL    HW270488   8.800   0.128   6.686 -4.5007  1.9628 -1.7579
21881SOL     OW70489   7.955   8.607   5.709  0.1231 -0.3882  0.2531
21881SOL    HW170490   8.002   8.649   5.637 -0.6837  1.2483  0.6331
21881SOL    HW270491   7.961   8.670   5.781 -3.3432  0.2917  0.0510
21882SOL     OW70492   4.662   8.787   7.775 -0.2199  0.4318 -0.1093
21882SOL    HW170493   4.585   8.804   7.721 -1.1601  0.6133  1.2826
21882SOL    HW270494   4.653   8.845   7.850  0.6229 -0.4671  0.7108
21883SOL     OW70495   7.797   9.180   7.038  0.6777 -0.7135  0.9566
21883SOL    HW170496   7.878   9.157   7.082  0.5649 -1.4394  0.7883
21883SOL    HW270497   7.811   9.154   6.947  0.5010 -0.2396  0.7912
21884SOL     OW70498   7.694   8.180   7.062  0.1505  0.4684  0.3841
21884SOL    HW170499   7.753   8.107   7.044  0.5399  1.0696 -0.8241
21884SOL    HW270500   7.722   8.249   7.002 -1.2449  1.0442  0.3774
21885SOL     OW70501   8.101   9.732   5.580 -0.1186 -0.0942 -0.2468
21885SOL    HW170502   8.184   9.689   5.562  0.5842  1.0898  0.0938
21885SOL    HW270503   8.106   9.758   5.673 -0.8274  0.0554 -0.2431
21886SOL     OW70504   6.445   9.203   7.333 -0.6315 -0.6784  0.0506
21886SOL    HW170505   6.387   9.265   7.377  1.9321  0.1627  2.4244
21886SOL    HW270506   6.511   9.257   7.290 -0.4130 -1.6412 -0.8430
21887SOL     OW70507   6.019   7.386   8.224  0.7867 -0.0741  0.7115
21887SOL    HW170508   5.943   7.376   8.280  0.0876  0.1702 -0.1894
21887SOL    HW270509   6.086   7.330   8.265  0.3678  0.2939  1.9106
21888SOL     OW70510   7.935   8.809   5.883  0.2749  0.2040  0.3959
21888SOL    HW170511   7.968   8.822   5.972  1.8299  0.6776 -0.2145
21888SOL    HW270512   7.849   8.850   5.882  0.4581  0.6189  1.5551
21889SOL     OW70513   3.612   9.329   7.308  0.6417 -0.0403 -0.0142
21889SOL    HW170514   3.549   9.385   7.354  1.4855  1.4999 -0.7045
21889SOL    HW270515   3.567   9.244   7.299 -1.3685  1.0471 -0.5361
21890SOL     OW70516   6.842   9.873   6.089 -0.3418  0.1072  0.4030
21890SOL    HW170517   6.797   9.807   6.141 -0.7302  0.6438  0.7536
21890SOL    HW270518   6.896   9.921   6.152  0.3938 -0.2522  0.0548
21891SOL     OW70519   6.485   8.213   7.141 -0.0458  0.0782  0.4112
21891SOL    HW170520   6.430   8.167   7.205 -0.9715  0.6080  0.0040
21891SOL    HW270521   6.575   8.191   7.166 -0.4113  0.0714  1.7284
21892SOL     OW70522   7.302   8.429   6.863  0.2428 -0.5802  0.5079
21892SOL    HW170523   7.352   8.393   6.790 -0.3519  0.2281 -0.3069
21892SOL    HW270524   7.326   8.522   6.865 -0.9139 -0.2676  0.3563
21893SOL     OW70525   7.270   8.143   5.713 -0.2578  0.6984 -0.2110
21893SOL    HW170526   7.190   8.195   5.721 -0.1936  1.1790 -2.4254
21893SOL    HW270527   7.248   8.073   5.651  0.7248  0.1957 -0.0138
21894SOL     OW70528   7.750   7.254   6.323 -0.1705  0.7675  0.2384
21894SOL    HW170529   7.745   7.169   6.367  1.4460 -0.0459 -1.1043
21894SOL    HW270530   7.665   7.295   6.340 -0.1011 -0.1177  2.8859
21895SOL     OW70531   6.588   9.119   5.536  0.4744  0.3573 -0.2559
21895SOL    HW170532   6.574   9.141   5.444  2.3432 -1.4682 -1.0299
21895SOL    HW270533   6.520   9.055   5.556  1.7648 -1.4081 -1.2589
21896SOL     OW70534   4.098   8.596   6.208 -0.1900 -0.3488 -0.3548
21896SOL    HW170535   4.055   8.675   6.240  0.5986  0.6463 -1.6561
21896SOL    HW270536   4.040   8.563   6.140 -0.2257 -0.5526 -0.2255
21897SOL     OW70537   6.280   8.325   6.421 -0.4501 -0.2136 -0.4260
21897SOL    HW170538   6.215   8.355   6.358 -1.0182  0.2110  0.3522
21897SOL    HW270539   6.341   8.398   6.429 -0.7893  0.0208  0.0613
21898SOL     OW70540   1.297   8.943   6.316 -0.5981 -0.0155 -0.3857
21898SOL    HW170541   1.260   8.987   6.393  1.1790  0.0676  0.4250
21898SOL    HW270542   1.280   8.850   6.331  2.4985 -0.3100  1.6483
21899SOL     OW70543   5.428   1.365   5.959 -0.1144 -0.0926 -0.0664
21899SOL    HW170544   5.337   1.338   5.945  1.1108 -3.9192 -1.1621
21899SOL    HW270545   5.451   1.328   6.044 -0.3454  3.2588  1.5527
21900SOL     OW70546   7.359   8.391   5.445 -0.3487  0.0289  0.5324
21900SOL    HW170547   7.375   8.304   5.408 -1.6953  0.6277 -1.5341
21900SOL    HW270548   7.381   8.381   5.538 -0.0160 -2.3791  0.2490
21901SOL     OW70549   8.319   9.843   6.758  0.2745 -0.2594  0.1679
21901SOL    HW170550   8.368   9.869   6.680  1.4103 -0.0205  0.9489
21901SOL    HW270551   8.308   9.748   6.749  0.0921 -0.1810 -0.4536
21902SOL     OW70552   4.919   9.274   6.607  0.0154  0.2548 -0.5889
21902SOL    HW170553   4.877   9.336   6.547  1.8359  0.4155 -1.7546
21902SOL    HW270554   4.868   9.193   6.598 -0.8569  0.8340 -0.9421
21903SOL     OW70555   8.205   8.698   5.913  0.0791  0.0881  0.5072
21903SOL    HW170556   8.174   8.610   5.893  0.3985 -0.4400  2.2142
21903SOL    HW270557   8.166   8.719   5.998  2.4164  0.3416  1.5787
21904SOL     OW70558   6.915   0.085   6.805  0.1248  0.1444  0.1960
21904SOL    HW170559   6.941   0.086   6.897  0.2117 -0.0843  0.1751
21904SOL    HW270560   6.997   0.095   6.757 -0.1368  2.4834  0.1716
21905SOL     OW70561   5.057   9.833   5.348 -0.1456  0.2006 -0.2840
21905SOL    HW170562   5.003   9.878   5.413  0.3152 -1.1636  1.0767
21905SOL    HW270563   5.146   9.837   5.383  0.2351  0.1934 -1.2444
21906SOL     OW70564   7.024   8.626   6.431  0.3858  0.3499 -0.7478
21906SOL    HW170565   6.952   8.570   6.402  0.5872 -0.1157 -0.3629
21906SOL    HW270566   7.019   8.704   6.376 -1.3092  0.9672  0.2504
21907SOL     OW70567   4.232   9.798   8.282 -0.5015 -0.0232 -0.2798
21907SOL    HW170568   4.267   9.856   8.214 -2.0798  0.6115 -0.5928
21907SOL    HW270569   4.249   9.710   8.249 -0.1254  0.2771 -0.9018
21908SOL     OW70570   7.126   8.950   4.432 -0.0154  0.0024  0.1224
21908SOL    HW170571   7.187   8.961   4.505  1.1671 -0.7898 -0.7380
21908SOL    HW270572   7.092   8.861   4.442 -0.2029  0.0563 -0.0327
21909SOL     OW70573   6.469   7.541   6.406  0.0893  0.1506  0.1778
21909SOL    HW170574   6.389   7.594   6.404 -0.4170 -0.5411  1.6363
21909SOL    HW270575   6.491   7.535   6.499 -0.6526 -3.3709  0.1730
21910SOL     OW70576   6.355   9.963   5.395 -0.0369  0.8268  0.4786
21910SOL    HW170577   6.354  10.049   5.352  0.0297  0.6434  0.1158
21910SOL    HW270578   6.444   9.954   5.428  0.2904  0.3657 -0.5416
21911SOL     OW70579   6.951   9.359   4.515  0.4799 -0.4715 -0.4698
21911SOL    HW170580   6.888   9.306   4.467  1.8245 -1.8450 -0.7598
21911SOL    HW270581   6.984   9.301   4.583 -0.1148  0.9087  1.0183
21912SOL     OW70582   8.671   8.183   6.458  0.6848 -0.2786  0.0119
21912SOL    HW170583   8.755   8.161   6.498  0.4070  0.3369  0.9679
21912SOL    HW270584   8.665   8.128   6.380  1.2261 -1.5285  0.8430
21913SOL     OW70585   6.140   8.744   5.246 -0.3345 -0.1139  0.0351
21913SOL    HW170586   6.135   8.832   5.285  2.2623  0.1392 -0.0774
21913SOL    HW270587   6.173   8.760   5.157 -1.1812 -1.0969 -0.4543
21914SOL     OW70588   8.121   9.451   6.350  0.4379  0.3629 -0.1270
21914SOL    HW170589   8.122   9.461   6.445  2.3541 -0.3420 -0.0554
21914SOL    HW270590   8.175   9.523   6.318 -1.6150  1.6563 -0.8286
21915SOL     OW70591   6.802   7.807   6.267 -0.1654  0.3180 -0.0122
21915SOL    HW170592   6.794   7.712   6.264  1.8358  0.1689 -1.0754
21915SOL    HW270593   6.712   7.839   6.255 -0.8137 -1.4064  0.0925
21916SOL     OW70594   6.291   8.847   6.920  0.5945 -0.1602 -0.0906
21916SOL    HW170595   6.202   8.855   6.886  0.4786  2.4270  0.7241
21916SOL    HW270596   6.347   8.873   6.847  0.7026 -1.6675 -0.5631
21917SOL     OW70597   7.639   7.935   5.443  0.1169 -0.5446 -0.2984
21917SOL    HW170598   7.630   7.961   5.534  1.1739 -3.8372  0.8192
21917SOL    HW270599   7.690   8.006   5.402  0.1675  0.6564  1.7914
21918SOL     OW70600   8.813   8.371   5.953  0.0381  0.3903 -0.1439
21918SOL    HW170601   8.811   8.421   5.871  1.0225 -0.2106 -0.5387
21918SOL    HW270602   8.904   8.342   5.962 -0.5594 -1.5453 -0.0602
21919SOL     OW70603   7.261   8.360   7.147  0.2566 -0.2322  0.2269
21919SOL    HW170604   7.275   8.339   7.055 -0.8526  0.6730 -0.1677
21919SOL    HW270605   7.243   8.454   7.147  0.1608 -0.2449  1.3590
21920SOL     OW70606   5.535   8.180   6.544  0.0296  0.0681 -0.0768
21920SOL    HW170607   5.456   8.134   6.519  1.0414 -0.6554 -2.0676
21920SOL    HW270608   5.530   8.187   6.640 -2.0322 -0.6400 -0.1129
21921SOL     OW70609   5.950   0.930   6.528 -0.4478 -0.7215 -0.1103
21921SOL    HW170610   5.913   0.842   6.532 -0.0876 -0.8449  0.6027
21921SOL    HW270611   5.880   0.987   6.559 -0.6836 -0.7488 -0.5799
21922SOL     OW70612   6.486   8.937   7.372  0.0419 -0.9482 -0.5545
21922SOL    HW170613   6.490   8.935   7.468 -0.8179 -2.7282 -0.5320
21922SOL    HW270614   6.480   9.030   7.350 -1.5973 -0.6004  1.2084
21923SOL     OW70615   5.106   9.074   5.954 -0.7826  0.3133  0.5126
21923SOL    HW170616   5.193   9.089   5.918 -1.0521  1.2646  0.2336
21923SOL    HW270617   5.048   9.072   5.877 -1.4088  2.6910  0.8712
21924SOL     OW70618   7.463   7.843   6.201  0.2708  0.1535 -0.2050
21924SOL    HW170619   7.410   7.808   6.129  0.4816 -2.5752  0.8917
21924SOL    HW270620   7.512   7.915   6.162 -0.0815 -0.8731 -2.6449
21925SOL     OW70621   7.332   7.224   5.189  0.2525  0.1096 -0.7363
21925SOL    HW170622   7.282   7.214   5.269 -0.0783  1.2261 -0.7912
21925SOL    HW270623   7.280   7.181   5.122  0.3527 -0.5048 -0.4174
21926SOL     OW70624   6.613   7.240   5.830 -0.5886  0.0037 -0.4808
21926SOL    HW170625   6.590   7.193   5.750 -0.0454  0.7277 -1.0675
21926SOL    HW270626   6.709   7.242   5.830 -0.5571 -0.8306  0.6823
21927SOL     OW70627   6.373   0.351   6.365  0.2829  0.1600 -0.3186
21927SOL    HW170628   6.454   0.398   6.341  1.7857 -1.1273  2.0603
21927SOL    HW270629   6.338   0.321   6.281  0.0024  4.2622 -1.8299
21928SOL     OW70630   6.534   8.244   6.872  0.1767  0.1684  0.2872
21928SOL    HW170631   6.628   8.234   6.890  0.4166  2.5965  0.5964
21928SOL    HW270632   6.495   8.263   6.958 -0.0510  2.5573 -0.2928
21929SOL     OW70633   7.777   9.950   5.864 -0.0020  0.3677 -0.0795
21929SOL    HW170634   7.683   9.945   5.848  0.1727 -2.6678 -0.5804
21929SOL    HW270635   7.790   9.904   5.947  1.1202 -0.1137 -0.5086
21930SOL     OW70636   6.380   7.985   5.410  0.1642 -0.1461 -0.1001
21930SOL    HW170637   6.337   7.968   5.326 -0.6965  0.0584  0.2959
21930SOL    HW270638   6.395   8.079   5.410 -0.6925 -0.0143  0.3877
21931SOL     OW70639   6.100   8.886   6.697  0.9301 -0.5654  0.2695
21931SOL    HW170640   6.061   8.798   6.696  0.8359 -0.5351 -1.4259
21931SOL    HW270641   6.034   8.941   6.738  0.6241 -1.1438  0.5646
21932SOL     OW70642   6.044   8.412   7.347 -0.3408  0.8021  0.0379
21932SOL    HW170643   5.954   8.417   7.381 -0.3913  0.9316 -0.1166
21932SOL    HW270644   6.060   8.318   7.338 -0.5797  0.7911 -0.2580
21933SOL     OW70645   7.829   7.726   7.354 -0.1355  0.7517  0.1789
21933SOL    HW170646   7.802   7.776   7.277 -0.6382  0.4137  0.1378
21933SOL    HW270647   7.752   7.674   7.378  1.3277 -2.4127 -1.6633
21934SOL     OW70648   6.368   9.304   9.102 -0.6746  0.0470 -0.4955
21934SOL    HW170649   6.281   9.344   9.094 -1.0370 -0.4943  0.6044
21934SOL    HW270650   6.380   9.254   9.022 -0.1326  2.5027 -2.0048
21935SOL     OW70651   8.085   7.593   5.727 -0.6436 -0.7262 -0.0000
21935SOL    HW170652   8.136   7.553   5.798 -1.3437 -4.0497 -1.2576
21935SOL    HW270653   8.144   7.656   5.687  1.2397 -1.8987  0.8686
21936SOL     OW70654   8.411   9.649   5.695  0.4576 -0.0655 -0.3100
21936SOL    HW170655   8.482   9.652   5.631  0.2089  1.5254 -0.5128
21936SOL    HW270656   8.425   9.725   5.751 -0.9967  0.1598 -0.2413
21937SOL     OW70657   6.861   7.473   5.643 -0.0737 -0.1655  0.0247
21937SOL    HW170658   6.906   7.491   5.560 -0.8785 -2.2222 -0.9013
21937SOL    HW270659   6.885   7.384   5.665 -1.7234 -0.4480  0.7966
21938SOL     OW70660   7.936   8.033   6.996 -0.1282 -0.6268  0.4080
21938SOL    HW170661   7.981   8.103   7.044  0.4155 -0.8158  0.1760
21938SOL    HW270662   7.982   8.027   6.913  1.0570 -2.5403  1.1610
21939SOL     OW70663   7.521   8.941   5.637 -0.4303  0.2930 -0.0917
21939SOL    HW170664   7.515   9.031   5.605  1.3175  1.6617  3.2616
21939SOL    HW270665   7.614   8.919   5.630 -0.5289 -0.5141  0.9749
21940SOL     OW70666   5.431   8.440   6.999  0.1816 -0.0288  0.0741
21940SOL    HW170667   5.337   8.456   6.992  0.5707  1.3707 -2.7761
21940SOL    HW270668   5.451   8.380   6.928  1.7023  1.0412 -0.4372
21941SOL     OW70669   8.292   9.104   7.712 -0.2455 -0.5658 -0.2163
21941SOL    HW170670   8.202   9.124   7.737 -0.2262 -1.4507  0.5598
21941SOL    HW270671   8.284   9.027   7.655 -0.0024 -0.4930 -0.3461
21942SOL     OW70672   7.333   0.544   5.223 -0.2290  0.2271 -0.2307
21942SOL    HW170673   7.283   0.475   5.268 -1.7225  0.9365 -0.7469
21942SOL    HW270674   7.283   0.624   5.240  3.3584  1.8722  3.3437
21943SOL     OW70675   8.786   0.582   5.593  0.1991  0.1960 -0.2798
21943SOL    HW170676   8.870   0.536   5.592  0.3485  0.4695 -0.4791
21943SOL    HW270677   8.754   0.571   5.682  0.1849 -0.3783 -0.3542
21944SOL     OW70678   7.619   0.608   6.158  0.1404 -0.4451  0.7339
21944SOL    HW170679   7.580   0.573   6.238  1.2614 -1.7854  0.7182
21944SOL    HW270680   7.665   0.687   6.186  0.0754 -0.6106  1.3145
21945SOL     OW70681   8.061   8.321   6.147 -0.3305 -0.2131  0.8084
21945SOL    HW170682   8.068   8.253   6.079 -2.0069 -0.2238  0.6280
21945SOL    HW270683   8.068   8.403   6.098 -1.7681 -0.2157  0.5606
21946SOL     OW70684   6.157   6.610   8.030 -0.4056 -0.0496 -0.5513
21946SOL    HW170685   6.175   6.523   8.064 -0.3090  0.6458  1.2278
21946SOL    HW270686   6.065   6.627   8.052 -0.3629  0.3780 -0.6898
21947SOL     OW70687   7.124   0.040   8.687 -0.0427  0.5798 -0.8068
21947SOL    HW170688   7.207   0.074   8.720  0.9906 -1.9941 -0.5892
21947SOL    HW270689   7.060   0.063   8.754  0.6417  1.9205 -0.6099
21948SOL     OW70690   6.405   8.983   5.349  0.5508 -0.2316 -1.0388
21948SOL    HW170691   6.325   9.019   5.388  0.5589 -1.0215 -0.2762
21948SOL    HW270692   6.378   8.954   5.262 -0.8143 -3.5164  0.3905
21949SOL     OW70693   5.052   9.889   7.992  0.1432  0.5186  0.2913
21949SOL    HW170694   5.135   9.881   7.945  1.5439  2.0813  2.4054
21949SOL    HW270695   5.021   9.977   7.971  0.4180  0.9567  1.7261
21950SOL     OW70696   7.195   9.027   7.649 -0.2447 -0.2068  0.2998
21950SOL    HW170697   7.114   9.079   7.648 -0.2077 -0.1487  0.3890
21950SOL    HW270698   7.252   9.071   7.587 -0.1680 -0.0697  0.4675
21951SOL     OW70699   4.917   8.550   8.622  0.6392 -0.7584  0.2357
21951SOL    HW170700   4.829   8.582   8.641 -0.3405 -2.5343 -1.1360
21951SOL    HW270701   4.961   8.551   8.706 -0.2878  1.3200  0.7352
21952SOL     OW70702   7.006   9.156   6.173 -0.3043 -0.6492 -0.3354
21952SOL    HW170703   6.999   9.081   6.114 -0.7688 -0.4784 -0.5021
21952SOL    HW270704   7.097   9.154   6.203  0.3156  0.0410 -2.1029
21953SOL     OW70705   7.452   8.072   5.066  0.3630 -0.1787  0.6855
21953SOL    HW170706   7.532   8.084   5.016  1.5250 -1.7161  2.1044
21953SOL    HW270707   7.406   8.155   5.059  1.1848  0.1067 -1.6979
21954SOL     OW70708   7.661   7.958   7.351 -0.2214  0.2141 -0.1716
21954SOL    HW170709   7.586   7.952   7.411  0.6132 -0.4360  0.8410
21954SOL    HW270710   7.724   8.014   7.397  0.0497  0.4664 -0.8518
21955SOL     OW70711   6.490   9.784   6.770 -0.2319  0.3172  0.7368
21955SOL    HW170712   6.479   9.876   6.794  1.2701  0.4181  1.0494
21955SOL    HW270713   6.535   9.745   6.845 -1.7302 -0.8955  1.0260
21956SOL     OW70714   6.590   9.785   7.051 -0.8112  0.3497 -0.2737
21956SOL    HW170715   6.598   9.808   7.144  1.5752 -0.5620 -0.2291
21956SOL    HW270716   6.637   9.854   7.005 -0.4975 -0.1496 -0.6983
21957SOL     OW70717   6.083   8.582   6.420 -0.0807 -0.2831 -0.5133
21957SOL    HW170718   6.047   8.516   6.480 -0.8416 -0.6138 -1.3218
21957SOL    HW270719   6.113   8.652   6.477 -0.8218 -0.5802  0.2608
21958SOL     OW70720   4.547   9.320   8.168  0.0555  0.0284 -0.5052
21958SOL    HW170721   4.612   9.261   8.206  1.1723  0.5393 -1.5866
21958SOL    HW270722   4.509   9.365   8.243  3.4808  2.3186 -0.0433
21959SOL     OW70723   6.641   8.404   6.027  0.3849  0.0562  0.5410
21959SOL    HW170724   6.547   8.384   6.026  0.7889 -1.9468 -1.3687
21959SOL    HW270725   6.678   8.342   6.089  0.7039 -0.5178 -0.2137
21960SOL     OW70726   6.512   8.346   7.443  0.5431 -0.1097  0.4538
21960SOL    HW170727   6.556   8.274   7.399 -0.5070 -0.2699 -0.3540
21960SOL    HW270728   6.499   8.314   7.533  0.5008 -0.7517  0.2246
21961SOL     OW70729   5.502   9.207   7.842  0.1465 -1.1545 -0.2887
21961SOL    HW170730   5.550   9.290   7.851 -1.1941 -0.4548  0.5544
21961SOL    HW270731   5.411   9.232   7.853 -0.3329 -2.6385 -0.8807
21962SOL     OW70732   6.754   8.844   7.028 -0.6427 -0.4553 -0.1275
21962SOL    HW170733   6.820   8.780   7.054 -0.8202 -0.3125  0.6695
21962SOL    HW270734   6.680   8.827   7.086 -1.4907 -0.9258 -1.3166
21963SOL     OW70735   6.499   9.341   4.983  0.1569  0.5536 -0.3101
21963SOL    HW170736   6.531   9.407   5.044 -0.5157  0.6004 -0.0049
21963SOL    HW270737   6.474   9.266   5.038  0.0192  0.4056 -0.5677
21964SOL     OW70738   7.197   7.693   5.629  0.5459 -0.2653 -0.3199
21964SOL    HW170739   7.158   7.771   5.668 -2.0918 -0.6274 -2.0814
21964SOL    HW270740   7.189   7.707   5.535  1.2517 -2.0666 -0.6746
21965SOL     OW70741   5.953   8.633   7.204 -0.1673  0.3533 -0.1347
21965SOL    HW170742   5.978   8.602   7.116  0.3764  0.5304 -0.0478
21965SOL    HW270743   6.001   8.575   7.264 -1.5411 -0.5939  0.0681
21966SOL     OW70744   4.645   8.374   7.529 -0.7157  0.0851 -0.0435
21966SOL    HW170745   4.651   8.432   7.606 -2.4063 -0.2175  0.3447
21966SOL    HW270746   4.680   8.427   7.457 -0.7343  1.0149  0.6124
21967SOL     OW70747   6.950   8.042   7.107  0.0344 -0.1216  0.5139
21967SOL    HW170748   7.038   8.006   7.124 -0.1280 -0.3527  0.8698
21967SOL    HW270749   6.953   8.130   7.143  0.1932 -0.0448  0.3169
21968SOL     OW70750   6.038   9.318   7.962  0.0029  0.2376 -0.5809
21968SOL    HW170751   6.133   9.330   7.973  0.0832 -0.3296 -0.6738
21968SOL    HW270752   6.018   9.239   8.012 -0.9232  2.0498  2.0464
21969SOL     OW70753   6.929   8.324   7.160 -0.3199 -0.6504 -0.4508
21969SOL    HW170754   6.979   8.357   7.235  0.7606 -1.3414 -0.8656
21969SOL    HW270755   6.942   8.390   7.092 -2.9333  0.9979  0.5831
21970SOL     OW70756   7.689   8.277   6.446 -0.4355 -0.6221  0.3019
21970SOL    HW170757   7.652   8.326   6.373 -0.9614 -2.2845 -0.5755
21970SOL    HW270758   7.723   8.197   6.407 -3.8737 -3.2318  2.2747
21971SOL     OW70759   8.081   8.577   6.920  0.0173 -0.5476 -0.5435
21971SOL    HW170760   8.175   8.586   6.907 -0.1018  0.3570 -0.8570
21971SOL    HW270761   8.052   8.665   6.944 -0.3024 -1.4143  2.4422
21972SOL     OW70762   7.989   8.937   7.957  0.0297 -0.6002 -0.3073
21972SOL    HW170763   8.007   8.872   7.889 -0.3869  2.5136 -3.5198
21972SOL    HW270764   7.894   8.947   7.956  0.0623 -0.1992  0.4257
21973SOL     OW70765   8.111   8.584   4.815 -0.6844  0.0473  0.0358
21973SOL    HW170766   8.125   8.662   4.870 -0.1107 -0.4366  0.5949
21973SOL    HW270767   8.199   8.562   4.784 -0.8696 -0.2907 -0.2416
21974SOL     OW70768   6.777   9.532   4.727 -0.0943  0.6205  0.1919
21974SOL    HW170769   6.842   9.469   4.758 -0.7496 -0.4990 -0.6935
21974SOL    HW270770   6.808   9.559   4.641  0.0049  1.2518  0.4238
21975SOL     OW70771   6.869   9.286   5.374 -0.2558  0.2372  0.6213
21975SOL    HW170772   6.870   9.261   5.466 -0.7404  1.2814  0.9250
21975SOL    HW270773   6.809   9.225   5.333 -1.4677  0.9165  1.3559
21976SOL     OW70774   5.248   8.281   6.668  0.2347  0.0719  0.1419
21976SOL    HW170775   5.305   8.246   6.736 -0.0612  1.0931  0.9213
21976SOL    HW270776   5.217   8.204   6.621 -0.8688 -0.7807  2.2022
21977SOL     OW70777   7.120   7.456   6.433 -0.5167  0.2513 -0.5906
21977SOL    HW170778   7.061   7.504   6.491 -1.6199  0.2603 -1.7012
21977SOL    HW270779   7.180   7.523   6.400 -0.5736  0.4362 -0.3250
21978SOL     OW70780   6.434   8.691   7.455 -0.6434  0.1107 -0.6381
21978SOL    HW170781   6.340   8.688   7.435 -0.6160  0.7303 -0.8565
21978SOL    HW270782   6.463   8.777   7.424  0.0600 -0.2007 -0.8562
21979SOL     OW70783   5.943   9.569   6.815  0.7096 -0.0246  0.1146
21979SOL    HW170784   5.896   9.564   6.898  1.6650  1.1332  0.7460
21979SOL    HW270785   5.903   9.644   6.770  1.8477  0.8983  0.6086
21980SOL     OW70786   6.925   0.215   6.499  0.4273  0.1331 -0.2826
21980SOL    HW170787   7.009   0.189   6.537  1.1969 -1.0071 -2.6849
21980SOL    HW270788   6.946   0.241   6.409 -1.7788 -0.2785 -0.9532
21981SOL     OW70789   5.005   9.110   6.270 -0.1997  0.5281  0.0402
21981SOL    HW170790   5.015   9.073   6.182  0.0205  1.9968 -0.5633
21981SOL    HW270791   4.940   9.180   6.261 -0.1999  0.6777  1.0495
21982SOL     OW70792   6.464   8.879   6.096  0.6004 -0.0757 -0.2777
21982SOL    HW170793   6.522   8.848   6.026  1.2328 -1.2033  0.7365
21982SOL    HW270794   6.517   8.875   6.175  0.2983  2.4627  0.0785
21983SOL     OW70795   6.377   9.160   7.033 -0.1958  0.4997 -0.2115
21983SOL    HW170796   6.329   9.097   7.088 -0.3892  0.6023 -0.2628
21983SOL    HW270797   6.469   9.140   7.049 -0.2538 -0.8962 -1.4738
21984SOL     OW70798   8.190   8.105   4.823  0.7380  0.6183  0.6444
21984SOL    HW170799   8.123   8.085   4.757 -0.3491  2.1841  1.2227
21984SOL    HW270800   8.272   8.103   4.775 -0.0925  2.3606 -0.9455
21985SOL     OW70801   7.516   9.092   6.040 -0.3534  0.2587 -0.3197
21985SOL    HW170802   7.562   9.174   6.025  1.7564 -0.7400  0.5674
21985SOL    HW270803   7.476   9.072   5.955  1.2721  0.9004 -1.2622
21986SOL     OW70804   7.126   8.868   6.336  0.0472  0.2073 -0.2988
21986SOL    HW170805   7.100   8.913   6.417 -0.7910  0.3662 -0.6574
21986SOL    HW270806   7.165   8.937   6.282 -0.4048  0.3197 -0.4797
21987SOL     OW70807   6.316   8.697   6.557  0.4558 -0.1467  0.2345
21987SOL    HW170808   6.360   8.685   6.473 -1.1593  1.1367 -0.8265
21987SOL    HW270809   6.373   8.653   6.621  2.3068 -0.1004 -1.3506
21988SOL     OW70810   5.221   9.523   5.299  0.2568 -0.0882  0.3494
21988SOL    HW170811   5.242   9.542   5.208  0.8207 -3.1033 -0.1910
21988SOL    HW270812   5.126   9.524   5.303  0.1866 -1.4244 -0.6367
21989SOL     OW70813   7.063   8.365   7.395 -0.2288  0.0739 -0.0227
21989SOL    HW170814   7.032   8.311   7.466 -0.4622  1.6647  1.1168
21989SOL    HW270815   7.074   8.452   7.434  0.8901  0.6707 -1.5976
21990SOL     OW70816   5.686   8.185   5.327  0.3798 -0.3459  0.1425
21990SOL    HW170817   5.714   8.102   5.288 -0.2167 -0.1363 -0.7478
21990SOL    HW270818   5.666   8.241   5.252  1.7153  0.9312  0.7279
21991SOL     OW70819   5.089   8.661   7.437 -0.2587  0.1483  0.2015
21991SOL    HW170820   5.007   8.629   7.475 -0.1578 -0.0110  0.2839
21991SOL    HW270821   5.062   8.735   7.383 -0.1133  2.0193  2.5917
21992SOL     OW70822   7.412   8.116   5.370 -0.4731 -0.1692  0.4767
21992SOL    HW170823   7.424   8.059   5.294 -0.6048  1.5983 -0.9141
21992SOL    HW270824   7.461   8.074   5.440  1.3211 -0.8294 -1.1138
21993SOL     OW70825   7.323   0.445   6.187 -0.2257 -0.2462 -0.0762
21993SOL    HW170826   7.391   0.406   6.242 -0.7226 -2.1406 -0.7721
21993SOL    HW270827   7.300   0.376   6.125 -0.4297  1.4971 -1.9890
21994SOL     OW70828   7.913   2.037   6.175 -0.0033 -0.0441 -0.8412
21994SOL    HW170829   7.937   2.040   6.082 -1.5911 -0.6339 -1.2773
21994SOL    HW270830   7.977   2.095   6.218  1.4180 -0.6177 -2.1398
21995SOL     OW70831   5.586   0.197   5.919 -0.3216  0.1822  0.3262
21995SOL    HW170832   5.542   0.276   5.888 -0.2010  0.7180  1.4758
21995SOL    HW270833   5.536   0.124   5.880 -2.0434  0.7786  1.3330
21996SOL     OW70834   7.111   7.456   5.000 -0.2230 -0.2906  0.1639
21996SOL    HW170835   7.060   7.527   4.961 -1.2321 -0.5819  0.9351
21996SOL    HW270836   7.201   7.474   4.973 -0.5201  1.0762  0.0386
21997SOL     OW70837   6.656   8.350   8.175 -0.0557 -0.1818 -0.1115
21997SOL    HW170838   6.571   8.387   8.200  0.1335  0.4737 -0.4102
21997SOL    HW270839   6.659   8.362   8.080  0.5170  0.1103 -0.0566
21998SOL     OW70840   5.345   8.581   6.668  0.5062 -0.2849  0.1353
21998SOL    HW170841   5.267   8.603   6.719  0.4605  0.2898 -0.1843
21998SOL    HW270842   5.348   8.485   6.670  0.2369 -0.2841  0.8129
21999SOL     OW70843   6.625   9.547   6.925  0.2796 -0.9801 -0.3381
21999SOL    HW170844   6.653   9.617   6.984 -0.6977 -1.8291  1.1569
21999SOL    HW270845   6.695   9.482   6.929  0.4435 -0.8165 -0.5037
22000SOL     OW70846   7.369   8.699   6.846  0.4288 -0.0044  0.2194
22000SOL    HW170847   7.388   8.743   6.764  2.3583 -0.6293  0.2919
22000SOL    HW270848   7.348   8.769   6.907 -0.0314  0.5384 -0.5576
22001SOL     OW70849   5.510   9.273   5.704 -0.6136  0.5186 -0.7847
22001SOL    HW170850   5.445   9.298   5.639 -0.7116 -0.9935 -1.2928
22001SOL    HW270851   5.459   9.242   5.779 -0.5381 -2.3408 -1.8385
22002SOL     OW70852   5.937   8.596   4.324  0.4175 -0.2082 -0.0221
22002SOL    HW170853   5.910   8.681   4.290  0.2851 -0.1969  0.1158
22002SOL    HW270854   5.872   8.574   4.391  0.1961 -0.6219 -0.3685
22003SOL     OW70855   7.930   0.049   7.466  0.7055 -0.0004  0.6832
22003SOL    HW170856   7.907   0.140   7.485  0.0425 -0.4359  2.0754
22003SOL    HW270857   7.921   0.040   7.371  0.3863  1.2758  0.5913
22004SOL     OW70858   6.224   8.566   5.440 -0.1151 -0.6700 -0.6262
22004SOL    HW170859   6.195   8.633   5.378  0.0538  0.0375  0.0450
22004SOL    HW270860   6.144   8.523   5.468 -0.2130 -0.8342 -1.1635
22005SOL     OW70861   6.385   9.035   5.703  0.1545 -0.2212 -0.7576
22005SOL    HW170862   6.347   9.078   5.780  1.9424  1.5460 -0.8164
22005SOL    HW270863   6.337   9.070   5.629  0.8937  0.8779 -0.7194
22006SOL     OW70864   4.408   8.289   3.615 -0.1368 -0.0886  0.8064
22006SOL    HW170865   4.368   8.343   3.684  0.4135  2.8137 -1.0613
22006SOL    HW270866   4.499   8.319   3.610 -0.6317  1.1113 -2.4007
22007SOL     OW70867   7.338   9.353   6.804  0.2592  0.8209  0.0416
22007SOL    HW170868   7.309   9.377   6.716  1.8607  0.6195 -0.5592
22007SOL    HW270869   7.332   9.257   6.806  0.6640  0.7955 -0.0016
22008SOL     OW70870   7.637   8.374   5.235 -0.0728  0.0112  0.3187
22008SOL    HW170871   7.644   8.335   5.148 -1.6448  0.8670 -0.2096
22008SOL    HW270872   7.628   8.468   5.218 -0.4136  0.1770  1.3970
22009SOL     OW70873   9.492   9.504   7.350  0.1536  0.5280 -0.6517
22009SOL    HW170874   9.533   9.591   7.352  1.2393  0.0207 -0.1943
22009SOL    HW270875   9.547   9.454   7.290 -0.5108  0.1742 -0.9604
22010SOL     OW70876   4.976   0.149   7.974 -0.5993 -0.2699 -0.3865
22010SOL    HW170877   5.048   0.180   8.029 -1.2829  0.2973  0.2042
22010SOL    HW270878   4.988   0.194   7.890  0.7269 -1.5021 -0.8814
22011SOL     OW70879   5.813   0.297   6.328  0.1979  0.5430  0.0640
22011SOL    HW170880   5.896   0.344   6.324  0.7982 -0.3925  1.0754
22011SOL    HW270881   5.806   0.269   6.419 -1.2256  0.5925 -0.0216
22012SOL     OW70882   9.339   8.698   7.015  0.1839 -0.1340  0.7576
22012SOL    HW170883   9.300   8.632   7.073 -0.2572  1.1519  1.9618
22012SOL    HW270884   9.344   8.777   7.069 -2.2693  1.7265 -1.5706
22013SOL     OW70885   7.166   9.742   5.872 -0.6239  0.2302 -0.4617
22013SOL    HW170886   7.122   9.678   5.926  2.2895 -0.8416  0.7241
22013SOL    HW270887   7.142   9.719   5.782 -0.6371 -1.7041  0.0338
22014SOL     OW70888   4.824   0.396   6.415  0.6194  0.6099  0.4633
22014SOL    HW170889   4.752   0.432   6.362 -0.0206 -1.1361  0.1139
22014SOL    HW270890   4.837   0.461   6.484 -1.1529  1.0739  0.3943
22015SOL     OW70891   7.806   8.803   6.200 -0.1520  0.2587  0.2342
22015SOL    HW170892   7.820   8.822   6.293 -0.0717 -0.1456  0.3076
22015SOL    HW270893   7.882   8.841   6.156  0.1269 -0.0863  0.4056
22016SOL     OW70894   6.266   8.983   4.726  0.7058 -0.3604  0.1097
22016SOL    HW170895   6.193   8.960   4.784  0.3458  1.1432  0.2776
22016SOL    HW270896   6.289   8.901   4.682 -2.6626 -0.4235 -1.7208
22017SOL     OW70897   4.421   8.569   5.890  0.0935  0.1565 -0.3965
22017SOL    HW170898   4.448   8.607   5.806 -0.2420  0.9050 -0.1670
22017SOL    HW270899   4.423   8.642   5.951 -0.3415 -0.2473  0.1030
22018SOL     OW70900   7.384   9.792   5.585 -0.6290 -0.4670  0.2708
22018SOL    HW170901   7.293   9.772   5.605 -0.8433 -1.6131 -1.6933
22018SOL    HW270902   7.412   9.720   5.528  1.2078  0.3957  0.0428
22019SOL     OW70903   7.427   8.646   5.421 -0.2179 -1.5166  0.1041
22019SOL    HW170904   7.503   8.660   5.477 -0.0017 -2.7542  0.1205
22019SOL    HW270905   7.420   8.551   5.412 -2.9112 -1.5223  1.7298
22020SOL     OW70906   7.634   0.167   6.184 -0.1695  0.2761 -0.0663
22020SOL    HW170907   7.642   0.257   6.151  0.7392  0.0364 -0.5384
22020SOL    HW270908   7.603   0.117   6.109 -3.6095  0.7019  1.0152
22021SOL     OW70909   7.513   0.459   5.708  0.7426 -0.0112 -0.5891
22021SOL    HW170910   7.528   0.552   5.694 -2.4293  0.6294 -0.0965
22021SOL    HW270911   7.574   0.435   5.778 -2.0755  2.9966  3.0801
22022SOL     OW70912   7.103   9.735   5.587  0.1928  0.1299 -0.2376
22022SOL    HW170913   7.047   9.800   5.545  0.5184 -0.0836 -1.0053
22022SOL    HW270914   7.088   9.655   5.538  1.8518  0.2895 -1.0416
22023SOL     OW70915   3.775   8.505   7.567  0.3807 -0.6528 -0.0884
22023SOL    HW170916   3.861   8.522   7.528  0.7705 -1.1695  0.5404
22023SOL    HW270917   3.788   8.521   7.661  0.2293 -2.3705  0.2423
22024SOL     OW70918   7.585   9.890   7.215 -0.0098  0.3590  0.1963
22024SOL    HW170919   7.645   9.815   7.219 -0.8299 -0.3360 -0.2344
22024SOL    HW270920   7.590   9.920   7.124  2.5178  2.6955  1.0371
22025SOL     OW70921   7.698   8.365   7.266 -0.1162 -0.0814 -0.1428
22025SOL    HW170922   7.706   8.318   7.182  3.8909  0.1536  0.0074
22025SOL    HW270923   7.745   8.310   7.328 -0.3473  1.3084  1.2816
22026SOL     OW70924   7.390   8.621   7.366 -0.0595  0.6340  0.8402
22026SOL    HW170925   7.472   8.655   7.328 -0.3302 -0.4724 -0.7773
22026SOL    HW270926   7.411   8.606   7.458  1.4070  0.8687  0.5605
22027SOL     OW70927   7.104   8.184   5.267 -0.0884  0.0666  0.5410
22027SOL    HW170928   7.052   8.259   5.296  1.2143  1.7111 -1.1796
22027SOL    HW270929   7.165   8.168   5.339 -0.7297  0.3263  1.1411
22028SOL     OW70930   5.326   8.601   5.904 -0.6999 -0.4862  0.2528
22028SOL    HW170931   5.243   8.557   5.885 -0.8636  0.6115 -1.7106
22028SOL    HW270932   5.363   8.620   5.818  0.8739  0.4083  1.1055
22029SOL     OW70933   7.465   9.002   8.106 -0.1058 -0.3641  0.5521
22029SOL    HW170934   7.512   9.049   8.174 -0.4042  0.0362  0.4855
22029SOL    HW270935   7.376   9.038   8.109  0.2481  0.7141 -1.0333
22030SOL     OW70936   6.013   8.062   5.031 -0.2006 -0.1655  0.0716
22030SOL    HW170937   5.992   8.156   5.039 -1.8885 -0.5974  0.9845
22030SOL    HW270938   6.002   8.043   4.938 -3.1917 -0.1710  0.3713
22031SOL     OW70939   6.904   7.595   7.238 -0.2539 -0.5021 -0.1143
22031SOL    HW170940   6.847   7.643   7.179  0.5195 -0.0316 -0.4968
22031SOL    HW270941   6.861   7.601   7.323 -0.2770  0.7130 -0.1912
22032SOL     OW70942   6.220   9.265   5.799 -0.1186  0.1848  0.1682
22032SOL    HW170943   6.237   9.211   5.876 -0.5405 -0.7026 -0.3625
22032SOL    HW270944   6.305   9.303   5.778  0.1056  0.0229  0.7512
22033SOL     OW70945   5.964   0.094   6.127 -0.3932  0.4438 -0.5116
22033SOL    HW170946   6.036   0.046   6.167 -0.4823 -1.1802 -2.2939
22033SOL    HW270947   5.940   0.159   6.194 -0.9911 -2.6290  2.3702
22034SOL     OW70948   6.337   9.980   5.739  0.3170 -0.1707  0.2783
22034SOL    HW170949   6.297  10.056   5.696  0.7867  2.2555  3.9178
22034SOL    HW270950   6.428   9.981   5.709 -0.0772 -0.3030 -0.9709
22035SOL     OW70951   5.975   8.460   6.635 -0.3221  0.3249 -0.6581
22035SOL    HW170952   5.888   8.472   6.597 -1.3510 -1.2466  1.0510
22035SOL    HW270953   5.967   8.378   6.684  2.3223 -0.1525 -0.9929
22036SOL     OW70954   5.002   8.543   7.939 -0.2728  0.0780 -0.0388
22036SOL    HW170955   4.961   8.484   7.876 -3.0816  1.2514  0.6344
22036SOL    HW270956   4.931   8.572   7.995  2.0578 -0.5516  3.4225
22037SOL     OW70957   7.471   9.042   7.268 -0.2401 -0.2665  0.2271
22037SOL    HW170958   7.476   8.999   7.353 -2.3118  0.8235  0.8962
22037SOL    HW270959   7.378   9.050   7.249  0.1740 -0.0684 -1.9449
22038SOL     OW70960   5.263   8.481   7.538  0.0065  0.1986  0.8664
22038SOL    HW170961   5.220   8.560   7.504  1.5097  0.0390 -1.4512
22038SOL    HW270962   5.218   8.408   7.494  0.5244 -0.1118  0.8540
22039SOL     OW70963   7.045   7.939   5.649  0.1589  0.5162 -0.0141
22039SOL    HW170964   7.016   7.913   5.562  0.4191 -0.6445  0.2301
22039SOL    HW270965   7.016   8.030   5.659 -0.6375  0.3685 -0.9662
22040SOL     OW70966   7.129   8.606   7.745 -0.2574 -0.0306 -0.3466
22040SOL    HW170967   7.169   8.691   7.766  0.6032 -0.4580 -0.2455
22040SOL    HW270968   7.084   8.580   7.826 -0.3902  0.2530 -0.3289
22041SOL     OW70969   6.245   9.479   6.582 -0.0199  0.1970  0.2716
22041SOL    HW170970   6.160   9.486   6.539  0.2344 -1.4581 -0.5255
22041SOL    HW270971   6.230   9.509   6.671 -1.5477 -0.5982  0.2780
22042SOL     OW70972   4.585   8.928   6.340 -0.2870 -0.5292 -0.1604
22042SOL    HW170973   4.628   8.950   6.257 -0.4522  0.4382 -0.0014
22042SOL    HW270974   4.505   8.882   6.315 -0.0400 -0.7661 -0.5179
22043SOL     OW70975   6.816   8.166   6.885  0.5934 -0.2920  0.4941
22043SOL    HW170976   6.850   8.141   6.970  1.0640  0.9988  0.6838
22043SOL    HW270977   6.891   8.164   6.826  0.5318  0.1505  0.3957
22044SOL     OW70978   7.650   7.191   4.613 -0.3977  0.0477 -0.1668
22044SOL    HW170979   7.696   7.231   4.687  1.9344 -1.2421 -0.8603
22044SOL    HW270980   7.664   7.252   4.541 -0.9915  0.3360 -0.0438
22045SOL     OW70981   7.566   7.274   5.434  0.4398  0.4850  0.1089
22045SOL    HW170982   7.512   7.274   5.513 -0.0897  4.6610 -0.1413
22045SOL    HW270983   7.654   7.295   5.465  0.4842  0.8372 -0.2503
22046SOL     OW70984   7.001   7.777   6.083  0.1166  0.0718  0.8511
22046SOL    HW170985   6.925   7.787   6.141 -0.5581 -0.6793  0.1204
22046SOL    HW270986   6.984   7.839   6.012  0.2106 -0.0636  0.7116
22047SOL     OW70987   6.101   9.192   6.631  0.1912 -0.2438 -0.5492
22047SOL    HW170988   6.128   9.245   6.706 -0.8680  0.2923 -0.5354
22047SOL    HW270989   6.031   9.243   6.590  1.0572 -0.3180 -2.1651
22048SOL     OW70990   7.742   7.715   5.632 -0.3189 -0.7311 -0.4437
22048SOL    HW170991   7.728   7.790   5.575 -2.0326 -0.8344 -0.1774
22048SOL    HW270992   7.836   7.696   5.623  0.5026  2.4386  0.7493
22049SOL     OW70993   9.031   7.200   4.968 -0.8362 -0.0116  0.0870
22049SOL    HW170994   9.117   7.243   4.964 -0.0221 -1.6251  0.0221
22049SOL    HW270995   9.019   7.180   5.061 -1.0212 -0.0560  0.0534
22050SOL     OW70996   8.344   7.647   5.240 -0.5329 -0.6841  0.2020
22050SOL    HW170997   8.362   7.563   5.197  1.3532  0.0747 -0.5408
22050SOL    HW270998   8.250   7.661   5.225 -0.7556 -2.3893 -0.1440
22051SOL     OW70999   7.546   9.321   6.630  0.5099  0.2385  0.2910
22051SOL    HW171000   7.524   9.282   6.714  1.8973 -0.4624  0.3512
22051SOL    HW271001   7.462   9.341   6.589 -0.1980 -1.1315  1.0475
22052SOL     OW71002   7.522   9.783   6.210  0.2334 -0.6932  0.1788
22052SOL    HW171003   7.451   9.834   6.249  0.8121 -0.1528  0.5491
22052SOL    HW271004   7.496   9.772   6.119 -1.7077 -2.9972  0.9740
22053SOL     OW71005   6.515   9.059   8.197  0.0837 -0.5967 -0.2680
22053SOL    HW171006   6.527   9.150   8.169  0.8898 -1.3309 -2.3865
22053SOL    HW271007   6.424   9.039   8.175 -0.2815 -0.1223  0.7749
22054SOL     OW71008   5.648   8.738   8.355 -0.3176 -0.0146 -0.0739
22054SOL    HW171009   5.663   8.821   8.311 -1.5335 -0.8815 -2.2198
22054SOL    HW271010   5.560   8.746   8.393 -0.4109 -0.2993 -0.2284
22055SOL     OW71011   5.645   7.166   8.533  0.0876  0.3278 -0.1645
22055SOL    HW171012   5.563   7.176   8.485 -0.7101 -1.7331  0.7279
22055SOL    HW271013   5.633   7.218   8.613  0.2645  1.2718 -0.7338
22056SOL     OW71014   7.045   9.330   8.479 -0.3432  0.1559 -0.0709
22056SOL    HW171015   7.083   9.245   8.456 -0.9169 -0.4003  1.0310
22056SOL    HW271016   7.034   9.327   8.574 -0.0959  1.5750  0.0165
22057SOL     OW71017   5.900   7.733   7.693  0.5051  0.0126  0.0778
22057SOL    HW171018   5.808   7.753   7.713  0.4318 -0.5897  0.3763
22057SOL    HW271019   5.917   7.777   7.610 -0.7294 -1.7431 -1.1432
22058SOL     OW71020   7.523   8.887   7.536  0.5635 -0.2521  0.5160
22058SOL    HW171021   7.517   8.807   7.484  1.6514 -0.6448  0.9679
22058SOL    HW271022   7.472   8.868   7.615 -1.0626  0.3356 -0.3700
22059SOL     OW71023   6.135   9.145   8.361 -0.0678 -0.0901  0.0044
22059SOL    HW171024   6.196   9.103   8.301 -0.8690 -0.6342 -0.4311
22059SOL    HW271025   6.059   9.168   8.307 -1.3520 -1.7639  1.0427
22060SOL     OW71026   7.264   6.815   8.848 -0.2587  0.1275 -0.7639
22060SOL    HW171027   7.305   6.833   8.764  0.1680  1.4382 -0.2873
22060SOL    HW271028   7.309   6.872   8.910  0.0239 -1.4403  0.5218
22061SOL     OW71029   6.003   8.755   9.314 -0.7653 -0.4847  0.2742
22061SOL    HW171030   5.967   8.696   9.249  0.7361 -0.9018 -0.1921
22061SOL    HW271031   6.084   8.713   9.343  0.6410  1.5807 -0.4920
22062SOL     OW71032   5.758   7.124   8.816 -0.0527  0.0807  0.3116
22062SOL    HW171033   5.788   7.041   8.780  0.6305 -0.7019  2.6471
22062SOL    HW271034   5.812   7.138   8.894 -1.3600  1.8363  0.9411
22063SOL     OW71035   5.847   8.500   9.604  0.7561 -0.2174 -0.8342
22063SOL    HW171036   5.831   8.487   9.510  3.0574 -1.0028 -1.1663
22063SOL    HW271037   5.761   8.511   9.642 -0.1854  0.6073 -3.1312
22064SOL     OW71038   7.200   8.751   8.941  0.3463  0.1450 -0.0692
22064SOL    HW171039   7.207   8.771   8.848 -0.4510 -0.8788 -0.3540
22064SOL    HW271040   7.291   8.740   8.970  0.4848 -1.9746 -1.2695
22065SOL     OW71041   6.812   5.726   9.858  0.2011 -0.0092  0.0463
22065SOL    HW171042   6.735   5.671   9.875 -0.0727  0.7841  1.4785
22065SOL    HW271043   6.812   5.789   9.929  3.7220 -1.6734  1.6734
22066SOL     OW71044   7.667   8.618   7.182  0.0482 -0.3445 -0.2072
22066SOL    HW171045   7.638   8.598   7.093 -1.7800  1.4892 -0.0659
22066SOL    HW271046   7.696   8.534   7.217 -4.4539 -2.2254 -0.6485
22067SOL     OW71047   6.431   9.849   7.997  0.3804 -0.0120 -0.3155
22067SOL    HW171048   6.352   9.803   8.025  1.6051 -1.6739  0.5023
22067SOL    HW271049   6.452   9.811   7.912  1.7648 -1.4907  0.6549
22068SOL     OW71050   7.996   7.569   9.161 -0.1388  0.1946 -0.1002
22068SOL    HW171051   8.059   7.532   9.222 -1.4209 -0.6251  0.7651
22068SOL    HW271052   8.018   7.662   9.156  0.8852 -0.0167  0.4809
22069SOL     OW71053   7.787   9.145   6.768 -0.0686 -0.1944  0.0383
22069SOL    HW171054   7.872   9.168   6.732  0.2855 -1.3685  0.1332
22069SOL    HW271055   7.725   9.168   6.699  0.3299  0.4465 -0.1141
22070SOL     OW71056   5.035   8.618   8.376  0.1629  0.0428 -0.1386
22070SOL    HW171057   5.002   8.636   8.465 -0.3558  2.6003 -0.7961
22070SOL    HW271058   4.963   8.572   8.333  1.1597 -3.0159  1.3242
22071SOL     OW71059   6.972   7.632   9.546 -0.5941  0.4710 -0.5979
22071SOL    HW171060   7.017   7.713   9.522  1.1227 -0.2731  0.0054
22071SOL    HW271061   6.885   7.640   9.506 -0.2312  2.3156 -1.0785
22072SOL     OW71062   5.817   9.662   7.828  0.3832  0.4309 -0.0776
22072SOL    HW171063   5.880   9.636   7.761  1.7014 -0.1484  1.3634
22072SOL    HW271064   5.781   9.744   7.796 -0.1010 -0.5629 -2.2132
22073SOL     OW71065   7.886   7.926   9.027  0.1326  0.2074  0.6434
22073SOL    HW171066   7.981   7.921   9.016  0.0066 -0.1539 -0.3125
22073SOL    HW271067   7.864   8.018   9.012  0.1311 -0.0243 -0.7790
22074SOL     OW71068   6.826   8.126   9.875 -0.5707  0.2027  0.0429
22074SOL    HW171069   6.819   8.221   9.863 -0.9829  0.0543 -0.9375
22074SOL    HW271070   6.867   8.095   9.795 -1.3258 -0.5664 -0.0432
22075SOL     OW71071   7.051   0.966   6.425 -0.3381  0.0506  0.1203
22075SOL    HW171072   6.967   0.995   6.390  0.3037  1.4135 -0.3212
22075SOL    HW271073   7.032   0.942   6.515 -0.8880  1.9173  0.5226
22076SOL     OW71074   8.459   8.579   8.663 -0.3430 -0.5252  0.0355
22076SOL    HW171075   8.542   8.627   8.671  0.5667 -1.2782 -3.9127
22076SOL    HW271076   8.476   8.495   8.705  0.8731 -0.6083 -0.5944
22077SOL     OW71077   9.442   7.664   8.359  0.0517  0.3953  0.0808
22077SOL    HW171078   9.483   7.585   8.393 -2.8347 -0.4482  1.7414
22077SOL    HW271079   9.435   7.723   8.435  0.2979  1.4162 -0.6774
22078SOL     OW71080   7.163   8.342   8.954  0.4253  0.1589  0.0129
22078SOL    HW171081   7.131   8.351   9.044  0.5556 -1.6737  0.2651
22078SOL    HW271082   7.085   8.357   8.899 -0.4896 -2.4221  0.5623
22079SOL     OW71083   6.722   7.749   9.452 -0.1144  0.4665  0.3023
22079SOL    HW171084   6.683   7.835   9.436 -1.2080 -0.1751 -0.4954
22079SOL    HW271085   6.657   7.703   9.506 -0.4528 -0.5957 -0.9981
22080SOL     OW71086   6.310   9.276   8.028 -0.0623  0.8050  0.2423
22080SOL    HW171087   6.354   9.307   7.949 -2.1988  0.6270 -1.0781
22080SOL    HW271088   6.288   9.185   8.009 -0.9825  0.8891  0.8479
22081SOL     OW71089   6.352   0.093   9.757  0.5038 -0.3963  0.2420
22081SOL    HW171090   6.287   0.114   9.824 -0.6167  0.2305 -1.0063
22081SOL    HW271091   6.428   0.145   9.780 -0.2302  0.6005  0.4772
22082SOL     OW71092   6.961   7.877   9.154 -0.0440  0.1587 -0.8374
22082SOL    HW171093   6.920   7.936   9.217 -1.1964 -0.4083 -1.0501
22082SOL    HW271094   6.958   7.791   9.196  3.3116  0.5155  0.2786
22083SOL     OW71095   5.438   8.903   8.760  0.1958 -0.0684 -0.6215
22083SOL    HW171096   5.402   8.893   8.672  0.0151  1.2083 -0.7005
22083SOL    HW271097   5.386   8.843   8.814 -2.0508  1.6853 -0.7587
22084SOL     OW71098   5.890   8.993   8.651  0.1080 -0.1632  0.2771
22084SOL    HW171099   5.969   9.046   8.642  0.5138 -0.7287  0.4723
22084SOL    HW271100   5.829   9.030   8.587  0.2777  0.7235  0.6242
22085SOL     OW71101   6.108   8.918   7.762 -0.4543  0.2607  0.0729
22085SOL    HW171102   6.146   8.934   7.848  1.5989  1.4905 -1.0497
22085SOL    HW271103   6.122   8.999   7.713 -0.9635 -0.6709 -1.6608
22086SOL     OW71104   7.371   8.553   8.384 -0.5263 -0.9773 -0.3818
22086SOL    HW171105   7.399   8.569   8.474 -1.2809 -0.9352 -0.1466
22086SOL    HW271106   7.305   8.485   8.391 -0.4196 -1.1438 -0.9303
22087SOL     OW71107   8.184   7.753   8.435  0.6176 -0.6605 -0.2009
22087SOL    HW171108   8.245   7.824   8.416  0.2593  0.4262  2.4269
22087SOL    HW271109   8.104   7.777   8.387  0.6348  0.5146  0.3238
22088SOL     OW71110   7.109   9.866   7.941  0.5880 -0.2283 -0.0487
22088SOL    HW171111   7.124   9.844   8.033  1.7964 -1.3937 -0.5103
22088SOL    HW271112   7.189   9.839   7.896  0.1108  0.5683 -1.4088
22089SOL     OW71113   7.237   9.742   8.948 -0.2670  0.5664 -0.1773
22089SOL    HW171114   7.158   9.787   8.977  0.3317  0.2409  2.0335
22089SOL    HW271115   7.205   9.662   8.905 -1.1295 -0.9386  3.0908
22090SOL     OW71116   7.011   8.798   1.364 -0.1586  0.3525  0.0032
22090SOL    HW171117   7.091   8.834   1.401  0.2586  1.7143 -2.1318
22090SOL    HW271118   6.947   8.868   1.370 -0.4598  0.1409 -0.6011
22091SOL     OW71119   6.852   9.737   0.511 -0.2618 -0.0759 -0.3094
22091SOL    HW171120   6.850   9.641   0.502  2.0425 -0.1973  0.3182
22091SOL    HW271121   6.898   9.768   0.433 -0.1284  0.4702 -0.0136
22092SOL     OW71122   6.764   7.540   7.473  0.2047  0.4089  0.0583
22092SOL    HW171123   6.693   7.517   7.533 -2.0990  1.2737 -2.2222
22092SOL    HW271124   6.776   7.634   7.484  1.9087  0.0546  1.3557
22093SOL     OW71125   6.460   7.643   8.517 -0.2794  0.3943 -0.4056
22093SOL    HW171126   6.517   7.601   8.582  0.0919 -0.6976 -1.4121
22093SOL    HW271127   6.383   7.587   8.513 -0.2628  0.4106 -0.9572
22094SOL     OW71128   4.983   8.818   9.099  0.0595  0.1939  0.3868
22094SOL    HW171129   4.986   8.909   9.126  0.1459  0.4147 -0.3494
22094SOL    HW271130   4.990   8.821   9.003 -0.0608 -0.5729  0.3493
22095SOL     OW71131   5.983   8.753   9.591  0.5923 -0.4706  0.1649
22095SOL    HW171132   5.913   8.689   9.606  0.3831 -0.1990  0.3569
22095SOL    HW271133   5.988   8.761   9.496  0.0883 -0.1963  0.1592
22096SOL     OW71134   6.725   7.448   9.360  0.6719 -0.3259 -0.2550
22096SOL    HW171135   6.632   7.455   9.382  1.1848 -0.4736  2.1259
22096SOL    HW271136   6.740   7.516   9.295 -1.3740 -1.1815 -1.6523
22097SOL     OW71137   7.211   8.614   8.129 -0.7557  0.2534  0.2322
22097SOL    HW171138   7.258   8.582   8.206 -2.5351 -1.9454  0.4486
22097SOL    HW271139   7.160   8.539   8.099 -2.5077  1.9708 -1.2283
22098SOL     OW71140   6.760   9.797   5.525  0.0299  0.8936  0.3858
22098SOL    HW171141   6.688   9.737   5.505 -0.0246  0.4495  1.8704
22098SOL    HW271142   6.770   9.792   5.620  2.0878  0.8697  0.1817
22099SOL     OW71143   5.125   6.639   8.139 -0.7934 -0.0220 -0.0622
22099SOL    HW171144   5.176   6.558   8.146 -2.3745 -1.0131  0.0622
22099SOL    HW271145   5.124   6.674   8.228  0.0657  0.2590 -0.1556
22100SOL     OW71146   6.349   8.776   8.317  0.0284  0.3205 -0.0357
22100SOL    HW171147   6.433   8.813   8.345  0.2338  0.5545 -0.9643
22100SOL    HW271148   6.316   8.838   8.253  0.4834 -1.2123 -1.7886
22101SOL     OW71149   8.185   8.823   8.127  0.3339  0.0116  0.1776
22101SOL    HW171150   8.264   8.866   8.094 -0.2869  0.0104 -1.3193
22101SOL    HW271151   8.113   8.860   8.075 -0.6485 -0.0651  1.4549
22102SOL     OW71152   5.434   9.626   8.322  0.0932  0.0298 -0.9917
22102SOL    HW171153   5.415   9.630   8.416  0.4391  1.9461 -0.9756
22102SOL    HW271154   5.499   9.695   8.308  1.3131 -1.3646 -2.3679
22103SOL     OW71155   6.643   9.186   7.095 -0.2637 -0.4251 -0.2270
22103SOL    HW171156   6.719   9.208   7.041 -0.2098 -1.6160 -0.6488
22103SOL    HW271157   6.610   9.270   7.126 -1.0323  0.3748 -3.1271
22104SOL     OW71158   7.936   7.616   7.667  0.3065  0.0391 -0.1144
22104SOL    HW171159   7.981   7.595   7.749  0.9789 -0.4809 -0.6096
22104SOL    HW271160   7.872   7.683   7.692  0.3242 -0.2994  0.8786
22105SOL     OW71161   7.578   9.464   9.675 -0.1472  0.0331 -0.4181
22105SOL    HW171162   7.602   9.375   9.700 -0.4411  0.1704  0.3591
22105SOL    HW271163   7.626   9.480   9.594  3.2511  0.6791  1.6194
22106SOL     OW71164   5.435   8.935   7.088 -0.4094 -0.0535  0.0350
22106SOL    HW171165   5.411   9.028   7.087  1.2859  0.3985 -1.3501
22106SOL    HW271166   5.519   8.932   7.134 -0.0128 -0.7736 -0.7158
22107SOL     OW71167   5.990   0.005   8.247 -0.5399 -0.6076  0.2008
22107SOL    HW171168   5.991   0.074   8.314  0.5587 -0.7248  0.3066
22107SOL    HW271169   5.897  -0.010   8.230 -0.7873  1.0189  0.0488
22108SOL     OW71170   7.244   9.824   6.725 -0.0733 -0.2765  0.0599
22108SOL    HW171171   7.330   9.864   6.709  1.0717 -3.0042 -0.9770
22108SOL    HW271172   7.219   9.856   6.811  0.6546  2.7811 -0.7708
22109SOL     OW71173   5.833   8.700   6.753 -0.2680  0.1275  0.1129
22109SOL    HW171174   5.749   8.665   6.725  0.2878 -0.7394 -0.5252
22109SOL    HW271175   5.897   8.640   6.714  0.7240  1.9894 -1.1632
22110SOL     OW71176   5.584   6.903   8.888 -0.4084 -0.4669  0.3509
22110SOL    HW171177   5.524   6.969   8.921 -1.2318 -0.1329 -1.7938
22110SOL    HW271178   5.530   6.846   8.834  0.8760 -1.1861 -0.1861
22111SOL     OW71179   5.308   0.989   8.462  0.2791  0.2462 -0.7091
22111SOL    HW171180   5.297   1.075   8.502 -1.3524 -0.2347 -0.0675
22111SOL    HW271181   5.402   0.974   8.461  0.4550  1.1739  1.0047
22112SOL     OW71182   5.932   9.279   7.723 -0.0960  0.3132  0.3603
22112SOL    HW171183   5.951   9.313   7.811  2.7058  0.3236 -0.1989
22112SOL    HW271184   5.924   9.357   7.668 -2.3309  0.3275  0.6517
22113SOL     OW71185   7.170   5.549   8.470  0.0001 -0.2846 -0.2062
22113SOL    HW171186   7.074   5.542   8.461 -0.2793 -0.3311  2.5078
22113SOL    HW271187   7.183   5.583   8.558  2.5173 -0.4914 -0.4833
22114SOL     OW71188   6.726   7.768   8.636  0.0513  0.5935  0.4599
22114SOL    HW171189   6.775   7.703   8.585 -0.8290  0.2792  0.0104
22114SOL    HW271190   6.669   7.810   8.572  1.3026  2.4899  0.5506
22115SOL     OW71191   5.784   7.821   8.076 -0.6542 -0.2966 -0.2056
22115SOL    HW171192   5.719   7.863   8.019 -0.9761  1.5109  1.4379
22115SOL    HW271193   5.852   7.789   8.016  0.1805  3.6008 -1.5026
22116SOL     OW71194   6.063   7.649   8.323  0.8555  0.0200  0.1711
22116SOL    HW171195   6.087   7.706   8.250 -0.6076  0.1577 -0.2210
22116SOL    HW271196   6.019   7.574   8.282 -0.1148  0.1663  0.9207
22117SOL     OW71197   7.515   0.155   9.028 -0.4964  0.0199 -0.7144
22117SOL    HW171198   7.579   0.084   9.032 -1.8146 -1.3799 -3.3173
22117SOL    HW271199   7.528   0.196   8.943 -2.1428  0.5698 -0.7337
22118SOL     OW71200   7.945   8.391   8.847 -0.4732  0.3046 -0.3687
22118SOL    HW171201   8.010   8.322   8.830 -0.0385  0.5495  0.2766
22118SOL    HW271202   7.925   8.382   8.940 -0.0663  1.3588 -0.1779
22119SOL     OW71203   6.635   8.526   8.611  0.0274 -0.8808  0.1218
22119SOL    HW171204   6.669   8.607   8.648 -0.8570  0.2628 -1.4894
22119SOL    HW271205   6.703   8.498   8.549  0.7318 -1.8709  1.3093
22120SOL     OW71206   7.710   7.286   8.340 -0.1993  0.4243 -0.5475
22120SOL    HW171207   7.681   7.362   8.289 -1.6710  0.0644 -0.2613
22120SOL    HW271208   7.631   7.255   8.384  0.4998 -0.9595 -0.2514
22121SOL     OW71209   7.233   7.201   9.984  0.0919  0.1553  0.1201
22121SOL    HW171210   7.256   7.153  10.064 -0.7489 -0.1946  0.1586
22121SOL    HW271211   7.301   7.177   9.921 -0.1611 -0.8652  0.2297
22122SOL     OW71212   7.428   0.047   6.715 -0.0876 -0.4249 -0.1806
22122SOL    HW171213   7.468   0.121   6.760 -0.6001 -1.0154  1.2752
22122SOL    HW271214   7.456   0.056   6.624  1.8261  0.1998  0.4510
22123SOL     OW71215   6.721   8.096   8.853  1.0451 -0.0738 -0.4620
22123SOL    HW171216   6.766   8.177   8.877 -1.1259  0.2724  2.7126
22123SOL    HW271217   6.666   8.121   8.778  1.0591  1.1665 -0.0691
22124SOL     OW71218   7.008   9.190   7.844  0.1648 -0.2406  0.1889
22124SOL    HW171219   7.016   9.237   7.927 -1.0326 -0.5067  0.4631
22124SOL    HW271220   6.971   9.255   7.784 -0.9150 -0.6432  0.4091
22125SOL     OW71221   7.518   7.645   0.344 -0.0352  0.1275  0.4573
22125SOL    HW171222   7.572   7.608   0.274 -0.9978  0.7373 -0.6423
22125SOL    HW271223   7.581   7.683   0.405  0.8830 -1.6347  0.6495
22126SOL     OW71224   8.343   8.988   7.990  0.6934 -0.1286 -0.4967
22126SOL    HW171225   8.317   9.078   7.973 -3.5979 -1.2837 -0.4869
22126SOL    HW271226   8.358   8.950   7.903 -1.0558 -0.3769 -0.7001
22127SOL     OW71227   7.805   9.820   6.858  0.0307  0.3240 -0.0265
22127SOL    HW171228   7.826   9.812   6.765  1.5738 -0.1792  0.3520
22127SOL    HW271229   7.885   9.792   6.903 -1.4805 -1.7176  1.4790
22128SOL     OW71230   7.805   9.076   7.374 -0.0701 -0.0903 -0.3116
22128SOL    HW171231   7.885   9.127   7.364  0.5528 -1.4371 -3.0116
22128SOL    HW271232   7.808   9.014   7.301 -1.9091 -2.4318  1.5070
22129SOL     OW71233   6.631   0.881   1.132  0.4222  0.1808  0.2972
22129SOL    HW171234   6.609   0.788   1.136 -1.8646  0.6715 -0.0437
22129SOL    HW271235   6.680   0.898   1.212 -0.4289 -1.0133  1.0849
22130SOL     OW71236   6.255   8.174   9.324 -0.4017 -0.9943  0.1951
22130SOL    HW171237   6.278   8.237   9.256  0.1630 -0.0615  1.2433
22130SOL    HW271238   6.319   8.103   9.313 -1.1586 -1.4825 -1.1043
22131SOL     OW71239   7.711   9.224   8.805 -0.1925  0.6836 -0.0642
22131SOL    HW171240   7.644   9.158   8.821  0.1461  0.9144  2.6366
22131SOL    HW271241   7.674   9.305   8.839 -0.2439  1.7280 -2.5358
22132SOL     OW71242   7.854   8.402   6.930  0.2461 -0.0872 -0.9843
22132SOL    HW171243   7.812   8.481   6.896  0.3616 -0.2097 -1.4146
22132SOL    HW271244   7.937   8.432   6.966 -0.2162  0.1632 -0.1005
22133SOL     OW71245   7.216   6.600   9.529 -0.4728  0.1824  0.1021
22133SOL    HW171246   7.182   6.674   9.481  1.2327  1.2557  0.4937
22133SOL    HW271247   7.150   6.581   9.596 -0.4087  2.0701  0.7189
22134SOL     OW71248   6.933   7.535   8.713  0.0075 -0.2595 -0.0817
22134SOL    HW171249   6.954   7.486   8.793  0.5203  0.2403  0.1034
22134SOL    HW271250   6.921   7.625   8.744 -0.0166 -0.1068 -0.5390
22135SOL     OW71251   7.311   8.448   9.313 -0.9893  0.2096  0.0105
22135SOL    HW171252   7.255   8.397   9.255 -0.1971 -1.5666  0.7721
22135SOL    HW271253   7.250   8.502   9.364 -1.9292 -0.7671 -0.0576
22136SOL     OW71254   5.455   9.535   6.882  0.2045  0.2684  0.3143
22136SOL    HW171255   5.510   9.610   6.902  2.3501 -1.1568 -0.0006
22136SOL    HW271256   5.488   9.466   6.940 -0.3383 -1.0023 -0.8688
22137SOL     OW71257   7.373   9.108   9.567 -0.0897  0.2880 -0.1740
22137SOL    HW171258   7.338   9.183   9.615 -1.6179  0.0388 -0.8646
22137SOL    HW271259   7.298   9.050   9.554  1.0066 -1.2169  0.0664
22138SOL     OW71260   6.803   8.251   6.179 -0.6178  0.5879  0.1674
22138SOL    HW171261   6.767   8.172   6.138  0.9866  0.8655 -1.8878
22138SOL    HW271262   6.884   8.221   6.220 -0.9630  0.8075  1.0075
22139SOL     OW71263   7.733   8.020   6.370 -0.1773  0.0469  0.1467
22139SOL    HW171264   7.820   7.983   6.382 -0.2176 -0.2783 -0.5399
22139SOL    HW271265   7.721   8.025   6.276 -1.8460 -2.2439  0.1859
22140SOL     OW71266   6.465   9.217   0.802 -0.2443  0.1979 -0.2541
22140SOL    HW171267   6.498   9.221   0.712  2.2757 -4.4523  0.3085
22140SOL    HW271268   6.376   9.183   0.793  0.4798 -1.6091 -1.0200
22141SOL     OW71269   7.285   8.026   7.469 -0.4891 -0.2308  0.3783
22141SOL    HW171270   7.312   8.104   7.420 -1.3252 -0.7998 -0.9995
22141SOL    HW271271   7.366   7.994   7.509  0.0237  0.8151  0.1964
22142SOL     OW71272   5.897   7.965   9.320  0.9809  0.3999  0.3515
22142SOL    HW171273   5.917   7.882   9.362 -2.7426 -0.7863 -0.0956
22142SOL    HW271274   5.979   7.990   9.277  2.9019 -1.7030  2.6044
22143SOL     OW71275   7.639   8.200   8.911  0.3305  0.4777  0.1978
22143SOL    HW171276   7.660   8.168   8.998  1.0964 -0.4332 -0.3132
22143SOL    HW271277   7.595   8.283   8.926 -0.5765 -0.2190  1.4975
22144SOL     OW71278   6.293   8.036   8.164 -0.1680 -0.3498 -0.5958
22144SOL    HW171279   6.200   8.060   8.167  0.6361  2.8729  0.2049
22144SOL    HW271280   6.334   8.088   8.232  2.2313 -1.9652 -0.7307
22145SOL     OW71281   5.104   6.446   8.778  0.1947 -0.3657 -0.0746
22145SOL    HW171282   5.101   6.475   8.686  0.6495 -0.7400 -0.2048
22145SOL    HW271283   5.123   6.526   8.827 -1.6219  0.1437 -0.1572
22146SOL     OW71284   5.170   7.383   7.646 -0.2211 -0.3168  0.0254
22146SOL    HW171285   5.214   7.446   7.588  2.3433  0.6449  2.8509
22146SOL    HW271286   5.208   7.299   7.624 -0.6324 -0.2538 -0.9482
22147SOL     OW71287   6.288   9.396   7.513  0.5270 -0.3501 -0.3297
22147SOL    HW171288   6.360   9.450   7.481  0.5597 -0.2305 -0.0495
22147SOL    HW271289   6.213   9.423   7.460  0.7371 -0.6234 -0.7629
22148SOL     OW71290   4.959   7.917   9.022  0.0860  0.7332 -0.0748
22148SOL    HW171291   5.041   7.948   9.060 -0.1823  0.3807  0.8211
22148SOL    HW271292   4.985   7.842   8.968 -0.0944 -2.1000  3.5853
22149SOL     OW71293   8.625   8.805   8.772  0.0742 -0.4176 -0.1617
22149SOL    HW171294   8.554   8.853   8.729  0.5826  2.6229  2.1375
22149SOL    HW271295   8.583   8.764   8.848  0.6565  1.1013  1.0089
22150SOL     OW71296   6.364   9.898   0.209 -0.2056  0.9056  0.1921
22150SOL    HW171297   6.356   9.862   0.120  2.4110  0.7809 -0.0306
22150SOL    HW271298   6.359   9.993   0.197 -3.0806  0.8249  0.3251
22151SOL     OW71299   6.668   9.182   7.650  0.2557 -0.1554 -0.1955
22151SOL    HW171300   6.734   9.233   7.697 -0.6941  0.1893  0.7494
22151SOL    HW271301   6.617   9.247   7.602 -1.0915 -0.1806  1.1779
22152SOL     OW71302   8.312   8.591   7.115  0.3051  0.1933  0.1351
22152SOL    HW171303   8.325   8.525   7.047 -0.6024 -1.2086  1.2964
22152SOL    HW271304   8.326   8.674   7.070 -1.0494 -0.6719 -1.9741
22153SOL     OW71305   7.681   9.061   7.801 -0.3535  0.3694  0.5526
22153SOL    HW171306   7.693   8.987   7.860  0.9014  0.0083 -0.1359
22153SOL    HW271307   7.653   9.133   7.858  1.1425  0.1128  1.6253
22154SOL     OW71308   7.614   9.839   0.795 -0.1761 -0.2596  0.4800
22154SOL    HW171309   7.540   9.882   0.752 -0.1433 -0.3335  0.3500
22154SOL    HW271310   7.630   9.892   0.873  1.5418  1.5235 -1.0173
22155SOL     OW71311   7.380   0.641   9.614  0.5596  0.1085  0.2232
22155SOL    HW171312   7.364   0.598   9.698  2.1002  0.2894  0.6265
22155SOL    HW271313   7.354   0.576   9.548  1.3632 -0.8488  0.8333
22156SOL     OW71314   5.018   8.313   8.495  0.6525 -0.3691 -0.3380
22156SOL    HW171315   4.993   8.394   8.539  0.6796 -0.9345  0.7311
22156SOL    HW271316   4.999   8.329   8.403 -1.3900  0.0741  0.1384
22157SOL     OW71317   7.022   8.747   9.363  0.4995 -0.0093  0.1640
22157SOL    HW171318   6.936   8.775   9.394 -0.4614 -1.4371 -1.1184
22157SOL    HW271319   7.048   8.677   9.424  1.1053  0.9288  0.9985
22158SOL     OW71320   6.884   6.285   9.175 -0.2946 -0.4344  0.1817
22158SOL    HW171321   6.975   6.302   9.150 -0.7224  0.5588 -0.7330
22158SOL    HW271322   6.876   6.190   9.171  0.6320 -0.5126  0.0040
22159SOL     OW71323   6.869   8.453   8.294 -0.5639  0.0308  0.3108
22159SOL    HW171324   6.848   8.539   8.257 -3.0624 -0.0490  1.4393
22159SOL    HW271325   6.802   8.395   8.258  0.3523 -1.1859  0.5601
22160SOL     OW71326   6.948   8.594   9.148  0.5700 -0.4544  0.5976
22160SOL    HW171327   6.854   8.591   9.166  0.6350 -1.3894  0.8295
22160SOL    HW271328   6.981   8.664   9.203  0.1824 -0.8679  1.3650
22161SOL     OW71329   7.550   7.461   7.852  0.4305  0.2338  0.3750
22161SOL    HW171330   7.483   7.403   7.887  0.6279 -0.0353  0.3108
22161SOL    HW271331   7.629   7.407   7.849 -0.0086 -0.3428 -2.2800
22162SOL     OW71332   7.882   9.304   8.057  0.5531 -0.4504  0.1025
22162SOL    HW171333   7.886   9.371   8.126 -1.1436 -2.4505  2.2324
22162SOL    HW271334   7.900   9.352   7.976  0.5192  2.3609  1.6792
22163SOL     OW71335   6.727   8.546   7.314 -0.5389  0.6360 -0.0652
22163SOL    HW171336   6.775   8.580   7.238 -0.1442  3.1056  1.2270
22163SOL    HW271337   6.795   8.516   7.374 -0.7750  0.3276  0.0486
22164SOL     OW71338   6.108   6.270   9.486 -0.6136 -0.0991 -0.0608
22164SOL    HW171339   6.202   6.266   9.503 -0.8176 -1.1070  0.8774
22164SOL    HW271340   6.100   6.254   9.392  0.1994  0.7696 -0.2909
22165SOL     OW71341   5.911   7.349   7.329 -0.2622  0.5239 -0.4166
22165SOL    HW171342   5.848   7.289   7.289  1.4980  0.1281 -2.6967
22165SOL    HW271343   5.892   7.434   7.289 -0.9138  0.9411  0.7311
22166SOL     OW71344   6.386   9.645   8.468  0.5221  0.3211 -0.1986
22166SOL    HW171345   6.307   9.677   8.425  0.8435  1.9115  0.3438
22166SOL    HW271346   6.458   9.675   8.412  0.7188 -1.8590 -1.1464
22167SOL     OW71347   8.074   8.850   9.027  0.3736  0.1417 -0.1778
22167SOL    HW171348   8.133   8.915   8.989 -0.3713  0.2422 -1.2132
22167SOL    HW271349   8.009   8.902   9.075  1.0100  0.0422  0.7925
22168SOL     OW71350   7.497   7.290   8.950  0.1117 -0.4735 -0.1872
22168SOL    HW171351   7.544   7.358   8.902 -1.4618 -0.0022 -1.1033
22168SOL    HW271352   7.555   7.214   8.948  1.0537  0.2529 -0.8302
22169SOL     OW71353   7.958   8.821   6.970 -0.4715 -0.2779 -0.8554
22169SOL    HW171354   8.020   8.893   6.971 -0.7034 -0.0347 -2.1599
22169SOL    HW271355   7.919   8.821   7.057  1.3646 -0.4574 -0.0098
22170SOL     OW71356   6.230   9.763   7.596 -0.6009  0.3792 -0.1724
22170SOL    HW171357   6.214   9.738   7.505  2.5167 -0.4214 -0.5728
22170SOL    HW271358   6.251   9.681   7.640  0.6805  1.0912  0.5916
22171SOL     OW71359   7.702   9.569   9.420 -0.0307  0.3493 -0.1360
22171SOL    HW171360   7.638   9.542   9.354 -1.0975  0.5252  0.8094
22171SOL    HW271361   7.669   9.652   9.454 -0.4402 -0.5914  1.8491
22172SOL     OW71362   8.062   9.182   7.834 -0.0188 -0.0679  0.3124
22172SOL    HW171363   8.043   9.103   7.886 -0.6445  0.1035  0.3427
22172SOL    HW271364   8.106   9.240   7.895 -0.0166 -0.1936  0.4326
22173SOL     OW71365   5.647   6.011   0.031 -0.2540 -0.4107 -0.4171
22173SOL    HW171366   5.552   6.021   0.019 -0.3987 -0.5504  0.5646
22173SOL    HW271367   5.660   5.916   0.037 -0.1317 -0.3578  0.1084
22174SOL     OW71368   7.602   7.719   7.968 -0.2267 -0.3771 -0.2156
22174SOL    HW171369   7.576   7.745   8.057  2.6433 -1.0076  0.8693
22174SOL    HW271370   7.608   7.624   7.972  1.8213 -0.2850 -0.4926
22175SOL     OW71371   7.901   9.217   7.609  0.3540 -0.1985  0.1381
22175SOL    HW171372   7.987   9.230   7.570  0.8755  3.0256  2.1610
22175SOL    HW271373   7.913   9.239   7.701 -2.3108 -1.2215  0.7729
22176SOL     OW71374   6.407   8.901   7.882  0.4174 -0.3589  0.2844
22176SOL    HW171375   6.346   8.957   7.929  2.5508  2.0467  0.2756
22176SOL    HW271376   6.356   8.866   7.808 -1.5659 -0.3066  1.5888
22177SOL     OW71377   5.546   9.114   8.606  0.5885 -0.5746  0.1532
22177SOL    HW171378   5.524   9.044   8.545 -2.1098  1.5575 -1.4427
22177SOL    HW271379   5.617   9.162   8.563  2.5025 -2.2836  1.2889
22178SOL     OW71380   6.637   9.362   8.391 -0.6806  0.3683  0.6506
22178SOL    HW171381   6.550   9.385   8.358 -0.3781  0.5414 -0.0567
22178SOL    HW271382   6.682   9.326   8.314 -0.5283 -0.8622  1.2997
22179SOL     OW71383   8.151   7.670   7.908 -0.6727 -0.1548 -0.0738
22179SOL    HW171384   8.200   7.673   7.826 -1.1443  0.3913 -0.3325
22179SOL    HW271385   8.216   7.642   7.974 -0.2099 -0.2132 -0.5558
22180SOL     OW71386   5.535   9.068   8.203 -0.3052 -0.1425 -0.3500
22180SOL    HW171387   5.579   9.146   8.170  0.3255  0.2543  1.3894
22180SOL    HW271388   5.605   9.015   8.242 -1.0586 -0.4799  0.5752
22181SOL     OW71389   6.510   9.829   8.305  0.0803 -0.5404 -0.0182
22181SOL    HW171390   6.419   9.838   8.277 -0.2157 -1.8756  0.4577
22181SOL    HW271391   6.545   9.760   8.249  0.4995 -0.7561  0.5009
22182SOL     OW71392   6.840   8.087   7.545 -0.0228 -0.2810 -0.2492
22182SOL    HW171393   6.800   8.104   7.631 -1.4801 -1.1830 -0.7396
22182SOL    HW271394   6.931   8.063   7.566  0.2808  1.6804  0.8804
22183SOL     OW71395   5.773   8.724   8.990  0.0026  0.3838  0.3289
22183SOL    HW171396   5.732   8.798   9.036 -1.8130 -0.2268 -0.2755
22183SOL    HW271397   5.772   8.750   8.898 -0.6416 -0.3777  0.1157
22184SOL     OW71398   5.626   7.729   0.014 -0.2691 -0.5211  0.4623
22184SOL    HW171399   5.584   7.801  -0.033  0.6046 -0.3980 -0.1429
22184SOL    HW271400   5.590   7.734   0.103 -1.3169 -0.2457  0.0346
22185SOL     OW71401   6.812   8.945   8.078 -1.0730  0.0560  0.5051
22185SOL    HW171402   6.759   9.020   8.052 -2.1959 -0.3634  1.5359
22185SOL    HW271403   6.784   8.873   8.022 -0.4586  0.2381 -0.0389
22186SOL     OW71404   7.840   6.875   8.843 -0.9513 -0.0245  0.2727
22186SOL    HW171405   7.898   6.882   8.767 -0.8154 -3.1263  0.0461
22186SOL    HW271406   7.773   6.812   8.817 -1.8965  0.1697  2.1286
22187SOL     OW71407   8.497   9.098   8.497  0.4273 -0.2192 -0.3628
22187SOL    HW171408   8.469   9.183   8.531 -0.3801 -0.6290  0.0117
22187SOL    HW271409   8.441   9.083   8.421  1.9336  0.4942 -1.6408
22188SOL     OW71410   5.943   9.743   1.814  0.0144 -0.2603  0.1807
22188SOL    HW171411   5.860   9.701   1.837 -0.4491  1.5942  2.0632
22188SOL    HW271412   6.006   9.707   1.877  0.5075 -1.1818 -0.8319
22189SOL     OW71413   5.749   9.074   9.191 -0.3431 -0.3893  0.0356
22189SOL    HW171414   5.831   9.067   9.241 -1.7146  0.5187  2.4936
22189SOL    HW271415   5.715   8.985   9.189 -0.5789 -0.3318  1.2627
22190SOL     OW71416   6.249   7.871   0.414  0.1162 -1.1915  0.2334
22190SOL    HW171417   6.330   7.824   0.436  0.9063  0.9665  2.0608
22190SOL    HW271418   6.279   7.958   0.387 -1.4677 -1.0773 -1.1916
22191SOL     OW71419   5.122   7.932   8.331  0.5168  0.6774 -0.3915
22191SOL    HW171420   5.121   7.995   8.260  2.2191  0.6758 -0.4268
22191SOL    HW271421   5.176   7.860   8.299  1.6739  0.8749  1.0430
22192SOL     OW71422   5.829   8.888   0.167 -0.6198  0.0799 -0.0524
22192SOL    HW171423   5.886   8.965   0.171 -1.6357  0.8056  1.2616
22192SOL    HW271424   5.859   8.839   0.091 -0.3431  2.1135 -1.2824
22193SOL     OW71425   7.269   8.743   6.570 -0.1057  0.8642  0.3853
22193SOL    HW171426   7.189   8.701   6.537  1.6488 -2.0331 -0.3151
22193SOL    HW271427   7.322   8.759   6.493  0.0694  2.7229  0.8639
22194SOL     OW71428   6.295   9.900   9.536  0.2002  0.1442  0.0265
22194SOL    HW171429   6.328   9.942   9.456  0.0684 -0.8971 -0.5878
22194SOL    HW271430   6.324   9.958   9.607  1.9594  0.1060 -0.6299
22195SOL     OW71431   6.770   8.819   9.425 -0.0825  0.4302  0.1831
22195SOL    HW171432   6.779   8.888   9.491 -2.2455 -1.1614  2.2506
22195SOL    HW271433   6.727   8.747   9.472 -1.0341 -1.0296 -2.8151
22196SOL     OW71434   5.199   9.076   8.694  0.1383  0.0560  0.3417
22196SOL    HW171435   5.124   9.115   8.739  0.4914  0.4811  0.5704
22196SOL    HW271436   5.167   9.059   8.605 -0.0408  0.8328  0.2509
22197SOL     OW71437   6.965   9.436   8.821 -0.1865  0.1028 -0.0075
22197SOL    HW171438   6.930   9.430   8.732  1.2637  1.2610 -0.6902
22197SOL    HW271439   6.977   9.530   8.836  2.5684 -0.2179  0.1773
22198SOL     OW71440   6.553   9.687   7.791  0.1933 -0.2928  0.4104
22198SOL    HW171441   6.637   9.671   7.747  0.1432  0.7149 -0.0475
22198SOL    HW271442   6.511   9.601   7.792  0.5218 -0.4864 -0.8337
22199SOL     OW71443   6.156   9.734   8.038  0.2976 -0.2796  0.2477
22199SOL    HW171444   6.123   9.724   8.128  1.3651  0.1706  0.7008
22199SOL    HW271445   6.117   9.660   7.990 -3.5408  1.6872  0.0783
22200SOL     OW71446   5.841   9.685   9.377 -0.2718  0.6051 -0.5335
22200SOL    HW171447   5.883   9.762   9.416  0.4260 -0.2903  0.5421
22200SOL    HW271448   5.898   9.661   9.304 -0.0355  0.6069 -0.3485
22201SOL     OW71449   6.373   8.197   8.386  0.0010  0.1378  0.4069
22201SOL    HW171450   6.313   8.168   8.454 -0.4301  0.0248 -0.0167
22201SOL    HW271451   6.371   8.293   8.390  1.8694  0.1400  2.1948
22202SOL     OW71452   5.757   7.731   9.687 -0.2161  0.3045 -0.9309
22202SOL    HW171453   5.827   7.735   9.622  0.3290 -2.1562 -0.5353
22202SOL    HW271454   5.688   7.681   9.643 -0.9260  0.9718 -0.5780
22203SOL     OW71455   5.858   9.015   7.648 -0.1671 -0.4899 -0.2423
22203SOL    HW171456   5.881   9.107   7.657 -1.8121 -0.3272  2.8650
22203SOL    HW271457   5.926   8.968   7.696  1.5394 -1.0882 -3.0975
22204SOL     OW71458   5.329   9.513   9.098 -0.0609 -0.2793 -0.3670
22204SOL    HW171459   5.392   9.550   9.159  2.4338 -0.0109 -2.9978
22204SOL    HW271460   5.317   9.582   9.032 -1.5274 -1.1257 -1.0044
22205SOL     OW71461   9.515   8.565   8.050  0.3541 -0.0592 -0.0095
22205SOL    HW171462   9.428   8.560   8.089  0.1661 -0.4081 -0.4767
22205SOL    HW271463   9.563   8.492   8.088  0.3103 -0.1296 -0.0912
22206SOL     OW71464   5.964   7.860   7.453 -0.1651  0.7623  0.3492
22206SOL    HW171465   5.923   7.820   7.376  1.6824 -1.6486  0.5459
22206SOL    HW271466   6.003   7.941   7.420 -0.8397  0.6114 -0.8682
22207SOL     OW71467   5.650   9.447   7.907 -0.7760  1.0772  0.3161
22207SOL    HW171468   5.697   9.400   7.976 -1.7653  1.4928  1.3075
22207SOL    HW271469   5.718   9.488   7.854  0.1780 -2.4076 -1.2925
22208SOL     OW71470   8.136   8.749   7.559  0.1624  0.1566  0.6739
22208SOL    HW171471   8.224   8.738   7.524  0.0650  1.5181 -0.0296
22208SOL    HW271472   8.078   8.709   7.494  0.2125 -0.2000  0.8473
22209SOL     OW71473   5.257   6.654   8.873 -0.1403 -0.1643  0.0582
22209SOL    HW171474   5.258   6.694   8.960 -0.2111  0.3659 -0.1892
22209SOL    HW271475   5.243   6.726   8.812  2.2068 -0.2029 -0.5806
22210SOL     OW71476   7.188   0.335   8.250  0.0742 -0.1488  0.6792
22210SOL    HW171477   7.112   0.303   8.298  0.1949  1.0702  1.7319
22210SOL    HW271478   7.244   0.374   8.317  2.1224 -1.9176  0.0757
22211SOL     OW71479   5.085   0.310   8.232 -0.0256  0.3123  0.1639
22211SOL    HW171480   5.017   0.343   8.174  1.1442  0.8644 -0.9132
22211SOL    HW271481   5.138   0.386   8.254  1.9681 -0.5831 -1.3639
22212SOL     OW71482   7.474   9.848   8.394 -0.3067 -0.1514 -0.5072
22212SOL    HW171483   7.507   9.859   8.305 -0.4901 -1.7373 -0.7781
22212SOL    HW271484   7.414   9.923   8.406  0.8562  0.9019 -1.1617
22213SOL     OW71485   5.059   8.145   0.073  0.1901  0.4005  0.2929
22213SOL    HW171486   5.091   8.215   0.130 -1.7623  0.9153  0.8329
22213SOL    HW271487   5.038   8.073   0.132 -0.3792  0.3703  0.0647
22214SOL     OW71488   9.035   7.108   8.030 -0.4707  0.1502 -0.4337
22214SOL    HW171489   8.980   7.185   8.018 -0.4791  0.3459  0.7450
22214SOL    HW271490   8.973   7.035   8.041 -0.4799  0.1763 -0.3129
22215SOL     OW71491   5.691   8.852   6.409 -0.3345 -0.0012  0.0919
22215SOL    HW171492   5.656   8.766   6.432  0.5609 -0.2663  0.4536
22215SOL    HW271493   5.613   8.908   6.402 -0.8904 -0.7558  0.1866
22216SOL     OW71494   7.949   8.126   8.441  0.5862  0.5787  0.1985
22216SOL    HW171495   7.901   8.209   8.451  0.8926  0.4893  2.7251
22216SOL    HW271496   7.942   8.084   8.526  1.5479 -1.4250 -0.6805
22217SOL     OW71497   6.981   8.000   8.699  0.1602  0.4421 -0.3146
22217SOL    HW171498   6.961   8.075   8.644 -1.3686 -1.2160 -2.1123
22217SOL    HW271499   6.913   8.000   8.766 -0.5038  0.0647 -0.9729
22218SOL     OW71500   5.815   8.298   8.098 -0.3288  0.0896 -0.4554
22218SOL    HW171501   5.880   8.348   8.148 -0.6460  0.4694 -0.4237
22218SOL    HW271502   5.731   8.337   8.122 -0.6446 -0.9063  0.1014
22219SOL     OW71503   6.754   6.888   8.572 -0.0562 -0.6362 -0.0470
22219SOL    HW171504   6.832   6.893   8.626  0.3109  0.7281 -0.6764
22219SOL    HW271505   6.785   6.905   8.483 -1.3642  2.1127 -0.0183
22220SOL     OW71506   4.522   9.417   6.585  0.2963  0.2538 -0.3340
22220SOL    HW171507   4.589   9.468   6.539 -2.4534  2.9780 -1.4547
22220SOL    HW271508   4.488   9.357   6.519 -2.2712  2.8030 -1.4065
22221SOL     OW71509   6.691   8.637   9.639  0.4222  0.3070 -0.3230
22221SOL    HW171510   6.654   8.558   9.679  1.7865  0.2799  0.9438
22221SOL    HW271511   6.784   8.617   9.627  0.6401  1.4589 -0.6417
22222SOL     OW71512   5.626   7.453   8.168  0.6145 -0.3168  0.5680
22222SOL    HW171513   5.538   7.479   8.195  0.0292 -1.7590  0.0945
22222SOL    HW271514   5.639   7.496   8.083  0.4168 -0.0096  0.6962
22223SOL     OW71515   8.075   8.397   7.234  0.1390 -0.3909  0.1291
22223SOL    HW171516   8.161   8.425   7.268 -0.2275  1.5874 -0.5176
22223SOL    HW271517   8.091   8.310   7.198  2.1195  0.3111 -0.7980
22224SOL     OW71518   5.412   7.135   7.378 -0.1540  0.2512  0.2428
22224SOL    HW171519   5.448   7.080   7.309  0.5705  1.7816 -0.6065
22224SOL    HW271520   5.477   7.204   7.391 -0.6428  0.4241  1.9065
22225SOL     OW71521   6.583   8.790   8.051  0.0681 -0.1238 -0.2586
22225SOL    HW171522   6.528   8.847   7.997 -0.8371 -0.2433  0.5153
22225SOL    HW271523   6.593   8.838   8.134  0.5152 -0.4364 -0.1274
22226SOL     OW71524   5.814   8.042   0.123  0.2458 -0.3642  0.3857
22226SOL    HW171525   5.847   7.980   0.188  0.6199  1.1391  1.6662
22226SOL    HW271526   5.764   8.106   0.175 -1.6165 -0.5669 -1.1090
22227SOL     OW71527   6.117   9.311   9.409 -0.7402  0.1563  0.3018
22227SOL    HW171528   6.125   9.351   9.322 -1.3286  0.5331  0.4157
22227SOL    HW271529   6.095   9.219   9.391 -0.2360  0.0870  0.0457
22228SOL     OW71530   6.975   8.128   0.121  0.2007  0.2341  1.4214
22228SOL    HW171531   7.050   8.070   0.115  0.1018  0.2184  0.2797
22228SOL    HW271532   6.911   8.092   0.060 -0.0649  1.2342  1.1009
22229SOL     OW71533   8.386   8.669   7.761 -0.1433  0.1297  0.2326
22229SOL    HW171534   8.377   8.621   7.679 -1.2728  0.5134  0.1161
22229SOL    HW271535   8.455   8.623   7.809 -0.2028 -0.7208 -0.4894
22230SOL     OW71536   5.311   8.568   7.239  0.5508 -0.5121 -0.2646
22230SOL    HW171537   5.245   8.604   7.299  0.1112  1.7618 -2.0534
22230SOL    HW271538   5.262   8.509   7.182  0.2132  0.4664 -0.9972
22231SOL     OW71539   6.202   9.062   0.420  0.3469  0.2401  0.0969
22231SOL    HW171540   6.166   9.091   0.503  2.6910  1.5444  0.6919
22231SOL    HW271541   6.256   8.986   0.441 -0.0744 -0.2102 -0.4202
22232SOL     OW71542   7.232   9.127   8.157  0.1192 -0.2124 -0.0985
22232SOL    HW171543   7.184   9.208   8.140 -0.3532 -0.5128 -0.1953
22232SOL    HW271544   7.216   9.108   8.249 -0.8635 -0.9038 -0.3968
22233SOL     OW71545   6.638   0.411   6.252 -0.3630 -0.0639 -0.1263
22233SOL    HW171546   6.690   0.468   6.309 -0.3302 -0.1209 -0.0994
22233SOL    HW271547   6.586   0.472   6.199  1.1419  0.0467 -1.4969
22234SOL     OW71548   5.985   9.462   8.414 -0.4180  0.4590 -0.1220
22234SOL    HW171549   5.922   9.532   8.431  1.8298  2.1789  1.3432
22234SOL    HW271550   6.064   9.488   8.461  0.8164 -2.5673 -0.3905
22235SOL     OW71551   6.999   7.115   8.526 -0.3385 -0.3267 -0.1593
22235SOL    HW171552   6.908   7.092   8.513 -0.4374 -1.7122  2.5931
22235SOL    HW271553   6.996   7.200   8.571 -0.1599  1.0084 -2.5663
22236SOL     OW71554   5.908   9.368   7.029 -0.0520  0.0260 -0.5652
22236SOL    HW171555   5.863   9.451   7.015  0.6939  0.8976  1.9456
22236SOL    HW271556   5.892   9.347   7.121  1.2896 -1.6906 -0.6987
22237SOL     OW71557   6.662   9.561   8.226  0.6937 -0.1973 -0.0629
22237SOL    HW171558   6.752   9.592   8.227  0.3032  1.1095 -1.6982
22237SOL    HW271559   6.641   9.544   8.317  2.9764 -1.7276  0.2189
22238SOL     OW71560   6.556   7.909   8.465  0.5601  0.3400 -0.1242
22238SOL    HW171561   6.533   7.818   8.444  0.9590 -0.1384  1.3613
22238SOL    HW271562   6.475   7.947   8.498 -0.0851  1.1141 -2.5798
22239SOL     OW71563   3.700   8.677   8.892  0.3434 -0.8489  0.1879
22239SOL    HW171564   3.655   8.758   8.871  0.7184 -1.0035 -1.2739
22239SOL    HW271565   3.790   8.703   8.911  0.2865 -0.8316  0.4224
22240SOL     OW71566   6.474   8.401   8.807  0.3409  0.1395 -0.3840
22240SOL    HW171567   6.518   8.396   8.891  0.7522 -0.1242 -0.6133
22240SOL    HW271568   6.540   8.436   8.747 -0.0758  0.7323 -0.5131
22241SOL     OW71569   8.216   8.789   8.479 -0.7745  0.5677 -0.2854
22241SOL    HW171570   8.228   8.852   8.550 -1.8761 -1.5903  1.8914
22241SOL    HW271571   8.148   8.827   8.424 -2.9138  0.3631  2.1419
22242SOL     OW71572   3.547   7.505   8.152 -0.9594  0.1772  0.7133
22242SOL    HW171573   3.519   7.495   8.061 -2.3562 -1.0332  1.2531
22242SOL    HW271574   3.630   7.551   8.147 -1.2211  0.4702 -1.1583
22243SOL     OW71575   9.749   8.780   9.667 -0.2300  0.2452 -0.3192
22243SOL    HW171576   9.665   8.820   9.689 -0.0639 -0.2654  1.2693
22243SOL    HW271577   9.769   8.813   9.579 -1.8354  0.7747 -0.4969
22244SOL     OW71578   5.762   8.764   8.721 -0.8882 -0.0748  0.1517
22244SOL    HW171579   5.673   8.793   8.703 -0.9321  0.6198  1.4012
22244SOL    HW271580   5.818   8.826   8.674 -1.0534  0.0994  0.1837
22245SOL     OW71581   8.351   7.580   9.653  0.2962 -0.1259  0.2854
22245SOL    HW171582   8.430   7.604   9.603  0.9389  0.3778  1.5068
22245SOL    HW271583   8.335   7.489   9.631  0.5065  0.1167 -0.9163
22246SOL     OW71584   8.672   7.591   8.986 -0.2579 -0.0199  0.6696
22246SOL    HW171585   8.631   7.550   9.062  0.7102 -2.4324 -0.0776
22246SOL    HW271586   8.613   7.571   8.914  0.1154  0.0722  0.3396
22247SOL     OW71587   6.441   9.912   7.666 -0.4286 -0.1791 -0.1046
22247SOL    HW171588   6.499   9.838   7.683 -0.9268 -0.4563  0.4296
22247SOL    HW271589   6.356   9.871   7.648 -0.3633  0.2009 -1.3225
22248SOL     OW71590   5.302   8.437   8.994  0.0052  0.0544 -0.2013
22248SOL    HW171591   5.256   8.354   8.982 -0.9545  0.4926  0.3538
22248SOL    HW271592   5.384   8.426   8.947 -0.1171 -1.2072 -0.1451
22249SOL     OW71593   7.569   7.708   6.924 -0.1222  0.0931 -0.0258
22249SOL    HW171594   7.543   7.621   6.956 -0.1986  0.4725  0.9583
22249SOL    HW271595   7.569   7.699   6.829  0.2176 -1.0957  0.0675
22250SOL     OW71596   7.853   7.586   8.657 -0.4402  0.5783 -0.2047
22250SOL    HW171597   7.857   7.532   8.579 -0.1296 -0.2235  0.3577
22250SOL    HW271598   7.940   7.627   8.662 -0.5180  0.7668 -0.3725
22251SOL     OW71599   7.422   8.905   9.369  0.1429 -0.1092 -0.5944
22251SOL    HW171600   7.378   8.840   9.423 -0.2289 -0.2839 -1.1066
22251SOL    HW271601   7.447   8.975   9.430 -1.8634  0.5278 -0.4792
22252SOL     OW71602   7.617   9.258   8.004 -0.1031 -0.0412  0.0452
22252SOL    HW171603   7.581   9.259   8.092  0.6168  0.9693  0.3255
22252SOL    HW271604   7.712   9.262   8.016 -0.0138  0.5021 -0.7793
22253SOL     OW71605   6.756   7.977   8.052  0.2598 -0.6707 -0.3296
22253SOL    HW171606   6.766   8.062   8.008  2.0324 -0.6317  0.1302
22253SOL    HW271607   6.814   7.982   8.128 -0.5889 -1.8300  0.4004
22254SOL     OW71608   7.514   6.604   1.088  0.4435  0.8570  0.2807
22254SOL    HW171609   7.494   6.522   1.134 -1.8191  0.5151 -1.2395
22254SOL    HW271610   7.467   6.671   1.136 -0.4099  0.7708 -0.4278
22255SOL     OW71611   6.160   9.742   8.330  0.0148  0.4452  0.6153
22255SOL    HW171612   6.083   9.743   8.386 -0.6727 -0.1417 -0.2988
22255SOL    HW271613   6.169   9.832   8.300  0.0168  0.6302  1.1651
22256SOL     OW71614   5.752   9.265   8.087 -0.3888  0.0015  0.3677
22256SOL    HW171615   5.809   9.200   8.129 -0.1956  0.8227  1.4063
22256SOL    HW271616   5.742   9.333   8.153  0.2483  1.5152 -1.0634
22257SOL     OW71617   7.046   6.681   9.242 -0.2353  0.1099  0.4886
22257SOL    HW171618   7.024   6.773   9.227 -1.4204 -0.3706 -0.8478
22257SOL    HW271619   6.965   6.641   9.274  0.3395 -0.4206  1.2940
22258SOL     OW71620   5.057   7.578   9.754 -0.1874  0.2167  0.3742
22258SOL    HW171621   4.981   7.625   9.787 -0.3730 -0.2269  0.5826
22258SOL    HW271622   5.113   7.566   9.831  0.2877  0.9080  0.1422
22259SOL     OW71623   7.463   8.638   1.192 -0.5527  0.3676  0.2953
22259SOL    HW171624   7.473   8.594   1.108 -3.2208 -0.5141  0.3754
22259SOL    HW271625   7.442   8.729   1.170  1.8544  0.9080  0.0900
22260SOL     OW71626   5.372   9.833   8.105  0.1636  0.4304 -0.1054
22260SOL    HW171627   5.320   9.777   8.163 -0.4194  1.4008  0.3243
22260SOL    HW271628   5.395   9.909   8.159  2.6586 -0.3117 -0.0743
22261SOL     OW71629   7.517   9.244   8.266  0.0223 -0.1272  0.1911
22261SOL    HW171630   7.459   9.265   8.339  0.7312 -0.3092  0.8003
22261SOL    HW271631   7.598   9.289   8.286 -0.1729  0.8117 -1.0803
22262SOL     OW71632   6.865   8.743   0.136 -0.3889  0.2808  0.1500
22262SOL    HW171633   6.922   8.668   0.119 -2.0784 -0.1703 -4.3116
22262SOL    HW271634   6.912   8.818   0.099 -0.6500  0.6896  0.6352
22263SOL     OW71635   4.518   8.035   0.019 -0.0940  0.1505  0.2359
22263SOL    HW171636   4.443   8.006  -0.034  0.8696 -1.1274 -0.4794
22263SOL    HW271637   4.530   7.964   0.082 -1.2844  1.7125  2.2441
22264SOL     OW71638   5.707   7.453   9.836  0.5241 -0.2575  0.1458
22264SOL    HW171639   5.646   7.381   9.844  0.0105  0.0809 -0.6322
22264SOL    HW271640   5.767   7.426   9.766 -0.1898  0.4176 -0.7480
22265SOL     OW71641   7.046   8.357   0.672 -0.0189  0.0510  0.5584
22265SOL    HW171642   6.993   8.281   0.699  0.4604 -0.4149  0.1812
22265SOL    HW271643   7.004   8.388   0.592  1.3288 -1.4108 -0.7370
22266SOL     OW71644   7.180   6.305   9.053  0.3587 -0.1051 -0.0426
22266SOL    HW171645   7.224   6.316   9.138 -0.9910  1.0702  0.5361
22266SOL    HW271646   7.196   6.387   9.007  1.7280 -1.0227 -1.2751
22267SOL     OW71647   6.037   7.882   0.229  0.3995 -0.4780 -0.4318
22267SOL    HW171648   6.043   7.977   0.239  1.1853 -0.0931 -3.8966
22267SOL    HW271649   6.126   7.850   0.242  0.0261 -0.8691  1.3788
22268SOL     OW71650   6.810   8.477   9.400 -0.1307  0.1017  0.0721
22268SOL    HW171651   6.856   8.495   9.482 -0.3977 -2.1399  0.7667
22268SOL    HW271652   6.801   8.382   9.399 -1.2563  0.2083 -1.9632
22269SOL     OW71653   6.724   9.184   9.810  0.4084  0.4892  0.8456
22269SOL    HW171654   6.723   9.173   9.905  1.3134  0.5573  0.8701
22269SOL    HW271655   6.774   9.264   9.796  2.8557 -1.0720  0.2010
22270SOL     OW71656   5.285   7.847   8.091 -0.1994  0.4191  0.1660
22270SOL    HW171657   5.211   7.787   8.108 -0.1337  0.6255  1.2691
22270SOL    HW271658   5.338   7.802   8.026 -0.3713 -0.5484  0.6788
22271SOL     OW71659   6.920   7.324   9.558  0.3811  0.1743  1.0538
22271SOL    HW171660   6.868   7.387   9.509  0.7180 -0.1057  0.3378
22271SOL    HW271661   7.010   7.352   9.547  0.6425 -1.1269 -0.2872
22272SOL     OW71662   6.508   9.483   9.916 -0.0618 -0.2098  0.6707
22272SOL    HW171663   6.535   9.418   9.981 -0.0691  0.0459  0.9280
22272SOL    HW271664   6.590   9.518   9.881 -0.0577 -0.5791  0.3118
22273SOL     OW71665   7.403   9.162   0.398 -0.0157  0.7164 -0.4626
22273SOL    HW171666   7.450   9.153   0.482 -2.0924 -1.4034  0.5451
22273SOL    HW271667   7.311   9.162   0.423 -0.7218 -1.7677 -2.8587
22274SOL     OW71668   7.011   9.272   9.423 -0.4716 -0.8432 -0.4575
22274SOL    HW171669   7.030   9.179   9.437 -1.7855 -1.1471 -0.6670
22274SOL    HW271670   6.947   9.294   9.490 -0.7382 -0.2803 -0.8975
22275SOL     OW71671   7.390   7.800   8.576  0.9079 -0.2349 -0.3719
22275SOL    HW171672   7.450   7.848   8.633 -0.2265  0.5590  0.1585
22275SOL    HW271673   7.304   7.813   8.615  0.3360 -1.0596 -1.3451
22276SOL     OW71674   7.235   7.892   8.800 -1.0774  0.2376 -0.1269
22276SOL    HW171675   7.163   7.920   8.743  0.0093  2.2376 -0.5695
22276SOL    HW271676   7.238   7.958   8.869 -1.3097 -1.2611  1.3381
22277SOL     OW71677   6.000   5.802   9.795  0.1098 -0.0809 -0.2941
22277SOL    HW171678   5.946   5.772   9.722 -1.2090 -0.6084  0.8611
22277SOL    HW271679   5.956   5.766   9.873  0.4484  1.9610  0.8769
22278SOL     OW71680   4.102   7.120   0.204  0.4234 -0.2341 -0.4217
22278SOL    HW171681   4.145   7.048   0.250  0.1123 -0.4767 -0.5064
22278SOL    HW271682   4.019   7.083   0.175 -1.0129  0.9474  1.9864
22279SOL     OW71683   8.075   9.614   9.553 -0.2898  0.4608 -0.2034
22279SOL    HW171684   8.044   9.549   9.490  1.1146  0.2754 -0.7214
22279SOL    HW271685   8.081   9.566   9.636  0.4442  0.0094 -0.5145
22280SOL     OW71686   6.554   8.176   9.546  0.4073 -1.0965  0.5078
22280SOL    HW171687   6.511   8.104   9.502  0.0921 -1.1982  0.9741
22280SOL    HW271688   6.630   8.197   9.491  0.8001 -2.1266  0.6414
22281SOL     OW71689   5.317   6.864   9.054  0.0998  0.2517  0.1583
22281SOL    HW171690   5.231   6.905   9.055  0.3899  0.8838 -0.6767
22281SOL    HW271691   5.376   6.933   9.025  0.3817 -1.1457 -2.7805
22282SOL     OW71692   7.975   6.259   0.278  0.4561 -0.8798  0.1309
22282SOL    HW171693   8.002   6.297   0.194  0.2686  1.7019  1.1724
22282SOL    HW271694   8.050   6.273   0.335 -0.4581  0.0157  1.1435
22283SOL     OW71695   9.780   7.437   0.061 -0.0733 -0.6190  0.2865
22283SOL    HW171696   9.790   7.411   0.152 -0.6311  0.1213  0.5583
22283SOL    HW271697   9.720   7.373   0.023 -0.3053 -0.5773  0.5870
22284SOL     OW71698   6.667   8.034   0.968 -0.1569  0.2374 -0.5171
22284SOL    HW171699   6.649   8.123   0.998 -0.8207 -0.5662  1.5833
22284SOL    HW271700   6.584   8.002   0.934 -0.0001  0.3168 -0.9711
22285SOL     OW71701   6.268   7.513   9.995 -0.0240  0.1894 -0.2748
22285SOL    HW171702   6.289   7.577  10.063 -0.9221  0.5186 -0.2999
22285SOL    HW271703   6.236   7.437  10.043 -2.6465  1.1732 -0.3842
22286SOL     OW71704   6.816   8.958   9.643 -0.0472 -0.3054  0.2677
22286SOL    HW171705   6.782   9.028   9.699 -0.5745 -0.6220  0.3491
22286SOL    HW271706   6.837   8.887   9.704 -0.3140 -0.5316  0.0943
22287SOL     OW71707   3.905   9.021   0.153  0.0308 -0.4506 -0.3144
22287SOL    HW171708   3.820   9.033   0.110 -0.7415  0.5554  1.4615
22287SOL    HW271709   3.969   9.039   0.084 -1.1663  3.3545 -0.5504
22288SOL     OW71710   9.090   7.808   0.227  0.4366 -0.1096  0.2491
22288SOL    HW171711   9.114   7.854   0.147 -1.0669 -0.7736 -0.5986
22288SOL    HW271712   9.038   7.871   0.277 -1.0251 -0.6253 -0.5940
22289SOL     OW71713   6.757   7.767   8.915 -0.2474  1.1312  0.4440
22289SOL    HW171714   6.852   7.773   8.923  0.3017 -2.3244 -2.3580
22289SOL    HW271715   6.739   7.791   8.824 -1.6792 -1.3929  0.0109
22290SOL     OW71716   4.477   7.510   9.164 -0.3599  0.3723  0.2729
22290SOL    HW171717   4.492   7.599   9.197 -0.4234 -0.3712  2.3937
22290SOL    HW271718   4.383   7.506   9.148 -0.6702  0.1438  1.9685
22291SOL     OW71719   6.906   8.019   9.629 -0.3670  0.7209  0.4630
22291SOL    HW171720   6.853   8.044   9.554  0.8706  0.3552 -0.5307
22291SOL    HW271721   6.874   7.931   9.651  0.2671  0.2350 -0.5367
22292SOL     OW71722   8.180   7.967   8.984  0.0642  0.9164 -0.2487
22292SOL    HW171723   8.228   7.889   8.956 -0.5661  0.9129 -1.3594
22292SOL    HW271724   8.202   7.978   9.076  1.5584  0.4500 -0.5445
22293SOL     OW71725   4.990   9.262   9.759 -0.0197  0.1788 -0.5196
22293SOL    HW171726   5.067   9.222   9.719 -0.5507 -0.0361 -1.3451
22293SOL    HW271727   4.957   9.196   9.820 -0.7683 -0.5654 -1.7187
22294SOL     OW71728   7.726   5.744   0.041 -0.2382  0.1009 -0.3883
22294SOL    HW171729   7.719   5.824   0.092  2.1097 -0.7751  1.3764
22294SOL    HW271730   7.648   5.693   0.064  0.6317 -0.1513  2.1390
22295SOL     OW71731   6.294   7.758   9.469  0.3466 -0.5625  0.2667
22295SOL    HW171732   6.326   7.804   9.391 -0.0442 -1.3261 -0.3612
22295SOL    HW271733   6.267   7.672   9.436  0.4398 -0.9953  1.2964
22296SOL     OW71734   6.575   7.535   9.671  0.7652  0.6603  0.3312
22296SOL    HW171735   6.568   7.440   9.678  0.0697  0.6369 -0.6501
22296SOL    HW271736   6.554   7.567   9.759  0.1517 -0.0503  0.4431
22297SOL     OW71737   9.023   9.033   1.185 -0.1209  0.2549 -0.2639
22297SOL    HW171738   9.105   9.046   1.138  0.1774 -0.4008  0.0607
22297SOL    HW271739   8.971   9.111   1.166  0.4693  0.5455 -0.6952
22298SOL     OW71740   4.900   0.283   1.511  0.0259  0.3147 -0.2262
22298SOL    HW171741   4.829   0.333   1.470 -0.9626 -0.5311  0.4135
22298SOL    HW271742   4.977   0.302   1.458 -0.2210  2.8499  0.2307
22299SOL     OW71743   6.261   8.484   7.969  0.3015 -0.2244  0.4396
22299SOL    HW171744   6.297   8.490   8.057  1.2662 -0.2499  0.0536
22299SOL    HW271745   6.322   8.535   7.915 -0.4490  0.0466 -0.1609
22300SOL     OW71746   7.734   7.538   0.065 -0.4420  0.8017  0.1717
22300SOL    HW171747   7.724   7.482   0.142 -0.6056  0.6191  0.0183
22300SOL    HW271748   7.669   7.505   0.003  0.9092 -0.2386 -0.7348
22301SOL     OW71749   7.373   8.813   9.958  0.2455  0.0786 -0.5607
22301SOL    HW171750   7.294   8.853   9.923 -0.6591 -1.6277 -0.5317
22301SOL    HW271751   7.363   8.819  10.053  0.2725  0.0869 -0.5572
22302SOL     OW71752   5.217   8.696   9.712  0.8505  0.1359 -0.8314
22302SOL    HW171753   5.216   8.602   9.732  0.7520  0.4787  0.8040
22302SOL    HW271754   5.260   8.701   9.626  1.1701 -1.3688 -0.7814
22303SOL     OW71755   6.792   0.473   9.935 -0.4813  0.1146 -0.2661
22303SOL    HW171756   6.795   0.535  10.009  2.0696 -1.1984  0.8061
22303SOL    HW271757   6.856   0.507   9.873  1.1241 -1.5581  0.4436
22304SOL     OW71758   6.237   7.418   9.132 -0.1003 -0.2133  0.1038
22304SOL    HW171759   6.143   7.434   9.131  0.0559  0.7184 -0.9438
22304SOL    HW271760   6.274   7.491   9.182  0.1230 -0.1608 -0.1324
22305SOL     OW71761   6.598   8.368   9.740  0.0293  0.5098  0.1008
22305SOL    HW171762   6.593   8.313   9.662 -2.1968  1.1898 -0.2669
22305SOL    HW271763   6.689   8.360   9.770  0.4698 -1.0439 -1.6116
22306SOL     OW71764   6.778   6.625   0.935 -0.0026  0.2734  0.0516
22306SOL    HW171765   6.851   6.679   0.904 -0.3152  1.4945  1.4162
22306SOL    HW271766   6.707   6.687   0.951 -0.8393 -0.7226  0.2255
22307SOL     OW71767   6.599   8.743   0.267 -0.7841  0.0218  0.1883
22307SOL    HW171768   6.561   8.660   0.296  1.5925 -0.9005  0.7832
22307SOL    HW271769   6.654   8.719   0.193  1.0412  0.8246  1.2641
22308SOL     OW71770   6.305   8.165   8.971  0.4731 -0.1728 -0.1581
22308SOL    HW171771   6.220   8.178   8.930  0.2726  0.8491  0.5854
22308SOL    HW271772   6.340   8.253   8.984 -0.2327 -0.3625  3.5012
22309SOL     OW71773   4.671   9.467   0.837 -0.3071 -0.4573 -0.0426
22309SOL    HW171774   4.683   9.485   0.743 -0.2398  2.1902  0.4407
22309SOL    HW271775   4.650   9.552   0.875 -2.6112 -1.8846  2.0148
22310SOL     OW71776   6.218   8.100   9.592  0.2202  0.5343  0.2421
22310SOL    HW171777   6.209   8.107   9.497 -0.6197  0.3375  0.3084
22310SOL    HW271778   6.145   8.044   9.620  0.0887  1.1109  1.0754
22311SOL     OW71779   8.035   8.621   9.480  0.2501 -0.2445 -0.3831
22311SOL    HW171780   8.118   8.577   9.463 -0.0286 -1.2805  0.7703
22311SOL    HW271781   7.999   8.641   9.394  2.1058  1.0290 -0.8828
22312SOL     OW71782   8.104   6.785   9.732 -0.1712  0.0351 -0.2671
22312SOL    HW171783   8.191   6.777   9.693  0.0233  0.8797 -0.0199
22312SOL    HW271784   8.103   6.873   9.770 -0.3440 -0.7599  1.6477
22313SOL     OW71785   4.662   8.332   7.979 -0.2226 -0.4306 -0.9037
22313SOL    HW171786   4.589   8.343   8.040  0.9130 -3.5793  1.1607
22313SOL    HW271787   4.740   8.327   8.034  0.8269 -3.6001 -2.5507
22314SOL     OW71788   6.298   8.831   9.990  0.4580  0.2425 -0.5037
22314SOL    HW171789   6.371   8.820   9.930 -0.8211 -0.9373 -1.8955
22314SOL    HW271790   6.305   8.756  10.050  1.2979  0.9976  0.3345
22315SOL     OW71791   4.259   0.062   1.330 -0.3692  0.4347  0.1873
22315SOL    HW171792   4.289   0.143   1.289  0.5586  0.2903  0.5655
22315SOL    HW271793   4.165   0.061   1.316 -0.3913  1.6125  0.2248
22316SOL     OW71794   5.622   8.099   9.593  0.7745  0.2542 -0.1209
22316SOL    HW171795   5.709   8.130   9.567  1.1764  1.9213  3.0066
22316SOL    HW271796   5.637   8.053   9.676 -1.4389  1.1851  0.8213
22317SOL     OW71797   6.556   0.095   0.697  0.1019 -0.2871 -0.4445
22317SOL    HW171798   6.637   0.131   0.731 -0.4679  1.0540 -0.4916
22317SOL    HW271799   6.583   0.045   0.619  1.2370 -2.2940  1.1917
22318SOL     OW71800   6.948   0.738   0.503 -0.1746 -0.0538 -0.4869
22318SOL    HW171801   6.935   0.769   0.593  0.5454 -0.8644 -0.0873
22318SOL    HW271802   7.027   0.783   0.473 -0.3858  0.1782 -0.6946
22319SOL     OW71803   7.686   8.879   1.577  0.8923  0.1090 -0.3004
22319SOL    HW171804   7.699   8.967   1.542  3.3994  0.3684  1.1710
22319SOL    HW271805   7.622   8.890   1.647  2.2133  1.0122  0.7872
22320SOL     OW71806   6.816   7.829   1.954  0.6754  0.0001 -0.3665
22320SOL    HW171807   6.761   7.751   1.965 -1.2591  1.2286 -1.1215
22320SOL    HW271808   6.789   7.865   1.870  0.6089  2.2384  0.5984
22321SOL     OW71809   6.130   9.335   0.736 -0.2455 -0.2186 -0.2325
22321SOL    HW171810   6.046   9.291   0.726  0.5001 -1.4321 -1.3353
22321SOL    HW271811   6.158   9.353   0.646  0.9538 -0.3613  0.1097
22322SOL     OW71812   6.266   0.317   2.012 -0.1022  0.4964  0.4965
22322SOL    HW171813   6.361   0.325   2.017 -0.0517 -1.0651  2.5304
22322SOL    HW271814   6.245   0.342   1.922  2.0324  2.5819  0.5048
22323SOL     OW71815   9.494   9.220   0.466  0.3989  0.2804 -0.2461
22323SOL    HW171816   9.467   9.312   0.474  0.5015  0.2252  0.8661
22323SOL    HW271817   9.433   9.182   0.403 -0.8591  0.6414  0.7407
22324SOL     OW71818   6.703   9.698   8.777 -0.1869  0.4042  0.6663
22324SOL    HW171819   6.685   9.738   8.862 -0.9504  0.3012  0.5482
22324SOL    HW271820   6.635   9.731   8.719  0.5874  0.8290 -0.0252
22325SOL     OW71821   7.617   9.280   2.032 -0.0576  0.2029 -0.2400
22325SOL    HW171822   7.650   9.365   2.062 -0.7875  0.1279  0.8037
22325SOL    HW271823   7.523   9.285   2.047 -0.2656 -0.3193 -1.3703
22326SOL     OW71824   6.697   9.552   0.878 -0.5799  0.1414  0.2271
22326SOL    HW171825   6.788   9.544   0.851 -0.3162  1.9071  0.5720
22326SOL    HW271826   6.647   9.517   0.805  0.3145  0.5848 -0.6051
22327SOL     OW71827   7.568   0.597   1.290  0.1177 -0.2106 -0.3684
22327SOL    HW171828   7.651   0.619   1.331  0.4794 -0.9252 -0.7019
22327SOL    HW271829   7.579   0.506   1.260 -0.0499  0.3506 -2.2138
22328SOL     OW71830   6.748   0.254   2.574 -0.0201 -1.0606 -0.3436
22328SOL    HW171831   6.830   0.222   2.535 -0.4607 -2.6620 -0.0140
22328SOL    HW271832   6.725   0.187   2.638 -0.5792  0.3539  0.9577
22329SOL     OW71833   5.559   9.661   2.216 -0.1953  0.0795 -0.1796
22329SOL    HW171834   5.564   9.658   2.311  0.0173 -2.7626 -0.2563
22329SOL    HW271835   5.467   9.644   2.196  0.1045 -1.1590 -0.5319
22330SOL     OW71836   5.867   0.408   9.819  0.5804  0.1144 -0.2093
22330SOL    HW171837   5.952   0.444   9.795  0.6401  2.1120  2.7292
22330SOL    HW271838   5.813   0.484   9.840 -1.5738 -1.1854 -0.8625
22331SOL     OW71839   6.748   8.941   1.493  0.5160 -0.2184  0.1225
22331SOL    HW171840   6.683   8.917   1.427  0.6779  0.6579 -0.3551
22331SOL    HW271841   6.792   9.017   1.457  1.5439 -0.5673  0.6230
22332SOL     OW71842   6.964   8.994   0.032 -0.0422 -0.7559 -0.1277
22332SOL    HW171843   6.885   9.044   0.053 -0.8280 -1.1506 -1.9785
22332SOL    HW271844   6.996   9.034  -0.049  0.6917 -1.6957 -0.3087
22333SOL     OW71845   6.099   0.228   0.845 -0.2682  0.2907  0.2625
22333SOL    HW171846   6.170   0.175   0.808  0.6452  0.9148  1.1249
22333SOL    HW271847   6.132   0.260   0.928 -1.7305  0.2319  0.8926
22334SOL     OW71848   7.697   0.421   1.605 -0.4062 -0.1087 -0.4097
22334SOL    HW171849   7.746   0.339   1.606 -0.3351 -0.0635  0.4891
22334SOL    HW271850   7.752   0.483   1.557 -0.1375 -0.3908 -0.4597
22335SOL     OW71851   7.563   9.625   0.077 -0.2170  0.0504 -0.2106
22335SOL    HW171852   7.493   9.579   0.123 -0.3023 -0.5614 -0.9402
22335SOL    HW271853   7.633   9.633   0.142 -0.7664  0.2056  0.3619
22336SOL     OW71854   7.671   9.388   8.441 -0.2041  0.2981  0.8229
22336SOL    HW171855   7.589   9.345   8.466 -0.8397  0.6758 -0.5559
22336SOL    HW271856   7.652   9.482   8.451 -0.3651  0.4391 -0.7387
22337SOL     OW71857   6.003   9.527   1.992 -0.6460  0.4213 -0.3609
22337SOL    HW171858   5.918   9.484   1.980  0.2435 -1.2873 -0.6254
22337SOL    HW271859   6.003   9.554   2.084 -0.0558 -2.7540  0.6227
22338SOL     OW71860   6.602   0.756   8.705 -0.0108 -0.4553 -0.4332
22338SOL    HW171861   6.589   0.813   8.629  1.1837  1.3385  0.6677
22338SOL    HW271862   6.650   0.680   8.671 -1.3450 -0.6641 -1.8591
22339SOL     OW71863   6.611   9.670   2.594 -0.4127  0.1914  0.3310
22339SOL    HW171864   6.575   9.697   2.509 -0.8278  0.0210  0.4562
22339SOL    HW271865   6.543   9.617   2.634  0.2085 -0.6440  0.3024
22340SOL     OW71866   6.291   0.560   0.558  0.3185  0.1179 -0.5257
22340SOL    HW171867   6.365   0.613   0.527 -0.5464  1.2290 -0.7225
22340SOL    HW271868   6.326   0.472   0.566  2.1144  0.9282  0.9204
22341SOL     OW71869   5.667   0.956   1.071 -0.1406  0.0006  0.1464
22341SOL    HW171870   5.602   1.021   1.099  0.3004 -0.2293  1.7133
22341SOL    HW271871   5.636   0.873   1.106  2.1625  0.2306  2.9380
22342SOL     OW71872   6.728   8.266   1.761 -0.0637 -0.6077  0.3511
22342SOL    HW171873   6.713   8.259   1.667 -0.2108 -0.2349  0.3450
22342SOL    HW271874   6.656   8.321   1.793  0.4928  0.0186  0.5389
22343SOL     OW71875   5.019   8.691   2.262 -0.0362 -0.0550  0.2526
22343SOL    HW171876   5.015   8.623   2.194  2.0148 -0.0518  0.1159
22343SOL    HW271877   5.058   8.648   2.338  0.3338  0.7060  0.4968
22344SOL     OW71878   5.456   0.173   9.401  0.4267 -0.0835  0.3954
22344SOL    HW171879   5.409   0.095   9.371  0.2368  0.0255  0.4069
22344SOL    HW271880   5.543   0.141   9.425  0.0995 -0.4258  1.1382
22345SOL     OW71881   6.751   9.580   1.483 -0.0931  0.3086 -0.3633
22345SOL    HW171882   6.671   9.633   1.492  0.3451  1.3120 -2.0927
22345SOL    HW271883   6.741   9.538   1.397  0.0932 -1.5408  0.5193
22346SOL     OW71884   7.736   9.357   1.097 -0.1880 -0.2314  0.4700
22346SOL    HW171885   7.688   9.437   1.119 -0.9161 -0.1809 -1.2612
22346SOL    HW271886   7.710   9.295   1.165 -3.5984 -0.5445 -1.0035
22347SOL     OW71887   7.721   7.880   0.790  0.8262 -0.2002 -0.0315
22347SOL    HW171888   7.627   7.877   0.807  0.6890  0.5814 -0.5885
22347SOL    HW271889   7.762   7.867   0.875  0.1952  0.8361  0.4383
22348SOL     OW71890   5.569   8.308   0.892  0.0955  0.2196  0.2344
22348SOL    HW171891   5.622   8.232   0.870  0.5619  0.0449  1.9004
22348SOL    HW271892   5.627   8.364   0.942 -0.7386  0.9090  0.4399
22349SOL     OW71893   7.440   9.057   0.866  0.7718  0.3396 -0.3323
22349SOL    HW171894   7.441   9.153   0.865 -2.3025  0.4259  1.2682
22349SOL    HW271895   7.451   9.032   0.774 -0.6283  2.2800 -1.0650
22350SOL     OW71896   5.421   1.916   9.857  0.3472  0.0307  0.5450
22350SOL    HW171897   5.480   1.894   9.786  1.0687 -1.3642  1.5467
22350SOL    HW271898   5.390   1.832   9.890  0.4445  0.6025  2.1986
22351SOL     OW71899   6.322   8.738   2.759 -0.0183  0.0693 -0.5090
22351SOL    HW171900   6.295   8.803   2.694 -2.5790 -0.8158 -0.4039
22351SOL    HW271901   6.375   8.787   2.821  0.1475  1.5325 -1.7717
22352SOL     OW71902   6.103   9.571   0.883  0.7063  0.3239  0.6346
22352SOL    HW171903   6.124   9.495   0.828  1.1186  2.4629 -2.3210
22352SOL    HW271904   6.183   9.625   0.882 -0.5296  2.2105  0.1834
22353SOL     OW71905   7.922   0.991   0.240  0.4710  0.4097  0.0232
22353SOL    HW171906   7.915   1.010   0.334 -0.1075  1.5022 -0.2267
22353SOL    HW271907   7.906   1.076   0.198  0.5431 -0.1141 -1.0661
22354SOL     OW71908   5.022   8.477   2.075 -0.3306  0.1146  0.1851
22354SOL    HW171909   5.000   8.422   2.000 -1.8045  2.0139 -0.8407
22354SOL    HW271910   5.102   8.524   2.048 -0.9597  0.9276 -0.2832
22355SOL     OW71911   7.137   9.960   1.648  0.0776  0.0888  0.3058
22355SOL    HW171912   7.223   9.925   1.626 -0.4758 -0.3889 -1.1470
22355SOL    HW271913   7.124   9.935   1.740  0.7432 -1.3485  0.0180
22356SOL     OW71914   6.898   0.480   0.950  0.2732 -0.4224 -0.4652
22356SOL    HW171915   6.962   0.489   1.020  0.3688 -1.6546 -0.3760
22356SOL    HW271916   6.813   0.483   0.995  0.3442 -1.8152 -0.1959
22357SOL     OW71917   7.929   9.570   0.756 -0.4325 -0.3073  0.7211
22357SOL    HW171918   7.944   9.607   0.842 -0.3530 -1.2803  1.1327
22357SOL    HW271919   7.911   9.477   0.772  2.3680 -1.1249 -0.5257
22358SOL     OW71920   6.581   0.642   0.613  0.3744  0.0946 -0.7193
22358SOL    HW171921   6.640   0.693   0.667  3.0424 -0.1571 -3.2448
22358SOL    HW271922   6.564   0.562   0.664 -0.1769  1.4615  1.2777
22359SOL     OW71923   6.372   1.069   0.753  0.2412 -0.6855  0.1809
22359SOL    HW171924   6.458   1.092   0.788  0.0974 -0.4972  0.4054
22359SOL    HW271925   6.317   1.145   0.770 -0.1329 -1.0439  0.5928
22360SOL     OW71926   8.085   0.159   1.485  0.0766  0.1004  0.0646
22360SOL    HW171927   8.168   0.196   1.456  0.1490 -0.9793 -1.1656
22360SOL    HW271928   8.092   0.066   1.465 -1.2982 -0.0644  0.2696
22361SOL     OW71929   6.822   9.476   0.419 -0.1227  0.9972 -0.7565
22361SOL    HW171930   6.877   9.453   0.344  0.4343 -0.9781  0.2337
22361SOL    HW271931   6.737   9.436   0.400  0.4334 -0.7298  0.3061
22362SOL     OW71932   5.023   9.944   1.816 -0.6422  0.2403  0.0905
22362SOL    HW171933   4.963   9.959   1.890 -0.4598 -0.4172  0.3777
22362SOL    HW271934   5.105   9.985   1.843 -0.4593 -0.3383  0.4205
22363SOL     OW71935   7.238   1.254   3.013  0.3853 -0.2919 -0.0248
22363SOL    HW171936   7.206   1.323   3.071 -0.5457 -0.6142 -0.1491
22363SOL    HW271937   7.167   1.190   3.011  1.5345 -1.6155  0.6752
22364SOL     OW71938   8.140   0.129   9.065  0.4031  0.1169  0.0654
22364SOL    HW171939   8.064   0.071   9.055 -0.0078  0.8322 -0.9997
22364SOL    HW271940   8.110   0.199   9.122 -0.0034  0.8706 -1.0772
22365SOL     OW71941   7.249   8.347   0.386 -0.1373 -0.3787  0.4850
22365SOL    HW171942   7.227   8.374   0.297  0.9482  0.6710  0.5268
22365SOL    HW271943   7.332   8.300   0.377  0.2218  0.1475  0.9950
22366SOL     OW71944   6.616   0.597   1.240  0.1511 -0.7962  0.7099
22366SOL    HW171945   6.702   0.619   1.275 -0.3700 -0.1334  1.5916
22366SOL    HW271946   6.632   0.523   1.181  1.3101 -0.7107  0.9137
22367SOL     OW71947   5.256   0.357   9.773 -0.0222 -0.8353  0.1262
22367SOL    HW171948   5.221   0.439   9.739  1.3250  0.0413  0.8112
22367SOL    HW271949   5.266   0.373   9.867 -0.4846 -2.0522  0.3825
22368SOL     OW71950   7.583   8.769   2.947  0.3134 -0.5089 -0.1073
22368SOL    HW171951   7.613   8.790   2.859 -0.1486 -0.8538 -0.3421
22368SOL    HW271952   7.664   8.750   2.996  0.4751 -1.4467 -0.7429
22369SOL     OW71953   6.014   9.132   1.440  0.5745  0.3848 -0.0013
22369SOL    HW171954   6.069   9.067   1.397  1.2392  0.0574  1.3187
22369SOL    HW271955   5.992   9.194   1.371  2.0296  0.1438 -0.7020
22370SOL     OW71956   4.938   9.051   0.354 -0.3249 -0.3323  0.0380
22370SOL    HW171957   4.990   9.113   0.303  0.7858 -1.3779 -0.1117
22370SOL    HW271958   4.927   9.094   0.439  0.5507  0.0092 -0.0211
22371SOL     OW71959   6.304   9.776   0.886  0.2572 -0.1667 -0.1902
22371SOL    HW171960   6.343   9.832   0.952 -1.3137 -0.0544  0.6799
22371SOL    HW271961   6.373   9.761   0.822  0.2818  3.9556 -1.2239
22372SOL     OW71962   6.801   9.504   1.743 -0.4121 -0.6389  0.2580
22372SOL    HW171963   6.709   9.487   1.760 -0.8266  1.1494 -0.1320
22372SOL    HW271964   6.805   9.527   1.650  0.6415 -2.1190 -0.0877
22373SOL     OW71965   6.685   0.062   9.634  0.5739  0.1277  0.5100
22373SOL    HW171966   6.758   0.093   9.687 -0.3757  0.7020  1.4959
22373SOL    HW271967   6.613   0.122   9.655 -0.1568 -0.3810 -0.5146
22374SOL     OW71968   6.642   1.188   0.258 -0.3995  0.6782 -0.1703
22374SOL    HW171969   6.617   1.254   0.322  0.8521 -1.0890  2.1763
22374SOL    HW271970   6.735   1.170   0.276 -0.3429 -0.6857 -1.6993
22375SOL     OW71971   5.781   0.029   9.647  0.0098  0.5892 -0.6332
22375SOL    HW171972   5.832   0.054   9.724  0.1969  0.6778 -0.7863
22375SOL    HW271973   5.743   0.111   9.616 -2.7987  0.1121  1.3077
22376SOL     OW71974   6.240   9.320   9.702  0.0533  0.0616  0.2513
22376SOL    HW171975   6.315   9.260   9.696 -0.8861 -1.2893  1.5792
22376SOL    HW271976   6.186   9.298   9.625  1.3682  1.5772 -1.1418
22377SOL     OW71977   7.534   9.019   1.341 -0.0235 -0.3792 -0.3447
22377SOL    HW171978   7.606   9.061   1.294  0.5022 -2.4138 -1.4179
22377SOL    HW271979   7.564   8.929   1.356 -2.2475 -1.1988 -0.6111
22378SOL     OW71980   6.594   9.323   1.327 -0.1115 -0.2869 -0.6505
22378SOL    HW171981   6.596   9.377   1.248  0.9857 -1.0283 -1.1528
22378SOL    HW271982   6.590   9.233   1.294  0.1037 -0.5924  0.1376
22379SOL     OW71983   8.550   8.661   0.306 -0.3239 -0.1120  0.0377
22379SOL    HW171984   8.615   8.595   0.281 -1.0771 -1.4496  1.4989
22379SOL    HW271985   8.579   8.691   0.393 -1.2629 -0.2204  0.3934
22380SOL     OW71986   9.330   9.767   0.998 -0.1175  0.8390  0.0613
22380SOL    HW171987   9.380   9.687   0.983 -3.4794 -1.0891 -1.6614
22380SOL    HW271988   9.385   9.837   0.963  2.1379 -0.9192 -0.0301
22381SOL     OW71989   6.204   8.603   3.170  0.4959 -0.4595  0.4265
22381SOL    HW171990   6.110   8.584   3.164  0.2103  1.1548 -0.4404
22381SOL    HW271991   6.241   8.565   3.090 -0.0263  2.2229 -1.1439
22382SOL     OW71992   5.739   9.637   1.444 -0.1043 -0.1408  0.2407
22382SOL    HW171993   5.676   9.683   1.388  0.3893 -0.3996 -0.5411
22382SOL    HW271994   5.685   9.577   1.496 -0.4986 -0.4543 -0.5176
22383SOL     OW71995   6.739   9.320   1.989 -0.0002 -0.4257 -0.7291
22383SOL    HW171996   6.656   9.329   1.942 -0.8927 -0.0525  0.8723
22383SOL    HW271997   6.734   9.234   2.031 -0.3461  0.3061  0.7765
22384SOL     OW71998   6.601   9.857   1.313  0.2928  0.3404  0.5115
22384SOL    HW171999   6.567   9.900   1.391 -0.4131  0.1099  0.3365
22384SOL    HW272000   6.557   9.772   1.312  1.1981 -0.1297  0.5124
22385SOL     OW72001   6.989   9.437   4.894 -0.8709  0.6836 -0.4072
22385SOL    HW172002   6.947   9.379   4.958  1.6180 -1.7480 -0.9379
22385SOL    HW272003   7.032   9.504   4.948 -3.5937  2.0368  0.2064
22386SOL     OW72004   8.232   0.698   4.931 -0.6257  0.3121  0.8302
22386SOL    HW172005   8.208   0.690   4.839 -0.1936  1.2413  0.6278
22386SOL    HW272006   8.292   0.624   4.947 -1.8258 -0.6847  0.7552
22387SOL     OW72007   5.250   8.501   3.513 -0.0896 -0.3201 -0.2736
22387SOL    HW172008   5.291   8.558   3.448  0.6560  1.0254  1.3188
22387SOL    HW272009   5.176   8.461   3.468  0.7220  0.1706 -2.0876
22388SOL     OW72010   7.731   0.829   2.539  0.1967 -0.0220  0.1997
22388SOL    HW172011   7.756   0.810   2.629 -0.1433 -0.2693  0.2460
22388SOL    HW272012   7.693   0.747   2.508 -0.7821  0.4177  0.2169
22389SOL     OW72013   4.110   9.737   3.194  0.0314  0.3378  0.2634
22389SOL    HW172014   4.080   9.825   3.216 -1.4160 -0.0415 -0.1056
22389SOL    HW272015   4.042   9.703   3.135  0.7954 -0.8597  0.0563
22390SOL     OW72016   7.906   9.760   1.275  0.8672  0.2375  0.6178
22390SOL    HW172017   7.819   9.798   1.279  0.8632  0.2342  0.5557
22390SOL    HW272018   7.906   9.705   1.197  0.2242 -1.4832  1.7976
22391SOL     OW72019   5.025   0.667   1.451  0.2207 -0.3141  0.1942
22391SOL    HW172020   5.039   0.589   1.505  2.8371 -1.0312 -1.4038
22391SOL    HW272021   5.008   0.633   1.363  2.3622  0.8601 -0.7320
22392SOL     OW72022   7.530   9.864   4.324  0.0400 -0.3506 -0.2863
22392SOL    HW172023   7.568   9.951   4.327  0.2647 -0.4680  0.3711
22392SOL    HW272024   7.436   9.879   4.315 -0.0562 -0.0105  1.0625
22393SOL     OW72025   5.852   0.188   4.306 -0.3287  0.0329 -0.4262
22393SOL    HW172026   5.773   0.143   4.335  1.3617 -2.2324  0.8998
22393SOL    HW272027   5.878   0.142   4.226  1.4288 -1.4671  0.9556
22394SOL     OW72028   6.754   9.528   2.911  0.7501  0.0325 -0.3890
22394SOL    HW172029   6.684   9.584   2.945  1.5226  0.5758  0.3368
22394SOL    HW272030   6.825   9.589   2.890  1.4532 -0.6277  0.0254
22395SOL     OW72031   6.566   9.168   2.899  0.0299  0.2366 -0.0946
22395SOL    HW172032   6.541   9.081   2.869 -1.7215  0.7636 -0.1790
22395SOL    HW272033   6.573   9.221   2.820  1.4014  0.1140 -0.0725
22396SOL     OW72034   8.053   0.249   3.407  0.2856  0.2363 -0.4143
22396SOL    HW172035   8.124   0.250   3.471 -0.6815  0.1090  0.6795
22396SOL    HW272036   8.077   0.180   3.346  1.0594  0.1258  0.0075
22397SOL     OW72037   7.644   7.703   2.341  0.1173  0.1994  0.3838
22397SOL    HW172038   7.707   7.731   2.408  1.8558 -0.7837 -0.7859
22397SOL    HW272039   7.664   7.758   2.265 -0.0322 -0.5141 -0.1801
22398SOL     OW72040   6.636   8.311   3.692 -0.0374  0.0638 -0.3233
22398SOL    HW172041   6.561   8.347   3.644  2.0738  1.9601 -2.3583
22398SOL    HW272042   6.629   8.348   3.779 -0.6634  1.4367 -0.9392
22399SOL     OW72043   7.450   9.963   2.171 -0.0139  0.1411  0.0264
22399SOL    HW172044   7.508   9.919   2.233  0.2152  1.2901  0.6630
22399SOL    HW272045   7.479   9.933   2.085 -1.1348 -2.4369  0.5027
22400SOL     OW72046   6.843   7.821   2.999  0.1216 -0.0831  0.8198
22400SOL    HW172047   6.791   7.759   3.050  1.4869 -1.7119  0.2714
22400SOL    HW272048   6.786   7.844   2.925 -0.4502 -0.5869  1.0950
22401SOL     OW72049   6.820   9.187   0.885 -0.0855 -0.2818 -0.3603
22401SOL    HW172050   6.731   9.217   0.903  0.1998 -0.6034  1.6678
22401SOL    HW272051   6.871   9.268   0.878 -0.3226 -0.1370 -0.4220
22402SOL     OW72052   7.126   8.828   1.880  0.0094 -0.3055  0.1262
22402SOL    HW172053   7.102   8.756   1.822  1.7376 -1.2961  0.6305
22402SOL    HW272054   7.148   8.900   1.820 -0.4343 -0.6078 -0.4040
22403SOL     OW72055   6.966   9.107   2.900  0.1102  0.2458  0.0791
22403SOL    HW172056   6.905   9.169   2.939 -1.0348 -1.0876  0.4572
22403SOL    HW272057   7.032   9.091   2.968  0.9559  1.7412 -0.3574
22404SOL     OW72058   6.529   0.388   2.482  0.2209 -0.2386  0.7957
22404SOL    HW172059   6.456   0.349   2.531  0.9698 -0.4348  1.7818
22404SOL    HW272060   6.605   0.373   2.538  0.9089  0.5499  0.0768
22405SOL     OW72061   3.644   0.375   1.977  0.1939  0.2807 -0.1925
22405SOL    HW172062   3.724   0.354   1.928 -0.3625  1.1229 -1.5046
22405SOL    HW272063   3.672   0.384   2.068  1.1413 -2.0135 -0.2276
22406SOL     OW72064   6.842   9.023   2.658 -0.6081  0.4768 -0.1471
22406SOL    HW172065   6.926   8.995   2.622  0.0821  2.8175 -0.4259
22406SOL    HW272066   6.860   9.036   2.752 -0.3716  2.0370 -0.4048
22407SOL     OW72067   6.581   8.342   2.763  0.5560  0.4483 -0.4070
22407SOL    HW172068   6.513   8.313   2.823 -0.7520  1.4751 -1.3591
22407SOL    HW272069   6.659   8.352   2.818 -0.3678  0.4097  0.9271
22408SOL     OW72070   7.081   8.803   2.809 -0.0410  0.1138 -0.7377
22408SOL    HW172071   7.057   8.894   2.790  0.3463  0.7071  1.4767
22408SOL    HW272072   7.106   8.766   2.724  0.5802  2.3112 -1.5362
22409SOL     OW72073   4.642   8.801   1.320 -0.2865 -0.3320  0.0972
22409SOL    HW172074   4.642   8.774   1.228 -0.3785 -3.8890  1.0802
22409SOL    HW272075   4.550   8.818   1.339 -0.3619 -0.3213 -0.2654
22410SOL     OW72076   6.277   0.726   4.819 -0.0031  0.9258  0.2123
22410SOL    HW172077   6.355   0.705   4.870  0.0684  2.6448  0.8615
22410SOL    HW272078   6.226   0.783   4.877 -0.7187  1.5525 -1.0124
22411SOL     OW72079   4.428   9.121   1.640 -0.1078  0.0187  0.1544
22411SOL    HW172080   4.391   9.145   1.724  0.7099  1.0435  0.2348
22411SOL    HW272081   4.427   9.202   1.589 -0.8631 -0.6569 -0.9223
22412SOL     OW72082   7.634   8.508   1.858 -0.8007 -0.1821 -0.3445
22412SOL    HW172083   7.683   8.516   1.777 -0.7683 -1.0255 -0.4122
22412SOL    HW272084   7.618   8.598   1.886 -0.0091  0.0993 -0.8006
22413SOL     OW72085   5.888   9.309   3.337 -0.0591 -0.5406  0.2138
22413SOL    HW172086   5.859   9.218   3.336 -1.1406 -0.2028 -0.5912
22413SOL    HW272087   5.815   9.357   3.377  0.9005 -0.1445  1.5392
22414SOL     OW72088   7.190   9.506   2.515  0.0589  0.3113  0.1026
22414SOL    HW172089   7.249   9.556   2.571 -0.4471 -0.2764  1.1631
22414SOL    HW272090   7.121   9.568   2.492  0.2759  0.5537  0.0996
22415SOL     OW72091   5.819   0.731   1.912 -0.0136 -0.3417  0.2614
22415SOL    HW172092   5.783   0.812   1.876  3.3185  2.4178  2.7902
22415SOL    HW272093   5.884   0.704   1.847  0.2271  0.1077  0.3074
22416SOL     OW72094   7.350   1.819   2.547 -0.2394 -0.0300  0.4043
22416SOL    HW172095   7.432   1.775   2.526 -0.3116  0.5995 -1.2056
22416SOL    HW272096   7.356   1.904   2.505 -1.2005  0.5130  1.3226
22417SOL     OW72097   5.849   0.167   1.947  0.4877  0.2315 -0.4785
22417SOL    HW172098   5.847   0.174   2.043  0.4090  0.5418 -0.5001
22417SOL    HW272099   5.804   0.086   1.928  1.3124 -0.2989 -0.2058
22418SOL     OW72100   7.492   0.824   4.797 -0.2623  0.8779 -0.1121
22418SOL    HW172101   7.447   0.743   4.820 -0.1685  0.9489  0.3243
22418SOL    HW272102   7.573   0.822   4.848  0.4199  0.5596 -1.2003
22419SOL     OW72103   6.295   9.178   4.457  0.1626  0.2624  0.2203
22419SOL    HW172104   6.248   9.107   4.414  0.0941  0.5233 -0.1476
22419SOL    HW272105   6.352   9.214   4.388  0.0635  0.6760  0.3498
22420SOL     OW72106   7.544   0.615   2.761 -0.3593  0.0287 -0.0224
22420SOL    HW172107   7.516   0.701   2.729 -1.5145  0.3828  1.8633
22420SOL    HW272108   7.494   0.553   2.709  1.9119  0.3737 -2.7771
22421SOL     OW72109   4.207   7.779   3.845  0.3829  0.4400  0.3755
22421SOL    HW172110   4.141   7.711   3.832 -0.3724  0.9928  1.3151
22421SOL    HW272111   4.158   7.856   3.874  1.5889  0.3893  2.6601
22422SOL     OW72112   6.807   9.953   1.759 -0.2039  0.4517 -0.2067
22422SOL    HW172113   6.817  10.007   1.838 -1.2325 -0.8370  0.8323
22422SOL    HW272114   6.825   9.864   1.789  1.3598  0.1828 -1.8795
22423SOL     OW72115   6.136   0.331   2.871 -0.5078  0.0077  0.0677
22423SOL    HW172116   6.130   0.423   2.897  0.0675  0.0968 -0.1036
22423SOL    HW272117   6.075   0.285   2.929 -0.3587  0.4131  0.5484
22424SOL     OW72118   6.439   9.995   2.600 -0.4019  0.1335 -0.0260
22424SOL    HW172119   6.405  10.082   2.620 -0.6139 -0.2746  1.4335
22424SOL    HW272120   6.509   9.981   2.663 -1.0868 -1.1914  0.4583
22425SOL     OW72121   6.014   9.381   1.322  0.0028 -0.4147 -0.0602
22425SOL    HW172122   6.028   9.447   1.389 -1.6481  0.5537 -0.6424
22425SOL    HW272123   5.922   9.391   1.296 -0.0495 -2.3700 -0.7593
22426SOL     OW72124   5.695   9.480   2.456  0.9460  0.5440 -0.4575
22426SOL    HW172125   5.642   9.441   2.386  0.6147 -1.5080  0.8994
22426SOL    HW272126   5.781   9.493   2.416  0.4671  0.3921 -1.5604
22427SOL     OW72127   4.841   3.086   2.820 -0.4944  0.4626  0.4435
22427SOL    HW172128   4.921   3.122   2.858 -0.5288  0.8547  0.1579
22427SOL    HW272129   4.854   3.093   2.726  0.8803 -3.4039  0.2941
22428SOL     OW72130   9.185   0.765   2.602 -0.4732 -0.7059 -0.1620
22428SOL    HW172131   9.196   0.699   2.534  2.5615  1.3124 -1.7780
22428SOL    HW272132   9.259   0.749   2.662  0.0446  0.9014 -0.3442
22429SOL     OW72133   4.602   8.894   1.639 -0.5719 -0.1282 -0.6159
22429SOL    HW172134   4.661   8.921   1.568 -0.9399  0.1684 -0.8081
22429SOL    HW272135   4.526   8.951   1.631  0.7719  2.1385  2.0834
22430SOL     OW72136   5.730   9.016   3.520  0.1897  0.0525 -0.1797
22430SOL    HW172137   5.822   9.043   3.521  0.2807 -0.3126  1.3375
22430SOL    HW272138   5.720   8.960   3.597 -1.1040 -0.5911 -0.7998
22431SOL     OW72139   6.156   6.337   2.861 -0.6070 -0.2262  0.1815
22431SOL    HW172140   6.242   6.366   2.892 -0.3875 -2.0323  1.3107
22431SOL    HW272141   6.100   6.340   2.939 -0.3123 -3.7836  0.6154
22432SOL     OW72142   7.356   0.739   2.303  0.7885  0.0786 -0.2915
22432SOL    HW172143   7.298   0.804   2.343  1.8738  0.0001  1.4494
22432SOL    HW272144   7.310   0.711   2.225  0.1742  2.7962 -0.9685
22433SOL     OW72145   8.554   1.371   2.973 -0.1809 -0.0066  0.1824
22433SOL    HW172146   8.627   1.428   2.997 -0.3508  0.4450 -0.3520
22433SOL    HW272147   8.529   1.401   2.886  0.1576 -1.3454 -0.3858
22434SOL     OW72148   6.856   9.977   3.891 -0.3795 -0.2430  0.1365
22434SOL    HW172149   6.835  10.037   3.819 -0.7750  0.7102  1.0309
22434SOL    HW272150   6.883  10.035   3.963  2.3987 -1.2792  0.0098
22435SOL     OW72151   7.510   9.732   4.583  0.2581  0.4172  0.5160
22435SOL    HW172152   7.524   9.756   4.491 -0.1250  1.7068  0.7856
22435SOL    HW272153   7.590   9.761   4.627 -1.1497  3.4134  1.2415
22436SOL     OW72154   5.587   0.146   1.839  0.1837  0.2896  0.1399
22436SOL    HW172155   5.592   0.136   1.934  1.0985  0.0571  0.0698
22436SOL    HW272156   5.593   0.240   1.824  1.2615  0.2460  0.2478
22437SOL     OW72157   7.527   0.913   2.083 -0.5144  0.1109  0.2857
22437SOL    HW172158   7.610   0.938   2.123 -0.1936 -0.3875 -0.0543
22437SOL    HW272159   7.509   0.826   2.118  1.5575 -1.8736 -3.2605
22438SOL     OW72160   7.828   8.132   3.759 -0.0458 -0.2528 -0.0315
22438SOL    HW172161   7.744   8.170   3.735 -0.7256 -0.9497  1.2282
22438SOL    HW272162   7.878   8.205   3.796 -1.6526 -0.7316  3.1578
22439SOL     OW72163   7.216   8.407   1.924  0.1490  0.2717 -0.6438
22439SOL    HW172164   7.297   8.386   1.971  0.5295  1.0137 -0.9643
22439SOL    HW272165   7.181   8.322   1.897 -0.1468 -0.1829  1.0917
22440SOL     OW72166   5.332   1.174   0.432 -0.0952  0.2057 -0.2743
22440SOL    HW172167   5.340   1.092   0.481  2.1946  0.4043 -0.2364
22440SOL    HW272168   5.356   1.150   0.342  1.1112  0.9295 -0.1537
22441SOL     OW72169   5.695   8.346   0.352  0.3629  0.3074 -0.4637
22441SOL    HW172170   5.730   8.276   0.407  0.4222  0.1343 -0.7249
22441SOL    HW272171   5.619   8.307   0.309 -1.2147  1.1890  1.4396
22442SOL     OW72172   6.258   8.725   4.597  0.1547 -0.5587  0.1054
22442SOL    HW172173   6.282   8.635   4.620  0.3823 -0.3974  0.5120
22442SOL    HW272174   6.174   8.717   4.552  0.6825 -1.0716 -0.8003
22443SOL     OW72175   5.767   8.571   2.190 -0.4303 -0.3336  0.6671
22443SOL    HW172176   5.798   8.628   2.261 -0.6245  1.0726 -0.3603
22443SOL    HW272177   5.689   8.529   2.226  1.7974 -2.8599  2.7843
22444SOL     OW72178   5.949   9.684   2.946 -0.5429  0.1541 -0.0182
22444SOL    HW172179   5.960   9.596   2.910 -0.6322  0.2872 -0.3774
22444SOL    HW272180   5.928   9.671   3.038  1.0881 -0.1679  0.3255
22445SOL     OW72181   6.627   2.695   2.020 -0.3101  0.5153 -0.0040
22445SOL    HW172182   6.625   2.600   2.010  2.0147  0.4143  0.1650
22445SOL    HW272183   6.596   2.729   1.936  3.2057 -0.4146 -1.7722
22446SOL     OW72184   7.720   9.313   2.723  0.3025  0.4729  0.3140
22446SOL    HW172185   7.743   9.405   2.729  0.1738  0.5682 -0.5841
22446SOL    HW272186   7.803   9.267   2.737  0.4124  0.7315  0.5118
22447SOL     OW72187   7.402   0.599   3.816 -0.1567 -0.0879  0.1941
22447SOL    HW172188   7.453   0.679   3.798 -1.5457  0.4660 -1.3709
22447SOL    HW272189   7.436   0.535   3.755  0.0296 -0.3150  0.5330
22448SOL     OW72190   5.403   9.920   2.160 -0.1820 -0.0443  0.3747
22448SOL    HW172191   5.380   9.950   2.248  1.7193  0.4655  0.7178
22448SOL    HW272192   5.496   9.940   2.151 -0.4498  0.3534 -1.9361
22449SOL     OW72193   7.910   1.149   3.805 -0.0247  0.8298 -0.3196
22449SOL    HW172194   7.906   1.240   3.835 -1.3489  0.2236  1.4251
22449SOL    HW272195   7.831   1.139   3.752 -2.3033 -0.4950  3.1272
22450SOL     OW72196   5.115   7.879   1.701 -0.3553  0.8495 -0.3962
22450SOL    HW172197   5.069   7.963   1.692 -2.2583 -0.1293 -0.0747
22450SOL    HW272198   5.164   7.870   1.619 -1.8747  1.2563 -1.3754
22451SOL     OW72199   7.075   8.835   2.293  0.3916  0.5233 -0.0680
22451SOL    HW172200   7.130   8.759   2.305  0.1660  0.6132  1.6444
22451SOL    HW272201   7.095   8.892   2.367 -2.0641  0.5001  0.6629
22452SOL     OW72202   8.121   0.582   2.101 -0.9563 -0.2857 -0.3306
22452SOL    HW172203   8.066   0.516   2.059 -1.8594 -0.1935  0.6868
22452SOL    HW272204   8.206   0.541   2.109 -1.2177 -0.9182 -0.7166
22453SOL     OW72205   7.299   0.935   5.178  0.0919 -0.0010 -0.0456
22453SOL    HW172206   7.270   1.025   5.193 -0.7410 -0.2799  0.0377
22453SOL    HW272207   7.296   0.925   5.082  0.8361  0.2704 -0.1004
22454SOL     OW72208   5.258   8.921   5.749  0.1810 -0.2228 -0.0118
22454SOL    HW172209   5.266   8.949   5.658 -2.6597  0.1219 -0.2084
22454SOL    HW272210   5.285   8.829   5.748  0.8663 -0.0185 -1.0693
22455SOL     OW72211   6.347   0.241   4.659  0.6759  0.5281  0.1617
22455SOL    HW172212   6.407   0.184   4.706  2.3296  1.1608 -1.1343
22455SOL    HW272213   6.330   0.195   4.577 -0.0455  0.6794  0.2264
22456SOL     OW72214   6.550   0.420   4.478  0.0210  1.2278 -0.1259
22456SOL    HW172215   6.483   0.460   4.424 -1.4109  0.6470  1.1702
22456SOL    HW272216   6.510   0.414   4.565  1.2500 -0.3490  0.3569
22457SOL     OW72217   7.551   9.352   3.108  0.0805  0.1573 -0.1232
22457SOL    HW172218   7.639   9.372   3.139  0.3922  0.4772 -1.1826
22457SOL    HW272219   7.502   9.328   3.187  1.4393 -1.2304  0.3228
22458SOL     OW72220   7.182   9.334   4.199 -0.3712  0.7273  0.3907
22458SOL    HW172221   7.202   9.384   4.278  0.9321 -0.4814  0.8682
22458SOL    HW272222   7.206   9.244   4.222 -1.1290  0.1648 -0.9782
22459SOL     OW72223   7.014   9.932   4.871 -0.3678  0.0626  1.1951
22459SOL    HW172224   7.082   9.984   4.914  0.8125 -0.2429 -0.2354
22459SOL    HW272225   6.937   9.989   4.869  0.5493  1.2980  0.7519
22460SOL     OW72226   9.297   0.297   4.539  0.3497 -0.1048 -0.3046
22460SOL    HW172227   9.310   0.223   4.598 -0.4264 -0.9744 -1.1886
22460SOL    HW272228   9.238   0.356   4.586  0.4254 -0.3769  0.1320
22461SOL     OW72229   5.987   0.540   5.742 -0.1758 -0.0208 -0.1379
22461SOL    HW172230   5.935   0.603   5.692  0.7440 -0.0951 -1.2074
22461SOL    HW272231   5.955   0.454   5.713 -0.2617 -0.0554  0.0612
22462SOL     OW72232   4.784   9.771   4.528 -0.7327  0.6700  0.3887
22462SOL    HW172233   4.797   9.728   4.612  0.1840  2.2628  1.0675
22462SOL    HW272234   4.837   9.719   4.467 -1.1757 -0.3150  0.8185
22463SOL     OW72235   7.837   9.489   5.582 -0.4055 -0.0859 -0.1840
22463SOL    HW172236   7.805   9.402   5.559  0.3322 -0.2730 -0.5291
22463SOL    HW272237   7.918   9.472   5.631 -0.2578  0.4010 -0.2584
22464SOL     OW72238   5.611   0.837   4.025 -0.1678 -0.8616 -0.2885
22464SOL    HW172239   5.649   0.774   4.087  0.6397  1.1701  1.3340
22464SOL    HW272240   5.650   0.814   3.941  2.4203 -0.6883  0.8219
22465SOL     OW72241   7.554   0.957   2.914  0.1354 -0.1789  0.7626
22465SOL    HW172242   7.643   0.974   2.945 -0.0723 -1.2560  2.0096
22465SOL    HW272243   7.558   0.970   2.819  1.5243  0.1863  0.8682
22466SOL     OW72244   5.494   8.920   5.320 -0.0215  0.0313  0.1335
22466SOL    HW172245   5.430   8.980   5.359 -0.7100 -1.0719  0.7458
22466SOL    HW272246   5.554   8.901   5.392  0.2980  0.1322 -0.1090
22467SOL     OW72247   6.905   8.753   4.581  0.3941 -0.0710  0.3337
22467SOL    HW172248   6.900   8.834   4.632  0.6446  1.2774 -1.7007
22467SOL    HW272249   6.844   8.768   4.508  0.6640 -1.6089 -0.2086
22468SOL     OW72250   8.113   0.444   5.715  0.2729 -0.0244 -0.7372
22468SOL    HW172251   8.131   0.447   5.809  1.5398  1.5957 -1.0157
22468SOL    HW272252   8.199   0.446   5.674 -0.3165  0.7373 -1.9675
22469SOL     OW72253   5.432   9.884   6.181  0.3743  0.3859 -0.6776
22469SOL    HW172254   5.351   9.936   6.175 -0.0901 -0.2156  0.2696
22469SOL    HW272255   5.412   9.804   6.133  1.2902  1.2854 -2.6564
22470SOL     OW72256   7.539   0.334   5.296 -0.5853 -0.0120  0.1463
22470SOL    HW172257   7.569   0.383   5.373  0.7563 -0.2971 -0.1879
22470SOL    HW272258   7.494   0.398   5.243  2.2202  1.1797 -0.8775
22471SOL     OW72259   6.435   1.237   5.223 -0.4437  0.1515 -0.1764
22471SOL    HW172260   6.500   1.175   5.257 -0.7614 -0.0333  0.1010
22471SOL    HW272261   6.387   1.266   5.301 -2.2637 -1.5181 -0.6502
22472SOL     OW72262   5.934   9.291   5.525  0.4120  0.3612 -0.6830
22472SOL    HW172263   5.976   9.262   5.445  0.1889 -0.8929 -0.3600
22472SOL    HW272264   5.924   9.386   5.515 -0.6218  0.0587 -2.5974
22473SOL     OW72265   8.185   9.439   4.732 -0.0947 -0.2967 -0.1254
22473SOL    HW172266   8.192   9.502   4.660  0.7875  0.2322  0.4234
22473SOL    HW272267   8.094   9.408   4.727 -0.6506  1.3042 -0.1462
22474SOL     OW72268   5.570   0.652   3.503 -0.2913  0.4850 -0.3082
22474SOL    HW172269   5.514   0.730   3.503  0.9979  1.4273  0.3905
22474SOL    HW272270   5.532   0.596   3.435 -1.7066  1.3716 -0.2853
22475SOL     OW72271   6.508   8.790   4.084  0.2134  0.1046 -0.1479
22475SOL    HW172272   6.534   8.698   4.097 -2.0040 -0.5310 -0.0066
22475SOL    HW272273   6.497   8.799   3.989 -0.6355 -0.1033 -0.0778
22476SOL     OW72274   7.246   8.785   3.250  0.0124 -0.8094 -0.3960
22476SOL    HW172275   7.329   8.750   3.284  0.5170  1.8500  1.2419
22476SOL    HW272276   7.271   8.829   3.169  0.1876 -0.1931 -0.0124
22477SOL     OW72277   7.253   9.949   3.477 -0.0525  0.5967 -0.3982
22477SOL    HW172278   7.337   9.914   3.508 -0.5251 -0.4376 -0.2957
22477SOL    HW272279   7.278  10.011   3.408  0.7709 -0.1745 -0.8125
22478SOL     OW72280   6.557   0.078   3.353  0.6237  0.3251  0.0292
22478SOL    HW172281   6.624   0.024   3.395  1.0316 -0.0275 -1.0732
22478SOL    HW272282   6.540   0.035   3.269 -1.3935  0.0728  0.5216
22479SOL     OW72283   6.196   9.419   3.614 -0.1518 -0.5531 -1.0411
22479SOL    HW172284   6.183   9.502   3.567  1.6919 -0.4624 -1.4310
22479SOL    HW272285   6.153   9.354   3.559 -0.3364 -0.0662 -1.4860
22480SOL     OW72286   7.248   8.287   4.385  0.0922 -0.0074 -0.2036
22480SOL    HW172287   7.322   8.308   4.328 -1.1080  1.9848 -1.0890
22480SOL    HW272288   7.283   8.290   4.474  1.2879 -0.1173 -0.6694
22481SOL     OW72289   8.423   0.505   4.867 -0.1669  0.8327  0.3477
22481SOL    HW172290   8.519   0.497   4.870 -0.2610 -0.8685 -0.5044
22481SOL    HW272291   8.403   0.503   4.773 -1.0999  0.4802  0.5584
22482SOL     OW72292   7.494   8.080   3.465  0.2794  0.4255 -0.4133
22482SOL    HW172293   7.432   8.092   3.537 -0.1941 -1.4955 -0.4735
22482SOL    HW272294   7.555   8.154   3.473 -0.5720  0.9783  1.1231
22483SOL     OW72295   7.049   1.436   5.282  0.1527 -0.0177  0.4803
22483SOL    HW172296   7.111   1.497   5.241 -0.8940 -0.8114 -2.3903
22483SOL    HW272297   7.100   1.355   5.294  0.3339  0.0725  0.3202
22484SOL     OW72298   7.276   0.125   3.288  0.1845  0.0923  0.2484
22484SOL    HW172299   7.226   0.126   3.206  0.0993  0.9481  0.3023
22484SOL    HW272300   7.273   0.216   3.318  0.7438 -0.0997  0.8816
22485SOL     OW72301   5.809   0.482   4.330 -0.2187 -0.0805 -0.2412
22485SOL    HW172302   5.816   0.386   4.330 -0.3029 -0.0942  1.3962
22485SOL    HW272303   5.831   0.508   4.419 -1.9200  1.3070 -0.2053
22486SOL     OW72304   7.335   0.184   4.697 -0.4828  0.7134  0.0014
22486SOL    HW172305   7.291   0.108   4.660  1.5653  0.7316 -2.6064
22486SOL    HW272306   7.374   0.153   4.778 -4.3745  0.4587  1.8656
22487SOL     OW72307   6.915   8.838   3.289  0.2676 -0.2284  0.1798
22487SOL    HW172308   6.845   8.874   3.234  0.5438  1.0641  0.6415
22487SOL    HW272309   6.981   8.908   3.291  0.1612 -0.1526  2.3285
22488SOL     OW72310   6.687   0.273   4.092  0.2210 -0.0061  0.1354
22488SOL    HW172311   6.640   0.268   4.175  0.8245  0.6368  0.5239
22488SOL    HW272312   6.774   0.239   4.111  0.3120 -0.0071 -0.2686
22489SOL     OW72313   7.100   9.692   4.965  0.0655  0.0118 -0.4104
22489SOL    HW172314   7.173   9.695   4.903  1.9477 -0.1653  1.7587
22489SOL    HW272315   7.034   9.749   4.926  1.8258  1.1447 -1.8165
22490SOL     OW72316   4.917   9.486   4.311  0.0247  0.1141 -0.1117
22490SOL    HW172317   4.846   9.437   4.353 -2.1339  1.8553 -1.5916
22490SOL    HW272318   4.991   9.479   4.371 -0.6809 -3.6575  0.4203
22491SOL     OW72319   8.335   0.581   4.423 -0.4990 -0.1669 -0.9386
22491SOL    HW172320   8.335   0.658   4.480 -1.5985 -0.2795 -0.7777
22491SOL    HW272321   8.422   0.581   4.383 -0.8218  1.7142 -1.6790
22492SOL     OW72322   7.155   9.678   5.255  0.1965  0.3338  0.3817
22492SOL    HW172323   7.144   9.668   5.160  1.5011 -0.6730  0.3313
22492SOL    HW272324   7.073   9.645   5.292 -0.0227  0.0449 -0.3540
22493SOL     OW72325   6.325   1.250   2.812 -0.0129 -1.1813 -0.0924
22493SOL    HW172326   6.404   1.295   2.841 -0.7462  0.0281  0.0999
22493SOL    HW272327   6.320   1.271   2.718 -0.1334 -1.2011 -0.0897
22494SOL     OW72328   7.240   0.660   2.842 -0.1676 -0.0924 -0.5453
22494SOL    HW172329   7.298   0.682   2.769  1.1246 -0.6572  0.2851
22494SOL    HW272330   7.290   0.596   2.894 -1.8914 -1.2563 -0.2830
22495SOL     OW72331   6.147   9.884   4.288  0.1245 -0.5032  0.3493
22495SOL    HW172332   6.099   9.817   4.240 -1.0762  1.1971 -0.8676
22495SOL    HW272333   6.229   9.894   4.239  0.2825 -1.0051  0.5008
22496SOL     OW72334   7.497   2.004   5.663  0.5382 -0.2346  0.1857
22496SOL    HW172335   7.543   1.988   5.746  2.6292 -1.1189 -1.0784
22496SOL    HW272336   7.525   2.092   5.637  1.2911 -0.6367 -0.4110
22497SOL     OW72337   5.732   9.233   4.879  0.2853 -0.5643  0.3571
22497SOL    HW172338   5.802   9.299   4.878  0.5637 -0.8655 -0.6287
22497SOL    HW272339   5.675   9.258   4.806 -0.4678 -0.5144  0.9541
22498SOL     OW72340   6.917   9.058   4.291 -0.1445 -0.0813 -0.1979
22498SOL    HW172341   6.884   8.969   4.275 -1.2243 -0.1467  2.1765
22498SOL    HW272342   6.999   9.045   4.339  0.3268  0.1848 -0.9289
22499SOL     OW72343   5.853   8.081   6.542 -0.1922 -0.1366  0.5044
22499SOL    HW172344   5.866   8.105   6.450  2.0670 -0.6243  0.6678
22499SOL    HW272345   5.792   8.146   6.576 -0.4610  0.4920 -1.1498
22500SOL     OW72346   5.095   1.337   2.805 -0.0912  0.2372 -0.0008
22500SOL    HW172347   5.148   1.262   2.779  1.4588  1.1506  0.4394
22500SOL    HW272348   5.047   1.308   2.883  0.8395 -0.1483  0.4304
22501SOL     OW72349   7.177   0.558   3.640 -0.6427 -0.6773 -0.5777
22501SOL    HW172350   7.266   0.577   3.670  0.0616 -0.6938 -2.6179
22501SOL    HW272351   7.123   0.624   3.683  0.4737 -0.1070 -0.0263
22502SOL     OW72352   7.127   0.031   5.933  0.1566 -0.4007 -0.2833
22502SOL    HW172353   7.033   0.024   5.947 -0.1837  0.2725 -2.1241
22502SOL    HW272354   7.154  -0.057   5.907 -0.0703 -0.4649 -0.3096
22503SOL     OW72355   8.159   1.841   4.569  0.0180 -0.6981 -0.0991
22503SOL    HW172356   8.210   1.776   4.521 -0.2943 -0.9069 -0.1473
22503SOL    HW272357   8.156   1.809   4.659 -1.1340 -1.3557 -0.3667
22504SOL     OW72358   6.009   9.561   5.363  0.2469 -0.2456  0.0034
22504SOL    HW172359   5.934   9.620   5.358 -0.3888 -0.8301  2.0843
22504SOL    HW272360   6.045   9.560   5.275 -1.5362  0.9038 -0.7607
22505SOL     OW72361   5.755   8.872   3.772 -0.5199 -0.0370 -0.6851
22505SOL    HW172362   5.813   8.796   3.779  0.0158  0.4073 -0.2808
22505SOL    HW272363   5.808   8.946   3.802 -0.8051  0.6141 -1.7496
22506SOL     OW72364   6.321   0.045   4.476  0.1117  0.4517 -0.4963
22506SOL    HW172365   6.395  -0.004   4.511  1.2719  1.8254 -0.9658
22506SOL    HW272366   6.269  -0.020   4.430  1.1872 -0.4939 -0.4017
22507SOL     OW72367   8.126   1.454   6.414 -0.5373 -0.2780 -0.0484
22507SOL    HW172368   8.169   1.385   6.364 -0.5687 -0.2108 -0.1688
22507SOL    HW272369   8.118   1.527   6.352 -3.2585 -1.1976 -0.8558
22508SOL     OW72370   6.731   9.786   4.564  0.2035  0.0738  0.4061
22508SOL    HW172371   6.798   9.802   4.631  1.1656 -0.4104 -0.4290
22508SOL    HW272372   6.710   9.693   4.573  0.4436 -0.0271 -0.0578
22509SOL     OW72373   6.964   0.416   3.302 -0.2618 -0.2330 -0.4119
22509SOL    HW172374   6.928   0.341   3.254 -1.9000 -0.1778  0.6701
22509SOL    HW272375   7.058   0.410   3.290 -0.4218 -2.1435 -0.8332
22510SOL     OW72376   4.648   9.192   5.224  0.2770 -0.1775 -0.1288
22510SOL    HW172377   4.742   9.209   5.215  0.0561  0.6055 -1.0683
22510SOL    HW272378   4.607   9.277   5.206 -0.5886 -0.4189  0.6959
22511SOL     OW72379   5.463   8.934   6.262  0.4504 -0.3563  0.0439
22511SOL    HW172380   5.448   8.954   6.354 -0.0656  3.8440 -0.8435
22511SOL    HW272381   5.379   8.953   6.219  1.4917  0.5771 -1.6609
22512SOL     OW72382   7.129   1.345   3.564 -0.2248  0.0686  0.3146
22512SOL    HW172383   7.192   1.274   3.550  0.6117  0.5906  1.3715
22512SOL    HW272384   7.044   1.301   3.567  0.2526 -0.8458  0.6269
22513SOL     OW72385   5.868   9.338   5.158  0.0747 -0.6697  0.0833
22513SOL    HW172386   5.904   9.425   5.141  0.7837 -0.2773  3.3475
22513SOL    HW272387   5.943   9.287   5.189 -0.7946 -1.8195  0.3046
22514SOL     OW72388   5.541   9.623   3.956 -0.9273 -0.2664  0.5588
22514SOL    HW172389   5.537   9.595   3.864 -2.8420 -0.3401  0.6297
22514SOL    HW272390   5.598   9.699   3.956  0.9066 -1.5978 -0.3327
22515SOL     OW72391   8.540   8.440   4.483  0.3196  0.4193  0.1273
22515SOL    HW172392   8.529   8.393   4.401  1.2024 -0.8276  0.7079
22515SOL    HW272393   8.589   8.380   4.539 -1.5466  0.6885  2.0792
22516SOL     OW72394   5.887   9.462   4.849 -0.2262 -0.0409  0.1417
22516SOL    HW172395   5.822   9.527   4.822  1.2453  0.3616 -2.5756
22516SOL    HW272396   5.923   9.497   4.931 -0.7398  1.6782 -0.3442
22517SOL     OW72397   6.729   8.935   4.454 -0.1316  0.0414  0.3227
22517SOL    HW172398   6.793   8.982   4.402  2.3857 -1.4181  1.9964
22517SOL    HW272399   6.725   8.983   4.537 -1.6469  0.4394  0.0449
22518SOL     OW72400   5.913   1.176   4.086  0.3264  0.0339  0.6481
22518SOL    HW172401   5.966   1.106   4.125  1.7152  0.4971 -0.4050
22518SOL    HW272402   5.964   1.206   4.011 -1.4185  0.5036 -0.3715
22519SOL     OW72403   8.808   0.089   6.228  0.7270  0.3418  0.1561
22519SOL    HW172404   8.869   0.064   6.159  2.1625 -0.0119  1.5316
22519SOL    HW272405   8.791   0.182   6.212  1.0935  0.2823 -0.6180
22520SOL     OW72406   6.784   0.123   4.863  0.3940  0.3842 -0.4370
22520SOL    HW172407   6.790   0.167   4.948  1.4521 -0.3855 -0.0991
22520SOL    HW272408   6.812   0.189   4.800 -0.8952  1.1214 -0.2461
22521SOL     OW72409   6.983   9.555   5.398 -0.4189  0.5349 -0.0227
22521SOL    HW172410   6.970   9.477   5.451  0.8517 -0.6614 -1.4012
22521SOL    HW272411   6.911   9.554   5.335  0.9712 -0.9096 -1.6242
22522SOL     OW72412   4.507   8.200   6.104 -0.1214  0.0302  0.3683
22522SOL    HW172413   4.505   8.166   6.194 -0.9105 -1.6228 -0.2405
22522SOL    HW272414   4.417   8.226   6.087  0.0933  0.6275  0.1652
22523SOL     OW72415   6.491   9.857   6.073  0.5465  0.0191  0.0549
22523SOL    HW172416   6.581   9.876   6.046 -0.0755  1.1840 -1.2657
22523SOL    HW272417   6.488   9.762   6.084  1.3284 -0.2906 -2.2277
22524SOL     OW72418   7.349   9.588   5.427  0.1734 -0.0057 -0.4740
22524SOL    HW172419   7.312   9.500   5.435  0.6347 -0.1864 -0.2541
22524SOL    HW272420   7.290   9.635   5.369 -0.1931 -0.4000 -0.4193
22525SOL     OW72421   8.321   9.178   5.372 -0.7157  0.5565 -0.6376
22525SOL    HW172422   8.397   9.174   5.314 -2.0830 -0.1112 -2.4452
22525SOL    HW272423   8.334   9.257   5.424  0.9691  0.7008 -1.2476
22526SOL     OW72424   6.619   8.922   7.635  0.0841  0.0011  0.2325
22526SOL    HW172425   6.644   9.014   7.626 -1.0247  0.2064 -0.7561
22526SOL    HW272426   6.612   8.909   7.730  0.6077  0.8337  0.3912
22527SOL     OW72427   4.688   0.294   7.140 -0.3706  0.0814 -0.0650
22527SOL    HW172428   4.674   0.347   7.218 -0.4153 -1.7796  1.2269
22527SOL    HW272429   4.623   0.325   7.077 -0.4696  1.4545  0.6968
22528SOL     OW72430   7.464   9.217   5.587 -0.0660  0.3713  0.0996
22528SOL    HW172431   7.451   9.273   5.664 -1.4598 -1.1385  0.9731
22528SOL    HW272432   7.385   9.229   5.535  0.2603  0.3033 -0.4154
22529SOL     OW72433   6.492   8.802   7.125  0.6804 -0.0814 -0.0141
22529SOL    HW172434   6.407   8.826   7.086  1.2725 -0.7111 -1.7096
22529SOL    HW272435   6.482   8.825   7.217 -1.7987 -1.3256  0.0897
22530SOL     OW72436   5.206   0.176   8.767 -0.1590  0.5707  0.5801
22530SOL    HW172437   5.162   0.131   8.838 -0.5389  0.8876  0.5452
22530SOL    HW272438   5.157   0.257   8.755 -0.1415  0.4852 -0.0909
22531SOL     OW72439   5.389   8.828   7.431  0.2233  0.6238 -0.3824
22531SOL    HW172440   5.314   8.882   7.407 -0.2687 -0.2151 -0.7810
22531SOL    HW272441   5.363   8.786   7.513  0.7784  1.3167  0.1565
22532SOL     OW72442   7.049   0.757   7.208 -0.9854  0.0764 -0.1034
22532SOL    HW172443   7.034   0.765   7.114 -1.7959  2.8862  0.1946
22532SOL    HW272444   7.140   0.730   7.216 -0.3762  1.5456 -1.6957
22533SOL     OW72445   5.407   9.506   6.152  0.3524  0.0280  0.0769
22533SOL    HW172446   5.422   9.574   6.086  2.5161  1.3353  1.8339
22533SOL    HW272447   5.489   9.455   6.152  0.4345  0.1518  1.8628
22534SOL     OW72448   6.208   0.023   4.877 -0.3018  0.6546  0.2231
22534SOL    HW172449   6.288   0.068   4.903  0.4365 -0.5637  0.0715
22534SOL    HW272450   6.198   0.044   4.784  1.3414 -1.3777 -0.4633
22535SOL     OW72451   6.782   0.522   7.892  0.0810 -0.2412  0.0569
22535SOL    HW172452   6.828   0.501   7.811 -1.6012  1.8954 -1.5097
22535SOL    HW272453   6.822   0.465   7.958  2.0092 -1.4587 -2.0991
22536SOL     OW72454   5.649   9.401   5.367  0.3500 -0.4014  0.0507
22536SOL    HW172455   5.695   9.322   5.340  0.8791 -0.1627  0.2318
22536SOL    HW272456   5.662   9.462   5.293  2.4286  0.5078  1.1138
22537SOL     OW72457   5.517   9.378   7.132  0.6164  0.2400  0.8121
22537SOL    HW172458   5.576   9.306   7.154  0.1142 -0.4412 -0.0143
22537SOL    HW272459   5.481   9.407   7.216  2.0936  0.6482  1.3146
22538SOL     OW72460   9.179   0.522   4.953  0.0166  0.5357  0.5283
22538SOL    HW172461   9.180   0.431   4.984 -1.2886  0.3019 -0.0740
22538SOL    HW272462   9.221   0.572   5.023  0.5532 -0.4945  0.9588
22539SOL     OW72463   7.776   9.138   6.449 -0.0190  0.0099  0.7730
22539SOL    HW172464   7.820   9.190   6.382  0.9184  0.0011  1.3694
22539SOL    HW272465   7.839   9.071   6.473 -0.3873 -0.0623  1.5752
22540SOL     OW72466   6.139   8.993   7.288  0.4980  0.0826  0.7861
22540SOL    HW172467   6.168   9.040   7.367  0.3433  0.6906  0.4787
22540SOL    HW272468   6.068   9.047   7.252  1.8643  0.8320 -0.8521
22541SOL     OW72469   6.765   7.846   7.109 -0.1035  0.1136  0.5006
22541SOL    HW172470   6.715   7.863   7.029 -0.7257 -0.9581  0.6584
22541SOL    HW272471   6.830   7.916   7.112 -0.7782  0.7797 -0.3744
22542SOL     OW72472   5.062   8.084   6.088 -0.2541  0.5440  0.1759
22542SOL    HW172473   5.066   8.037   6.005 -1.6998  0.5269  0.0892
22542SOL    HW272474   4.972   8.117   6.092 -0.6195 -0.6284  2.3804
22543SOL     OW72475   6.932   0.326   5.329  0.2343 -0.1635 -0.7120
22543SOL    HW172476   6.926   0.260   5.398  2.9993  0.8985  0.6110
22543SOL    HW272477   6.863   0.388   5.349  0.7972 -0.0442  0.9319
22544SOL     OW72478   6.276   9.044   5.966 -0.0221 -0.0554  0.8961
22544SOL    HW172479   6.199   9.034   6.022 -0.2025 -1.0933  0.4793
22544SOL    HW272480   6.346   9.000   6.015 -0.3904 -1.8217 -0.0850
22545SOL     OW72481   6.595   9.774   7.357 -0.1823  0.1577  0.3160
22545SOL    HW172482   6.523   9.712   7.344 -0.0595  0.4411 -1.9343
22545SOL    HW272483   6.668   9.720   7.385 -0.6353 -0.4488  0.3493
22546SOL     OW72484   6.602   0.856   5.979  0.2975 -0.3159 -0.3007
22546SOL    HW172485   6.640   0.893   5.900 -0.1862  2.4912  0.7163
22546SOL    HW272486   6.513   0.891   5.982  0.4515  0.0049  1.6805
22547SOL     OW72487   5.491   9.790   6.418  0.0490 -0.0652 -0.5254
22547SOL    HW172488   5.576   9.824   6.446  0.4909 -1.1238 -0.5676
22547SOL    HW272489   5.479   9.827   6.330  0.2899  0.3870 -0.3721
22548SOL     OW72490   6.234   9.661   6.840  0.2844  0.7134 -0.4296
22548SOL    HW172491   6.281   9.742   6.817 -0.7099  1.2928 -0.4689
22548SOL    HW272492   6.157   9.691   6.889  0.6613 -0.3108  0.8213
22549SOL     OW72493   5.085   8.511   5.812  0.0049  0.8974  0.0127
22549SOL    HW172494   5.015   8.573   5.833  0.6265  1.7135 -0.2958
22549SOL    HW272495   5.044   8.446   5.755 -0.1751  2.1243 -1.2806
22550SOL     OW72496   7.865   0.073   6.784  0.3204 -0.1289 -0.2807
22550SOL    HW172497   7.910   0.124   6.852  0.4291 -0.1413 -0.3437
22550SOL    HW272498   7.836  -0.006   6.829  2.4351 -1.2089 -0.8098
22551SOL     OW72499   6.046   0.107   5.682  0.3180  0.3803 -0.1356
22551SOL    HW172500   6.062   0.013   5.679  0.9847  0.4843  0.0030
22551SOL    HW272501   5.966   0.116   5.733  1.1982 -0.0117  1.3474
22552SOL     OW72502   6.097   0.397   6.347  0.1112 -0.1695  0.3663
22552SOL    HW172503   6.187   0.396   6.378  0.7442 -0.8984 -1.4044
22552SOL    HW272504   6.091   0.474   6.291 -0.4258  0.0213  0.6892
22553SOL     OW72505   5.923   9.954   6.554  0.2573  0.0480 -0.3954
22553SOL    HW172506   5.968   9.989   6.631 -1.4946 -1.9360  1.6074
22553SOL    HW272507   5.835   9.990   6.560  0.7619  1.7400 -2.7918
22554SOL     OW72508   6.809   0.775   6.612  0.1131  0.2464  0.0131
22554SOL    HW172509   6.720   0.743   6.598 -0.2117  0.6887  1.0429
22554SOL    HW272510   6.864   0.711   6.567 -0.6633 -0.5560  0.1790
22555SOL     OW72511   5.644   9.104   6.088 -0.1396  0.0301  0.0997
22555SOL    HW172512   5.593   9.077   6.164  1.4159 -1.3136  0.7039
22555SOL    HW272513   5.705   9.170   6.122  1.1102 -1.1596  0.2351
22556SOL     OW72514   8.726   9.381   6.068 -0.2045 -0.1092 -0.6226
22556SOL    HW172515   8.699   9.329   5.993  1.5417 -0.5339 -0.9612
22556SOL    HW272516   8.764   9.318   6.129  1.8617  0.7271 -1.0031
22557SOL     OW72517   6.460   8.686   5.487  0.2958 -0.0942 -0.7233
22557SOL    HW172518   6.424   8.771   5.463  0.7344  0.7650  1.5715
22557SOL    HW272519   6.385   8.627   5.482 -0.9703  1.2352  1.6763
22558SOL     OW72520   5.761   8.098   5.870 -0.1077 -0.0488 -0.1761
22558SOL    HW172521   5.837   8.100   5.929 -0.8004  3.4602  0.7068
22558SOL    HW272522   5.788   8.149   5.794 -1.7892  1.9335  0.5035
22559SOL     OW72523   5.261   0.038   6.430 -0.0033 -0.9528  0.3243
22559SOL    HW172524   5.171   0.033   6.461 -0.5603  0.3738 -1.0087
22559SOL    HW272525   5.253   0.048   6.335  1.5723 -1.7032  0.1026
22560SOL     OW72526   6.712   9.949   6.621 -0.5953  0.6653 -0.4210
22560SOL    HW172527   6.708   9.869   6.568  0.1908  0.6965 -0.5243
22560SOL    HW272528   6.679   9.922   6.707 -1.1772  0.4401 -0.7112
22561SOL     OW72529   6.278   0.249   6.127 -0.2904  0.2931  0.1192
22561SOL    HW172530   6.209   0.295   6.080 -1.5430 -0.6564  0.9799
22561SOL    HW272531   6.272   0.159   6.095  1.7827  0.5797 -1.1660
22562SOL     OW72532   5.985   9.376   6.465  0.1738 -0.1653  0.1451
22562SOL    HW172533   5.996   9.332   6.381 -0.4817  2.4491 -1.3616
22562SOL    HW272534   5.914   9.438   6.451 -2.1766 -1.9376  3.6076
22563SOL     OW72535   4.971   9.610   7.972  0.2779 -0.0283  0.4577
22563SOL    HW172536   4.989   9.702   7.950  1.3544 -0.2015  0.6095
22563SOL    HW272537   5.033   9.560   7.919  0.4545 -0.6157  1.2159
22564SOL     OW72538   5.896   9.066   7.142 -0.1993  0.7136 -0.2110
22564SOL    HW172539   5.890   9.161   7.148 -1.1718  0.6257  0.2370
22564SOL    HW272540   5.817   9.034   7.186 -0.1878 -0.2838 -0.9049
22565SOL     OW72541   7.161   8.649   7.248  0.0286 -0.0687  0.3816
22565SOL    HW172542   7.145   8.737   7.281 -0.6325 -0.4119  0.9996
22565SOL    HW272543   7.237   8.618   7.297  0.5621  0.3372 -0.1854
22566SOL     OW72544   5.652   1.112   5.405 -0.6658  0.4608 -0.1674
22566SOL    HW172545   5.626   1.167   5.480 -0.1115  1.8280 -0.9537
22566SOL    HW272546   5.638   1.168   5.329  1.3872  0.0705 -0.8587
22567SOL     OW72547   4.955   9.861   7.414  0.5558 -0.0757  0.7027
22567SOL    HW172548   5.022   9.929   7.425  1.2041 -0.7347  0.8943
22567SOL    HW272549   4.994   9.783   7.453  0.2516 -0.8375 -0.4852
22568SOL     OW72550   6.077   0.264   4.446 -0.0649  0.2228  0.5938
22568SOL    HW172551   5.995   0.234   4.407  1.4524 -2.1511 -0.8371
22568SOL    HW272552   6.107   0.190   4.499  1.6698  0.6768  0.2701
22569SOL     OW72553   7.152   1.087   7.471 -0.1191  0.0195  0.2234
22569SOL    HW172554   7.156   0.997   7.503  2.5274 -0.9250 -2.4766
22569SOL    HW272555   7.086   1.083   7.401  1.5399 -0.3710 -1.3506
22570SOL     OW72556   6.635   9.192   6.720  0.4862  0.2505 -0.2317
22570SOL    HW172557   6.709   9.198   6.780  1.5564 -1.6627 -1.2689
22570SOL    HW272558   6.633   9.276   6.675  0.6046  1.1385  1.3887
22571SOL     OW72559   6.854   9.914   7.474  0.2014  0.1670 -0.0505
22571SOL    HW172560   6.766   9.879   7.460 -0.4039  0.8930  1.7805
22571SOL    HW272561   6.913   9.842   7.452 -0.9458 -1.2360  1.3905
22572SOL     OW72562   6.570   0.019   5.602 -0.8916  0.1529  0.5896
22572SOL    HW172563   6.593   0.109   5.579  0.5541 -0.8300 -2.0002
22572SOL    HW272564   6.655  -0.023   5.618 -1.6353 -0.2912  3.8131
22573SOL     OW72565   5.997   9.864   5.926  0.0864  0.5855 -0.4603
22573SOL    HW172566   6.087   9.845   5.900  0.1965  0.6922 -0.1544
22573SOL    HW272567   6.005   9.933   5.992 -0.2357  0.8090 -0.6533
22574SOL     OW72568   5.653   9.092   6.968 -0.2011  0.8515 -0.2331
22574SOL    HW172569   5.671   9.177   6.928 -0.2107  0.9749  0.0228
22574SOL    HW272570   5.655   9.109   7.063 -0.2905  0.5854 -0.1822
22575SOL     OW72571   7.636   9.616   8.154 -0.3754  0.0738 -0.0038
22575SOL    HW172572   7.712   9.643   8.206  0.7785 -1.7004 -0.7133
22575SOL    HW272573   7.594   9.698   8.129  2.1244  1.1716 -0.7773
22576SOL     OW72574   5.542   0.213   5.183  0.4990  0.0193  0.5408
22576SOL    HW172575   5.519   0.178   5.097  1.1922  2.4143 -0.6330
22576SOL    HW272576   5.629   0.177   5.201 -0.2409 -1.6337  0.9007
22577SOL     OW72577   5.775   0.482   4.933  0.3719  0.3569  0.7722
22577SOL    HW172578   5.767   0.569   4.893 -0.8122 -0.9371 -1.9740
22577SOL    HW272579   5.839   0.436   4.878 -1.8388 -1.7136 -0.1986
22578SOL     OW72580   5.697   9.565   6.078 -0.4229  0.2876  0.5260
22578SOL    HW172581   5.670   9.542   5.989  0.2170 -3.4393  1.2098
22578SOL    HW272582   5.693   9.661   6.080 -1.5632  0.4078 -3.1371
22579SOL     OW72583   6.602   9.683   6.529 -0.0459 -0.6473 -0.4606
22579SOL    HW172584   6.560   9.612   6.579  0.8245 -0.1675  0.9852
22579SOL    HW272585   6.536   9.752   6.527  0.4994 -0.0157  1.5432
22580SOL     OW72586   8.386   9.284   5.736 -0.3242  0.1638  0.6407
22580SOL    HW172587   8.303   9.319   5.703 -0.2757 -0.0893  0.2565
22580SOL    HW272588   8.453   9.324   5.680 -0.3453 -1.4988 -0.6124
22581SOL     OW72589   7.081   0.620   6.571 -0.1509 -0.6591 -0.3472
22581SOL    HW172590   7.152   0.685   6.580 -0.9757  0.1020  0.7484
22581SOL    HW272591   7.075   0.606   6.476  0.5292  0.3232 -0.5532
22582SOL     OW72592   5.856   0.638   8.285  0.3159 -0.9607 -0.5728
22582SOL    HW172593   5.831   0.730   8.284  2.0128 -0.4826  0.3753
22582SOL    HW272594   5.794   0.596   8.226  0.0594  0.9224 -1.6618
22583SOL     OW72595   4.764   8.370   5.632 -0.0496 -0.4568  0.2853
22583SOL    HW172596   4.791   8.401   5.545  0.8227 -1.2855  0.2520
22583SOL    HW272597   4.669   8.372   5.630 -0.0201  1.2299 -0.0762
22584SOL     OW72598   6.425   9.458   6.380 -0.7743 -0.1683  1.1563
22584SOL    HW172599   6.372   9.410   6.315  0.2380  0.5631 -0.2228
22584SOL    HW272600   6.372   9.456   6.460 -0.1529 -4.8384  1.5844
22585SOL     OW72601   5.655   9.603   5.575  0.1182  0.1123  0.1206
22585SOL    HW172602   5.736   9.649   5.595 -0.8210  1.3265  1.2372
22585SOL    HW272603   5.677   9.547   5.501  1.9726  0.4091  0.4085
22586SOL     OW72604   6.077   0.941   6.974 -0.1552  0.3486  0.9407
22586SOL    HW172605   6.128   0.963   7.051 -0.4720 -0.2465  1.3206
22586SOL    HW272606   6.011   0.879   7.005  0.8936 -1.3873 -0.1473
22587SOL     OW72607   6.311   0.063   6.631  0.2668 -0.1701 -0.2672
22587SOL    HW172608   6.217   0.080   6.630  0.3240  0.2027  0.2810
22587SOL    HW272609   6.329   0.024   6.546 -0.4796 -0.7762 -0.1484
22588SOL     OW72610   7.253   9.863   6.353 -0.1145  0.7175  0.5381
22588SOL    HW172611   7.311   9.923   6.400 -1.2060  1.2473  1.2149
22588SOL    HW272612   7.173   9.861   6.405 -0.6283 -0.1942 -0.2701
22589SOL     OW72613   8.074   9.556   6.060 -0.5731 -0.4417 -0.5623
22589SOL    HW172614   8.091   9.622   5.992 -0.5269 -2.5917 -2.7360
22589SOL    HW272615   8.144   9.569   6.124 -0.0675  1.0668 -1.3908
22590SOL     OW72616   5.438   9.606   7.792  0.1841 -0.3915 -0.0594
22590SOL    HW172617   5.469   9.624   7.703  1.3750 -1.9470  0.0245
22590SOL    HW272618   5.515   9.572   7.837 -0.3327  0.6940  1.6722
22591SOL     OW72619   5.677   0.180   8.052 -1.1091 -0.6974 -0.8193
22591SOL    HW172620   5.676   0.240   8.126 -1.7875 -0.5565 -0.9385
22591SOL    HW272621   5.594   0.196   8.007  0.1615  0.7161 -2.7844
22592SOL     OW72622   6.161   9.993   7.901  0.0387 -0.0443  0.1184
22592SOL    HW172623   6.111   9.944   7.966 -0.8676  0.6258 -0.0760
22592SOL    HW272624   6.249   9.998   7.939 -0.9529  2.0509  2.2505
22593SOL     OW72625   5.510   9.572   9.335  0.1107 -0.1883 -0.0810
22593SOL    HW172626   5.508   9.603   9.426 -1.3951  1.0038 -0.5087
22593SOL    HW272627   5.556   9.488   9.340  0.6826  0.2002  1.6784
22594SOL     OW72628   6.940   9.490   9.296  0.0130 -0.5596 -0.5124
22594SOL    HW172629   6.975   9.426   9.357 -1.4063 -0.5631  0.3141
22594SOL    HW272630   6.907   9.438   9.223 -2.4372 -0.8947  0.8054
22595SOL     OW72631   6.084   8.138   0.259  0.4962  0.3424 -0.5534
22595SOL    HW172632   6.086   8.215   0.314  0.6274  0.1419 -0.2751
22595SOL    HW272633   6.141   8.159   0.185 -0.8685  1.1810 -1.3770
22596SOL     OW72634   4.820   9.188   7.641 -0.4386  0.5445  0.3302
22596SOL    HW172635   4.882   9.233   7.584  0.2419 -0.6667  0.1158
22596SOL    HW272636   4.749   9.160   7.584  0.4859 -1.1177 -0.0382
22597SOL     OW72637   6.150   0.862   7.907 -0.0997  0.1699 -0.3644
22597SOL    HW172638   6.182   0.800   7.973  0.8350  0.2730 -0.7175
22597SOL    HW272639   6.106   0.930   7.957  1.3145  0.6709  0.2133
22598SOL     OW72640   6.749   8.985   0.686  0.0157  0.1231  0.0816
22598SOL    HW172641   6.797   9.066   0.667 -0.6360  0.1632 -1.5396
22598SOL    HW272642   6.700   9.004   0.766 -0.7207  1.6115 -0.6932
22599SOL     OW72643   5.810   9.191   8.454  0.6436  0.5355 -0.2668
22599SOL    HW172644   5.889   9.244   8.455  1.3237 -0.4597 -0.4782
22599SOL    HW272645   5.812   9.145   8.370 -1.0018  1.7369 -0.9894
22600SOL     OW72646   5.860   9.449   1.057  0.0277  0.7355 -0.2428
22600SOL    HW172647   5.931   9.507   1.034 -1.6844  2.1675 -2.0572
22600SOL    HW272648   5.854   9.388   0.984  1.2677 -1.2748  1.2622
22601SOL     OW72649   7.220   1.081   8.606  0.2927 -0.1668  0.4950
22601SOL    HW172650   7.178   1.001   8.576  0.9381 -1.3141  2.5439
22601SOL    HW272651   7.300   1.051   8.650  1.4961  1.7382 -0.3273
22602SOL     OW72652   6.294   9.379   8.277  0.3647 -0.2092 -1.3976
22602SOL    HW172653   6.287   9.356   8.185 -0.4795 -0.3864 -1.2860
22602SOL    HW272654   6.204   9.386   8.308  0.6456 -1.8297 -0.1570
22603SOL     OW72655   6.116   0.303   7.855  0.0875  0.4534  0.1948
22603SOL    HW172656   6.211   0.308   7.845  0.1987 -0.9102  0.3976
22603SOL    HW272657   6.098   0.209   7.863 -1.1679  0.7577  1.1714
22604SOL     OW72658   7.662   9.668   8.533  0.5690  0.3466 -0.1668
22604SOL    HW172659   7.624   9.738   8.480  0.3492 -0.1148 -0.6340
22604SOL    HW272660   7.594   9.648   8.597  0.1460 -0.2476 -0.7888
22605SOL     OW72661   6.379   9.050   6.749  0.5242  0.0888 -0.2528
22605SOL    HW172662   6.468   9.081   6.734  1.2822 -0.8761  1.9430
22605SOL    HW272663   6.361   9.073   6.840 -1.7909  0.9919 -0.9215
22606SOL     OW72664   8.665   9.392   8.188  0.1656  0.2251 -0.0726
22606SOL    HW172665   8.696   9.303   8.168 -0.6503 -0.2231  0.6553
22606SOL    HW272666   8.686   9.404   8.280  1.3543  1.2451 -0.4624
22607SOL     OW72667   6.156   8.611   9.065 -0.2223  0.3428  0.0154
22607SOL    HW172668   6.193   8.580   8.982  1.2010 -0.7615  1.0502
22607SOL    HW272669   6.122   8.698   9.045  0.2003  0.1296 -1.7044
22608SOL     OW72670   6.451   9.389   9.497  0.1642 -0.1817 -0.4093
22608SOL    HW172671   6.365   9.361   9.465 -0.4099 -0.3797  1.2674
22608SOL    HW272672   6.444   9.484   9.505 -0.4301 -0.3387  1.1796
22609SOL     OW72673   6.292   9.993   8.233  0.0689 -0.0270 -0.5094
22609SOL    HW172674   6.199  10.000   8.213 -0.0735 -0.5526 -0.0428
22609SOL    HW272675   6.328  10.079   8.213 -1.3740  1.7081  3.8511
22610SOL     OW72676   4.947   0.663   1.829  0.2183  0.1041 -0.4409
22610SOL    HW172677   5.037   0.640   1.850  0.3812  1.2031  0.0871
22610SOL    HW272678   4.897   0.637   1.906  0.1099 -0.3153 -0.6503
22611SOL     OW72679   6.329   0.527   9.398 -0.0780  0.0482  0.3826
22611SOL    HW172680   6.269   0.579   9.344 -0.1568 -0.3428  0.0968
22611SOL    HW272681   6.354   0.454   9.343  0.3109 -0.0317  0.6649
22612SOL     OW72682   5.921   9.537   7.599  0.0241 -0.8716 -0.0440
22612SOL    HW172683   5.995   9.545   7.538 -0.0982  1.8746  0.1345
22612SOL    HW272684   5.845   9.522   7.543  0.1458  0.1282 -0.4829
22613SOL     OW72685   6.166   8.567   6.972  0.7396 -0.5566 -0.2410
22613SOL    HW172686   6.183   8.531   6.884  0.6726 -2.3217  0.4455
22613SOL    HW272687   6.209   8.652   6.971 -0.4281  0.0455 -2.4481
22614SOL     OW72688   6.242   0.770   7.505  0.3096  0.0349 -0.0510
22614SOL    HW172689   6.161   0.737   7.545 -0.1303  1.1258 -0.0204
22614SOL    HW272690   6.299   0.693   7.499 -0.4273 -0.5809  0.6780
22615SOL     OW72691   5.929   9.860   8.879  0.2513  0.3013  0.4330
22615SOL    HW172692   5.836   9.873   8.897  0.2188  2.7892 -1.2399
22615SOL    HW272693   5.973   9.902   8.953  0.0310  1.1285  0.1075
22616SOL     OW72694   4.502   9.939   9.318  0.0007  0.1034 -0.1524
22616SOL    HW172695   4.444   9.963   9.246  0.2983 -0.1548 -0.4731
22616SOL    HW272696   4.474   9.850   9.342 -0.5729  0.4579  0.5196
22617SOL     OW72697   5.949   0.248   8.343 -0.0570  0.3307 -0.8472
22617SOL    HW172698   5.978   0.319   8.286 -1.4377  0.7252 -1.0848
22617SOL    HW272699   5.858   0.271   8.365 -0.5111 -1.3682 -0.9287
22618SOL     OW72700   5.547   9.538   8.836 -0.1273  0.2797  0.0157
22618SOL    HW172701   5.505   9.453   8.846 -0.1383  0.2677 -0.1270
22618SOL    HW272702   5.500   9.580   8.763 -1.1462  1.0349  1.0961
22619SOL     OW72703   6.324   8.382   9.522  0.3940  0.4624  0.0785
22619SOL    HW172704   6.395   8.339   9.570 -0.5833 -1.5582 -0.2044
22619SOL    HW272705   6.283   8.311   9.473 -0.3201  2.0278 -1.6416
22620SOL     OW72706   5.732   9.895   7.719 -0.4680 -0.1384  0.0229
22620SOL    HW172707   5.667   9.962   7.696 -2.0586 -0.9825  1.8701
22620SOL    HW272708   5.814   9.927   7.682 -1.6146  1.7857 -0.9342
22621SOL     OW72709   5.323   9.645   7.482 -0.0287  0.0307 -0.1199
22621SOL    HW172710   5.377   9.575   7.518 -0.1761 -0.8727 -1.6544
22621SOL    HW272711   5.237   9.605   7.470  0.0555  0.2924 -1.6140
22622SOL     OW72712   7.401   9.784   8.702 -0.3888  0.6439  0.8054
22622SOL    HW172713   7.428   9.870   8.670  0.1065  0.1880 -0.0273
22622SOL    HW272714   7.385   9.797   8.795  0.4810  1.4606  0.8528
22623SOL     OW72715   8.659   9.987   7.834 -0.3052 -0.1339  0.9086
22623SOL    HW172716   8.658  10.076   7.870 -0.1642  0.1156  0.3077
22623SOL    HW272717   8.752   9.969   7.819 -0.3778 -0.1617  0.4954
22624SOL     OW72718   7.061   8.183   6.751 -0.0086 -0.0785  0.3060
22624SOL    HW172719   7.131   8.208   6.690 -0.5204  1.9711  0.5543
22624SOL    HW272720   7.108   8.147   6.827  0.6607 -1.5745 -0.7799
22625SOL     OW72721   6.515   0.077   7.466 -0.0114 -0.3581  0.3413
22625SOL    HW172722   6.488   0.015   7.534 -0.5928 -0.2978  0.1707
22625SOL    HW272723   6.487   0.035   7.384 -0.8884  0.3719  0.2628
22626SOL     OW72724   5.540   9.084   0.762  0.1389  0.4818  0.1230
22626SOL    HW172725   5.457   9.046   0.793  0.2316  0.1986  0.0249
22626SOL    HW272726   5.599   9.077   0.837  0.5125 -0.6611 -0.2713
22627SOL     OW72727   6.228   8.166   8.619 -0.0593 -0.5535 -0.2921
22627SOL    HW172728   6.143   8.191   8.654 -0.0351 -0.7432 -0.0978
22627SOL    HW272729   6.221   8.072   8.603  0.7085 -0.9229  1.4475
22628SOL     OW72730   5.942   8.688   7.645  0.0190  0.5662  0.2918
22628SOL    HW172731   5.902   8.735   7.572 -0.4605  3.4168  2.3161
22628SOL    HW272732   6.005   8.750   7.682 -1.5707  0.1557  3.8467
22629SOL     OW72733   3.751   9.892   8.673 -0.3956  0.0684 -0.8542
22629SOL    HW172734   3.784   9.846   8.596 -0.3550 -0.7068 -0.3731
22629SOL    HW272735   3.691   9.830   8.714 -0.6456  0.5919 -0.4234
22630SOL     OW72736   7.207   9.320   8.969  0.0801  0.1788 -0.5108
22630SOL    HW172737   7.146   9.345   8.899  0.1810 -0.9792 -1.0234
22630SOL    HW272738   7.179   9.372   9.044  0.6985  2.2994 -1.7134
22631SOL     OW72739   4.531   0.411   7.712  0.5465  0.4395 -0.1911
22631SOL    HW172740   4.515   0.361   7.792 -0.3146 -1.1963 -1.3491
22631SOL    HW272741   4.603   0.366   7.669 -1.3368 -0.8934 -2.0750
22632SOL     OW72742   7.015   9.208   7.538  0.4736  0.3029  0.1218
22632SOL    HW172743   6.975   9.269   7.599  0.8464 -0.9024  1.5816
22632SOL    HW272744   6.942   9.175   7.485  0.0394  0.7541  0.4428
22633SOL     OW72745   6.033   9.095   9.871  0.4329  0.5404 -0.2468
22633SOL    HW172746   6.017   9.001   9.882 -0.5086  0.5835 -1.2150
22633SOL    HW272747   6.118   9.109   9.911  1.0283 -0.9104 -0.9606
22634SOL     OW72748   4.888   9.360   7.288  0.2150 -0.0252 -0.1959
22634SOL    HW172749   4.929   9.426   7.232 -0.2469 -0.7498 -1.4038
22634SOL    HW272750   4.959   9.326   7.342  0.7234  0.4469 -0.5606
22635SOL     OW72751   8.124   0.546   9.648  0.3118 -0.3182  0.2258
22635SOL    HW172752   8.215   0.520   9.658  0.4330 -0.3235 -0.8934
22635SOL    HW272753   8.074   0.470   9.681  0.6931 -0.8484 -0.4199
22636SOL     OW72754   5.832   1.345   8.723 -0.1887  0.8622 -0.1527
22636SOL    HW172755   5.737   1.335   8.718 -0.3330  1.7771  0.6280
22636SOL    HW272756   5.860   1.278   8.786 -0.3848  0.9852  0.0639
22637SOL     OW72757   6.230   8.511   0.255 -0.3309  0.8163 -0.5483
22637SOL    HW172758   6.292   8.528   0.184 -0.3862 -1.8677 -1.3254
22637SOL    HW272759   6.149   8.487   0.211  0.0954 -2.4828  0.3309
22638SOL     OW72760   6.304   9.399   8.559  0.0207 -0.3288  0.8011
22638SOL    HW172761   6.350   9.480   8.543  1.8309 -1.1290  1.7910
22638SOL    HW272762   6.295   9.358   8.473  0.5329  0.1693  0.5123
22639SOL     OW72763   5.905   8.513   9.097  0.0037  0.1378 -0.2698
22639SOL    HW172764   5.871   8.579   9.036 -1.1790  0.8207  1.0935
22639SOL    HW272765   6.000   8.527   9.096  0.0648 -0.3361 -2.4735
22640SOL     OW72766   5.873   9.530   8.071  0.1594  0.1827  0.3350
22640SOL    HW172767   5.905   9.450   8.029 -0.6013  0.3536 -0.5962
22640SOL    HW272768   5.866   9.593   7.999  1.2594  1.2589  1.1454
22641SOL     OW72769   7.243   0.008   8.381 -0.2896 -0.1732  0.3783
22641SOL    HW172770   7.155   0.045   8.372 -0.0313  0.2696 -0.3688
22641SOL    HW272771   7.295   0.081   8.415 -0.2875 -0.5386  1.1612
22642SOL     OW72772   7.577   0.452   9.867 -0.0720  0.3753  0.4058
22642SOL    HW172773   7.485   0.434   9.882 -0.4934  0.9058 -1.4808
22642SOL    HW272774   7.583   0.548   9.865  0.6747  0.3611  1.4083
22643SOL     OW72775   6.800   0.569   6.962 -0.4249  0.4473 -0.3481
22643SOL    HW172776   6.822   0.490   7.013 -0.8082  0.3098 -0.3923
22643SOL    HW272777   6.740   0.618   7.018  1.2001  1.6028  0.4340
22644SOL     OW72778   6.049   8.451   9.999 -0.2654  0.0799 -0.3391
22644SOL    HW172779   6.127   8.396  10.010  1.1765  2.4820  1.8709
22644SOL    HW272780   6.009   8.418   9.918  3.8762 -0.2053 -2.4510
22645SOL     OW72781   7.500   0.062   9.316 -0.3344 -0.1899  0.0227
22645SOL    HW172782   7.481   0.077   9.224 -0.4472  2.5714  0.4454
22645SOL    HW272783   7.578   0.115   9.334  1.8163 -3.4576  0.7099
22646SOL     OW72784   6.023   9.714   9.144  0.2763 -0.1591  0.2784
22646SOL    HW172785   5.975   9.693   9.064 -1.6879 -0.2260  1.4602
22646SOL    HW272786   6.078   9.789   9.120  0.3727 -0.7314 -1.3682
22647SOL     OW72787   5.283   0.442   7.704  0.3431  0.2331  0.0739
22647SOL    HW172788   5.291   0.538   7.701  2.1637  0.0908  0.0065
22647SOL    HW272789   5.326   0.412   7.624  0.0376 -0.6727  0.2471
22648SOL     OW72790   4.881   0.572   9.141 -0.3463 -0.6368 -0.3285
22648SOL    HW172791   4.824   0.641   9.176  2.8960  2.1128 -0.1760
22648SOL    HW272792   4.929   0.540   9.217 -1.1267 -2.4094 -0.5683
22649SOL     OW72793   6.941   0.998   7.296  0.3161  0.4218  0.6130
22649SOL    HW172794   6.888   1.013   7.218  4.3624  3.1775 -1.7983
22649SOL    HW272795   6.993   0.920   7.276  0.6442  0.5535  0.9281
22650SOL     OW72796   7.040   8.345   9.196 -0.2268 -0.6950  0.1549
22650SOL    HW172797   7.034   8.440   9.211  1.0499 -0.8695  1.9802
22650SOL    HW272798   6.957   8.310   9.226 -0.7858 -0.1313 -0.7240
22651SOL     OW72799   7.400   0.115   9.558  0.0222  0.2522  0.1358
22651SOL    HW172800   7.385   0.038   9.612  1.7904  0.8687  1.5481
22651SOL    HW272801   7.423   0.080   9.472  1.9171 -0.8560  1.0618
22652SOL     OW72802   6.939   0.091   8.134 -0.0027  0.2891  0.0665
22652SOL    HW172803   6.975   0.132   8.212  2.2726 -1.4725 -0.0017
22652SOL    HW272804   6.894   0.013   8.166  0.8822 -0.4042 -0.3506
22653SOL     OW72805   7.746   8.548   8.761  0.0495  0.2728 -0.0568
22653SOL    HW172806   7.749   8.612   8.832 -0.7019 -0.1668  0.3852
22653SOL    HW272807   7.822   8.491   8.776  0.6950  1.0312 -0.4286
22654SOL     OW72808   5.806   9.674   8.305 -0.7868  0.1226  0.1556
22654SOL    HW172809   5.856   9.628   8.237  0.1209 -0.6350  1.3262
22654SOL    HW272810   5.763   9.745   8.258  1.6340  0.9946 -0.8623
22655SOL     OW72811   6.522   8.659   8.999 -0.2524 -0.1986  0.0800
22655SOL    HW172812   6.432   8.668   8.967  0.0871  1.4416 -0.4504
22655SOL    HW272813   6.548   8.748   9.023 -0.0280 -1.1511  3.7051
22656SOL     OW72814   6.201   8.599   9.429  0.6627  0.5395 -0.1987
22656SOL    HW172815   6.271   8.663   9.443  0.5553  0.4660  0.7170
22656SOL    HW272816   6.238   8.516   9.459  1.0755  0.0144 -2.1194
22657SOL     OW72817   6.379   9.733   0.447 -0.0794  0.1593  0.2870
22657SOL    HW172818   6.365   9.789   0.371  2.2062 -0.1943 -0.4517
22657SOL    HW272819   6.375   9.643   0.412 -1.9675 -0.1186  1.1436
22658SOL     OW72820   7.170   9.589   8.661 -0.8307 -0.8730  0.6549
22658SOL    HW172821   7.119   9.664   8.693 -0.0429 -0.2926  0.5868
22658SOL    HW272822   7.251   9.593   8.712 -0.6284 -1.4578  0.3725
22659SOL     OW72823   7.304   8.769   9.576 -0.1617 -0.0677  0.2621
22659SOL    HW172824   7.245   8.694   9.570 -0.6434  0.3452 -0.2304
22659SOL    HW272825   7.271   8.819   9.651 -1.2110  0.8127 -0.7624
22660SOL     OW72826   8.091   9.857   9.373 -0.0059  0.8115 -0.0398
22660SOL    HW172827   8.079   9.818   9.460 -2.3144  1.3553 -0.0796
22660SOL    HW272828   8.097   9.782   9.314  1.2759  0.4435  0.5469
22661SOL     OW72829   6.124   7.904   9.147 -0.2585  0.2816 -0.1844
22661SOL    HW172830   6.197   7.937   9.201 -1.0094  0.1361  0.9301
22661SOL    HW272831   6.149   7.927   9.057  0.3189  1.8332  0.3574
22662SOL     OW72832   6.491   9.091   9.685 -0.6041 -0.0715  0.4764
22662SOL    HW172833   6.542   9.086   9.766 -1.1212  0.1890  0.8253
22662SOL    HW272834   6.455   9.003   9.673 -0.2763 -0.1890  0.3664
22663SOL     OW72835   5.867   8.875   9.796  0.3715  0.4476  0.7962
22663SOL    HW172836   5.896   8.831   9.876 -1.8854  0.6292  1.7653
22663SOL    HW272837   5.921   8.837   9.727 -0.4500 -2.7740  1.8267
22664SOL     OW72838   7.074   9.642   1.646 -0.1603 -0.5546  0.1677
22664SOL    HW172839   7.035   9.685   1.723 -1.0863 -1.2325  0.0806
22664SOL    HW272840   7.038   9.690   1.571  1.1407  0.4346  0.1636
22665SOL     OW72841   6.299   9.858   9.930 -0.6918  0.0101  0.4276
22665SOL    HW172842   6.376   9.892   9.884 -0.0964  1.1736  2.1894
22665SOL    HW272843   6.274   9.779   9.883 -0.2308  1.2572 -1.9686
22666SOL     OW72844   6.419   0.374   9.195  0.0251 -0.1653 -0.6756
22666SOL    HW172845   6.509   0.343   9.182  0.5404  1.3275 -0.7932
22666SOL    HW272846   6.391   0.402   9.108  0.0250  0.8483 -0.3595
22667SOL     OW72847   7.243   0.209   8.969  0.1297  0.5930 -0.0783
22667SOL    HW172848   7.323   0.177   9.011  0.4550 -0.6904 -1.5979
22667SOL    HW272849   7.272   0.242   8.884 -0.8333  0.8764 -0.3034
22668SOL     OW72850   7.339   8.594   0.485 -0.1597 -0.8010 -0.2678
22668SOL    HW172851   7.310   8.510   0.449  0.6983 -0.1746 -2.5162
22668SOL    HW272852   7.287   8.659   0.438  0.6432  0.0381 -0.0002
22669SOL     OW72853   5.474   0.428   8.267 -0.1471  0.1515 -0.4612
22669SOL    HW172854   5.548   0.442   8.325 -0.9102  1.4483  0.2344
22669SOL    HW272855   5.411   0.496   8.292 -1.5016 -0.8328 -1.1313
22670SOL     OW72856   6.526   9.408   1.834 -0.4871  0.0019 -0.5525
22670SOL    HW172857   6.560   9.472   1.897 -1.0842 -0.3572  0.1425
22670SOL    HW272858   6.431   9.421   1.836 -0.4510  0.5894 -2.0343
22671SOL     OW72859   5.885   9.284   0.185  0.0961  0.5349  0.0568
22671SOL    HW172860   5.826   9.290   0.260 -0.3648  3.5475 -0.4820
22671SOL    HW272861   5.968   9.253   0.222 -1.5342 -2.9237  0.9564
22672SOL     OW72862   5.029   8.807   9.878 -0.3370 -0.6194  0.3921
22672SOL    HW172863   5.060   8.873   9.941 -0.6330 -0.0796 -0.0266
22672SOL    HW272864   5.108   8.774   9.837 -0.2458  0.0353  0.0458
22673SOL     OW72865   7.351   0.741   9.293  0.3101  0.1581 -0.9589
22673SOL    HW172866   7.312   0.658   9.265  1.0103 -0.4676 -0.0914
22673SOL    HW272867   7.445   0.723   9.300  0.0988  0.1056  2.4047
22674SOL     OW72868   7.568   0.305   8.820  0.4861 -0.2550  0.1908
22674SOL    HW172869   7.658   0.303   8.786  0.1170 -1.5846 -0.7346
22674SOL    HW272870   7.516   0.340   8.747  0.1026 -0.4673  0.3612
22675SOL     OW72871   6.208   8.496   0.612  0.2754  0.0695 -0.4079
22675SOL    HW172872   6.302   8.502   0.597  0.4409 -0.4544  0.3893
22675SOL    HW272873   6.188   8.565   0.675  0.0279  0.5458 -1.0031
22676SOL     OW72874   5.937   0.063   0.649 -0.6138  0.4872 -0.0668
22676SOL    HW172875   5.971   0.150   0.669 -1.0178  0.7256 -0.4072
22676SOL    HW272876   5.934   0.018   0.733  1.9068 -0.0268 -0.2172
22677SOL     OW72877   7.341   0.530   0.844 -0.7353 -0.4821  0.2261
22677SOL    HW172878   7.282   0.586   0.794  0.8046  0.5145 -0.4917
22677SOL    HW272879   7.363   0.582   0.922 -0.0863 -0.4871  0.0458
22678SOL     OW72880   5.814   0.945   9.426  0.5352  0.5723  0.3380
22678SOL    HW172881   5.741   1.007   9.417 -0.4512 -0.4270  1.2811
22678SOL    HW272882   5.876   0.990   9.484 -1.4106 -0.3834  3.2360
22679SOL     OW72883   4.940   9.249   2.434  0.4336  0.4572  0.4503
22679SOL    HW172884   4.916   9.321   2.493 -3.9757  0.0735 -0.6534
22679SOL    HW272885   4.894   9.173   2.470  0.1769 -0.4575 -1.7361
22680SOL     OW72886   7.799   0.909   8.570 -0.5899 -0.6676 -0.3146
22680SOL    HW172887   7.887   0.871   8.572 -0.4632 -0.3816 -0.4117
22680SOL    HW272888   7.764   0.894   8.657 -1.0449 -2.2013 -0.7315
22681SOL     OW72889   6.382   0.166   0.126 -0.2719 -0.3357 -0.1361
22681SOL    HW172890   6.337   0.209   0.200 -1.5788 -1.1377 -0.4388
22681SOL    HW272891   6.459   0.220   0.111 -0.3813  0.2787  1.3342
22682SOL     OW72892   0.492   8.409   8.090 -0.5537  0.5014  0.2435
22682SOL    HW172893   0.444   8.487   8.118 -0.4487  0.8658 -0.5744
22682SOL    HW272894   0.424   8.348   8.061 -0.5297  1.1726 -1.3072
22683SOL     OW72895   8.325   0.848   9.878  0.0918 -0.4437  0.1998
22683SOL    HW172896   8.365   0.855   9.964  0.9235 -1.6404 -0.0643
22683SOL    HW272897   8.396   0.871   9.817 -1.2535  3.1715 -0.1079
22684SOL     OW72898   7.900   9.940   0.703 -0.4444  0.3196  0.1066
22684SOL    HW172899   7.971   9.928   0.766 -0.7964  4.4262  1.3968
22684SOL    HW272900   7.828   9.889   0.738  0.2678  0.2599  1.5117
22685SOL     OW72901   7.306   0.034   1.078  0.4347  0.7434  0.9059
22685SOL    HW172902   7.239   0.093   1.045  0.2878  1.6002  2.6522
22685SOL    HW272903   7.389   0.080   1.064  0.5285  0.3475  0.1402
22686SOL     OW72904   7.544   1.895   0.062  0.1333  0.1072  0.5442
22686SOL    HW172905   7.623   1.909   0.011  0.7308 -0.3879  1.3258
22686SOL    HW272906   7.567   1.924   0.150  0.0294 -1.7774  1.1959
22687SOL     OW72907   9.385   0.750   9.969  0.4989 -0.1537 -0.1937
22687SOL    HW172908   9.432   0.817  10.019  0.2814 -0.0615 -0.1116
22687SOL    HW272909   9.302   0.792   9.946  0.1586 -0.5668  0.2773
22688SOL     OW72910   9.244   1.064   0.809 -0.3725  0.1249 -0.3901
22688SOL    HW172911   9.253   1.066   0.714 -0.3024  2.5111 -0.3592
22688SOL    HW272912   9.299   0.991   0.837 -0.7067 -0.8497 -2.2070
22689SOL     OW72913   9.917   8.802   0.326 -0.1570 -0.1553  0.0476
22689SOL    HW172914   9.881   8.878   0.279 -1.9934 -0.1970  1.3237
22689SOL    HW272915  10.011   8.816   0.326 -0.3897  1.5752 -0.6865
22690SOL     OW72916   7.242   0.636   1.335 -0.2768 -0.5530 -0.0684
22690SOL    HW172917   7.293   0.556   1.343 -0.3253 -0.6829 -1.0153
22690SOL    HW272918   7.293   0.701   1.384 -0.7667 -1.3931  1.5813
22691SOL     OW72919   7.898   0.269   0.795  0.1543  0.7194 -0.0305
22691SOL    HW172920   7.895   0.200   0.729  0.4634  1.2524 -0.6156
22691SOL    HW272921   7.989   0.275   0.821 -0.2700 -0.8034  1.8869
22692SOL     OW72922   8.387   0.183   0.256 -0.3653  0.0163 -0.0408
22692SOL    HW172923   8.334   0.165   0.179  0.1291  0.7645 -0.5651
22692SOL    HW272924   8.427   0.098   0.278 -2.3154 -0.6982  0.7898
22693SOL     OW72925   9.158   0.667   0.449 -0.6404 -0.5622 -0.2685
22693SOL    HW172926   9.158   0.642   0.356 -0.8820 -0.6289 -0.2513
22693SOL    HW272927   9.094   0.738   0.455 -0.3390 -0.2964 -0.2232
22694SOL     OW72928   8.323   0.642   0.623  0.1172 -0.1363  0.7871
22694SOL    HW172929   8.350   0.575   0.685  1.0356 -0.2694  0.2645
22694SOL    HW272930   8.340   0.603   0.537 -0.6487  0.2393  0.4579
22695SOL     OW72931   9.614   1.421   2.139  0.3395  0.4901  0.4981
22695SOL    HW172932   9.699   1.383   2.161 -1.4893 -3.1858  1.7206
22695SOL    HW272933   9.574   1.440   2.224 -1.0397 -0.1625 -0.0024
22696SOL     OW72934   5.545   9.213   1.070 -0.5458  0.2660  0.1002
22696SOL    HW172935   5.516   9.234   1.158 -0.2250  1.9826 -0.1806
22696SOL    HW272936   5.530   9.294   1.020 -0.4197 -0.5736 -1.3280
22697SOL     OW72937   8.806   1.085   0.989 -0.7372 -0.4221 -0.2568
22697SOL    HW172938   8.765   0.999   0.997  1.5058 -1.5548 -0.6339
22697SOL    HW272939   8.848   1.084   0.903  1.9572 -0.1555  1.0083
22698SOL     OW72940   7.727   0.722   0.933 -0.2899  0.0068 -0.0584
22698SOL    HW172941   7.761   0.802   0.974 -0.4149 -0.0138  0.0870
22698SOL    HW272942   7.778   0.652   0.973 -1.0910 -0.0990  0.8054
22699SOL     OW72943   6.470   0.998   2.311 -0.0633 -0.4896  0.1915
22699SOL    HW172944   6.399   1.036   2.258 -0.6546 -1.7704  0.0468
22699SOL    HW272945   6.473   0.906   2.284 -1.4284 -1.5587  3.4722
22700SOL     OW72946   8.625   2.099   9.877  0.0643 -0.0091 -0.1255
22700SOL    HW172947   8.530   2.111   9.874  0.0276  0.0738  1.1552
22700SOL    HW272948   8.657   2.140   9.797 -0.8837  0.9645 -0.0199
22701SOL     OW72949   8.773   1.645   1.528 -0.3553 -0.0663 -0.0812
22701SOL    HW172950   8.827   1.584   1.477  0.0099  1.4154 -1.5046
22701SOL    HW272951   8.781   1.614   1.619  1.4226 -0.9393 -0.5147
22702SOL     OW72952   6.822   1.203   2.139 -0.2899 -0.4173 -0.1519
22702SOL    HW172953   6.792   1.288   2.172  0.3981 -0.6023  1.0000
22702SOL    HW272954   6.814   1.144   2.215 -0.6561 -1.3562 -0.9075
22703SOL     OW72955   8.582   0.787   0.354  0.4792 -0.7738  0.2948
22703SOL    HW172956   8.675   0.802   0.335  0.8521 -1.1428  1.7550
22703SOL    HW272957   8.571   0.692   0.346 -0.1013 -0.5770 -1.2790
22704SOL     OW72958   7.910   9.725   0.508  0.1204 -0.3754 -0.0027
22704SOL    HW172959   7.873   9.808   0.536 -0.9860  0.0047 -2.3999
22704SOL    HW272960   7.900   9.667   0.583  1.1983  1.7055  1.8097
22705SOL     OW72961   7.612   2.197   0.925  0.2885  0.5223 -0.1614
22705SOL    HW172962   7.532   2.146   0.914  0.1867  0.3532  1.2462
22705SOL    HW272963   7.667   2.143   0.982  1.2933  0.7616 -0.8909
22706SOL     OW72964   7.411   1.292   8.923 -0.0257 -0.3322 -0.7938
22706SOL    HW172965   7.363   1.211   8.909  0.0237 -0.4417 -0.3345
22706SOL    HW272966   7.493   1.264   8.965 -0.1315 -0.0176 -0.3763
22707SOL     OW72967   0.186   3.180   1.083  0.0214  0.2710  0.1984
22707SOL    HW172968   0.166   3.119   1.012  1.3874 -0.9821  0.8549
22707SOL    HW272969   0.110   3.177   1.140  0.1619 -0.9749  0.3221
22708SOL     OW72970   7.972   1.195   1.790  0.6345  0.0840 -0.5332
22708SOL    HW172971   8.051   1.209   1.842  1.4135  0.1745 -1.7236
22708SOL    HW272972   7.945   1.106   1.811  1.2373 -0.0618 -0.3677
22709SOL     OW72973   8.401   0.887   0.168 -0.3603  0.1011 -0.8388
22709SOL    HW172974   8.312   0.865   0.197 -0.0269 -2.4000 -1.6401
22709SOL    HW272975   8.458   0.826   0.215  0.9617  1.7257 -0.2911
22710SOL     OW72976   8.505   9.969   0.914  0.1123 -0.3249  0.4156
22710SOL    HW172977   8.467  10.055   0.932  0.8115 -0.2212  1.4508
22710SOL    HW272978   8.447   9.930   0.849 -0.0573  1.0405 -0.2644
22711SOL     OW72979   7.932   9.842   0.942 -0.1340 -0.1223  0.6096
22711SOL    HW172980   7.860   9.783   0.962 -1.4219  1.1448 -0.2354
22711SOL    HW272981   7.930   9.907   1.012 -1.8317  1.7388 -1.1384
22712SOL     OW72982   7.741   1.471   1.265  0.0771 -0.0589  0.6846
22712SOL    HW172983   7.654   1.480   1.304 -0.5861  0.3797 -0.8529
22712SOL    HW272984   7.790   1.546   1.297 -0.9394  1.1423 -0.5164
22713SOL     OW72985   8.571   9.552   2.570  0.2763  0.0057  0.3359
22713SOL    HW172986   8.532   9.519   2.489  0.6146  1.5253 -0.4752
22713SOL    HW272987   8.530   9.637   2.583  1.9252  0.7913  0.4928
22714SOL     OW72988   8.659   1.786   0.820  0.0390  0.5590  0.2975
22714SOL    HW172989   8.732   1.724   0.812  1.5935  2.5400 -1.5956
22714SOL    HW272990   8.609   1.774   0.739  0.3184  1.7167 -0.0521
22715SOL     OW72991   9.448   3.622   2.518 -0.7695  0.5479  0.1692
22715SOL    HW172992   9.521   3.684   2.510  0.3324 -0.5354  1.5888
22715SOL    HW272993   9.461   3.581   2.604 -1.1866 -2.0170 -0.9437
22716SOL     OW72994   7.754   9.686   1.055  0.0308  0.1689  0.2184
22716SOL    HW172995   7.679   9.627   1.057  1.2115 -1.3163  1.6446
22716SOL    HW272996   7.730   9.758   1.114  0.7812 -1.6548  2.8273
22717SOL     OW72997   9.022   0.072   0.734 -0.2258  0.7840 -0.8081
22717SOL    HW172998   8.931   0.092   0.758  0.4769  1.9190  0.9587
22717SOL    HW272999   9.046  -0.002   0.790 -0.0680  0.4043 -1.3631
22718SOL     OW73000   8.712   2.093   9.092  0.2995  0.0297  0.2226
22718SOL    HW173001   8.641   2.136   9.045  1.0675  1.9733  0.7866
22718SOL    HW273002   8.787   2.153   9.082  1.2915 -0.9935  1.3615
22719SOL     OW73003   9.115   9.361   9.754 -0.6727  0.1815 -0.3979
22719SOL    HW173004   9.202   9.365   9.793 -0.4018 -0.9945 -0.8553
22719SOL    HW273005   9.132   9.354   9.660 -1.2453 -0.3819 -0.4665
22720SOL     OW73006   6.920   9.853   0.097  0.2913 -0.5002  0.2882
22720SOL    HW173007   6.929   9.825   0.188  0.3587  0.1936  0.4995
22720SOL    HW273008   6.970   9.935   0.092 -1.5488  0.6493  0.1852
22721SOL     OW73009   8.736   1.497   0.872  0.7441  0.0008  0.0550
22721SOL    HW173010   8.821   1.469   0.906  0.4419 -0.0682  0.7616
22721SOL    HW273011   8.755   1.533   0.785  1.5568  0.4570  0.4231
22722SOL     OW73012   8.084   9.379   0.206 -0.2358 -0.5220 -0.1866
22722SOL    HW173013   8.033   9.347   0.280  0.4826 -1.5885 -0.1432
22722SOL    HW273014   8.080   9.308   0.142  1.3557 -0.7036 -0.0951
22723SOL     OW73015   9.176   0.391   1.921  0.2780  0.7360 -0.3170
22723SOL    HW173016   9.151   0.439   1.842  1.1512 -0.8056 -1.5499
22723SOL    HW273017   9.269   0.373   1.909  0.2534 -0.1373  0.7522
22724SOL     OW73018   8.158   0.158   0.722 -0.3968 -0.2312  0.1500
22724SOL    HW173019   8.188   0.074   0.756 -0.9704  0.3980  2.2221
22724SOL    HW273020   8.238   0.211   0.718 -0.0011 -0.8940 -1.3339
22725SOL     OW73021   8.552   2.254   1.138  0.3657  0.2163  0.6891
22725SOL    HW173022   8.561   2.292   1.050  0.4673  0.9608  1.0138
22725SOL    HW273023   8.619   2.186   1.141 -0.7102 -0.9341 -0.3803
22726SOL     OW73024   8.909   2.665   1.490  0.3779 -0.4236 -0.0019
22726SOL    HW173025   8.834   2.657   1.432  1.1171  0.7048 -1.1447
22726SOL    HW273026   8.897   2.750   1.533 -0.2573 -1.3225  1.6655
22727SOL     OW73027   9.140   1.749   1.324  0.4664 -0.1079  0.2217
22727SOL    HW173028   9.117   1.668   1.279  0.0152 -0.0602  0.3665
22727SOL    HW273029   9.145   1.725   1.417 -2.2089  0.5809  0.5641
22728SOL     OW73030   9.842   9.809   0.811  0.3208 -0.1110 -0.1628
22728SOL    HW173031   9.917   9.836   0.759 -0.5012 -0.5555 -1.5979
22728SOL    HW273032   9.860   9.718   0.834  0.7979  0.1600  0.5581
22729SOL     OW73033   8.374   1.887   1.862  0.0438 -0.1442 -0.1369
22729SOL    HW173034   8.360   1.960   1.801  1.0132  0.2039  0.0488
22729SOL    HW273035   8.350   1.809   1.812 -0.0747  0.2182 -0.6526
22730SOL     OW73036   0.356   3.817   3.505  0.1109 -0.2779  0.3235
22730SOL    HW173037   0.374   3.727   3.534 -0.9649 -0.9284 -0.9312
22730SOL    HW273038   0.261   3.822   3.502  0.1172  1.5693  2.3074
22731SOL     OW73039   7.709   0.978   1.638  0.1273 -0.1661  0.7411
22731SOL    HW173040   7.629   0.990   1.688  0.0373  0.5733  0.4333
22731SOL    HW273041   7.780   0.985   1.702 -0.0599 -1.0648  1.0526
22732SOL     OW73042   6.613   0.517   0.296 -0.4492  0.0218  0.1664
22732SOL    HW173043   6.605   0.612   0.302  0.5496  0.1299  0.0199
22732SOL    HW273044   6.702   0.499   0.327  0.1754 -0.6461 -1.9127
22733SOL     OW73045   7.194   2.822   9.718 -0.2708 -0.4282 -0.0256
22733SOL    HW173046   7.131   2.892   9.700 -1.6669 -1.0124  2.2727
22733SOL    HW273047   7.165   2.786   9.802  1.2995 -2.7858 -0.4574
22734SOL     OW73048   8.020   9.989   1.162 -0.1422  0.1688  0.1403
22734SOL    HW173049   7.984   9.916   1.211  0.0850 -0.5437 -0.7449
22734SOL    HW273050   8.096   9.953   1.118  0.4355  1.1432  0.3312
22735SOL     OW73051   9.640   1.323   1.569  0.1171  0.4446 -0.4706
22735SOL    HW173052   9.572   1.359   1.511  1.2770  1.9608 -0.9298
22735SOL    HW273053   9.684   1.257   1.515 -0.9688 -0.5179 -0.1818
22736SOL     OW73054   7.838   0.575   0.670 -0.2802  0.3743  0.0193
22736SOL    HW173055   7.809   0.640   0.734 -0.5598 -0.4872  0.7735
22736SOL    HW273056   7.894   0.516   0.720 -0.7546 -0.4858 -0.4501
22737SOL     OW73057   7.446   0.289   0.763  0.0442 -0.0374  0.5238
22737SOL    HW173058   7.389   0.363   0.784 -0.1019 -0.0533  0.1792
22737SOL    HW273059   7.534   0.320   0.784  0.0541  0.4718 -0.2651
22738SOL     OW73060   7.931   9.772   1.950  0.5158  0.1643 -0.3331
22738SOL    HW173061   7.838   9.764   1.968  0.9941 -1.5968  1.4917
22738SOL    HW273062   7.942   9.864   1.925 -1.7806  0.2495 -1.1761
22739SOL     OW73063   9.186   1.208   1.061 -0.2582  0.0222  0.0291
22739SOL    HW173064   9.185   1.136   1.125  0.8880 -1.0191 -1.0920
22739SOL    HW273065   9.204   1.165   0.977 -1.7491  1.3721 -1.0088
22740SOL     OW73066   9.407   1.244   1.677  0.1469 -0.0119 -0.5458
22740SOL    HW173067   9.433   1.240   1.769 -1.6575  1.5071  0.0607
22740SOL    HW273068   9.479   1.288   1.633  0.2620  0.8198  0.4543
22741SOL     OW73069   8.181   0.859   0.746 -0.0429  0.6540 -0.4142
22741SOL    HW173070   8.180   0.820   0.833  0.3826  2.1879  0.3016
22741SOL    HW273071   8.202   0.787   0.687 -0.0526 -0.3370  0.7824
22742SOL     OW73072   8.120   0.509   0.812 -0.0267  0.8085 -0.1326
22742SOL    HW173073   8.178   0.433   0.818 -1.4029 -0.2085  0.2901
22742SOL    HW273074   8.161   0.574   0.870 -0.9678 -1.0053  2.6546
22743SOL     OW73075   6.388   0.029   9.294  1.1542  0.3496  0.6117
22743SOL    HW173076   6.386  -0.017   9.210 -0.3427  0.8132  0.3789
22743SOL    HW273077   6.336   0.108   9.280 -1.1580 -0.7194  2.6043
22744SOL     OW73078   7.774   0.200   1.986  0.7085  0.2878 -0.0351
22744SOL    HW173079   7.743   0.167   2.070 -1.3370  1.1022 -0.4335
22744SOL    HW273080   7.724   0.151   1.921  1.6949  0.2286 -0.7492
22745SOL     OW73081   7.444   2.478   0.145  0.2234 -0.0132 -0.5468
22745SOL    HW173082   7.462   2.558   0.193  0.2602 -0.1685 -0.3005
22745SOL    HW273083   7.350   2.464   0.155  0.0774  0.4305 -1.2641
22746SOL     OW73084   8.566   1.347   9.986 -0.6258 -0.1943  0.3878
22746SOL    HW173085   8.607   1.433   9.983  0.4093 -0.7116 -2.8494
22746SOL    HW273086   8.506   1.346   9.912 -2.1257 -1.5659  1.5904
22747SOL     OW73087   7.515   0.548   0.320  0.4473  0.1583 -0.2882
22747SOL    HW173088   7.537   0.586   0.405 -0.0624  0.0019 -0.0856
22747SOL    HW273089   7.595   0.505   0.291 -0.1854 -2.2666  1.4290
22748SOL     OW73090   7.750   0.920   1.133 -0.0742 -0.4147 -0.2519
22748SOL    HW173091   7.713   0.844   1.178  0.0396 -0.3272 -0.0095
22748SOL    HW273092   7.758   0.987   1.201  1.8717 -0.9032  0.0404
22749SOL     OW73093   8.828   9.675   0.036  0.7634 -0.8752  0.0427
22749SOL    HW173094   8.851   9.639   0.122  3.4858  2.2812  0.7206
22749SOL    HW273095   8.736   9.700   0.045  0.5818 -2.0069  1.5211
22750SOL     OW73096   0.307   0.493   0.343 -0.5173  0.8121 -0.1684
22750SOL    HW173097   0.286   0.490   0.250 -2.0910 -1.5720  0.2086
22750SOL    HW273098   0.334   0.583   0.359 -1.7257  1.6419 -2.6040
22751SOL     OW73099   0.291   1.602   1.543 -0.2951  0.8436 -0.2426
22751SOL    HW173100   0.373   1.567   1.576  0.4899  1.0936 -1.8971
22751SOL    HW273101   0.225   1.573   1.607  0.7624 -1.0866  0.0115
22752SOL     OW73102   0.054   0.544   1.463  0.3948  0.5786  0.0543
22752SOL    HW173103   0.063   0.450   1.473 -1.3154  0.3126 -0.7560
22752SOL    HW273104   0.126   0.581   1.514  1.0889 -1.1586  0.3469
22753SOL     OW73105   0.099   0.074   0.541  0.0690  0.3925  0.2610
22753SOL    HW173106   0.147   0.154   0.565  1.8720 -0.2973 -0.9063
22753SOL    HW273107   0.147   0.040   0.465 -0.2556 -2.1818  1.1793
22754SOL     OW73108   8.801   0.237   0.146  0.1504  0.4806 -0.1472
22754SOL    HW173109   8.834   0.327   0.143 -0.9630  0.8655 -0.9388
22754SOL    HW273110   8.878   0.185   0.171  0.9964  1.5530 -0.4549
22755SOL     OW73111   9.596   0.960   0.809  0.0161 -0.4913  0.1801
22755SOL    HW173112   9.542   0.892   0.849  0.3912 -1.4906 -0.9785
22755SOL    HW273113   9.684   0.922   0.805 -0.1006 -0.6366 -2.0173
22756SOL     OW73114   9.681   1.534   0.909  0.1403 -0.1192  0.4354
22756SOL    HW173115   9.738   1.520   0.834 -0.7095  2.1436 -0.6700
22756SOL    HW273116   9.690   1.627   0.930 -2.2158  0.0411  0.9416
22757SOL     OW73117   9.906   1.827   1.000  0.2880 -0.2283 -0.2757
22757SOL    HW173118   9.939   1.895   1.059  0.9242 -0.1991 -0.6623
22757SOL    HW273119   9.893   1.751   1.056 -1.7750  0.6228  0.4316
22758SOL     OW73120   8.313   0.537   2.413  0.5576 -0.4233  0.2988
22758SOL    HW173121   8.406   0.542   2.391  0.3833 -2.0366 -0.9810
22758SOL    HW273122   8.306   0.458   2.466 -0.4008 -1.6947 -1.6434
22759SOL     OW73123   6.910   1.747   1.460 -0.5937 -0.0309  0.4715
22759SOL    HW173124   6.952   1.676   1.411  1.1491  0.5715  1.0680
22759SOL    HW273125   6.818   1.741   1.436 -0.4530 -2.4178  0.3988
22760SOL     OW73126   9.230   1.199   1.360  0.4782  0.1962  0.3442
22760SOL    HW173127   9.138   1.194   1.336  0.8189 -0.4350 -0.8662
22760SOL    HW273128   9.267   1.264   1.300  0.9992 -0.1919  0.2430
22761SOL     OW73129   8.310   0.304   1.504  0.2799 -0.3157  0.4050
22761SOL    HW173130   8.275   0.379   1.455 -0.7536 -0.8463  0.3191
22761SOL    HW273131   8.392   0.337   1.543  0.1759  0.6522 -0.1816
22762SOL     OW73132   9.016   9.732   2.094 -0.1035  0.4698 -0.1423
22762SOL    HW173133   8.959   9.809   2.092  0.3882  0.8256 -0.6307
22762SOL    HW273134   8.971   9.667   2.039 -0.2788  0.5789 -0.1259
22763SOL     OW73135   8.004   0.964   9.919 -0.0323 -0.2109 -0.4365
22763SOL    HW173136   8.034   0.995  10.004  0.4731  3.0956 -1.7453
22763SOL    HW273137   7.909   0.973   9.923 -0.1548 -1.6471  0.3308
22764SOL     OW73138   6.521   0.065   1.893 -0.1861  0.4367  0.2469
22764SOL    HW173139   6.459   0.095   1.826  1.0627 -0.3526 -1.2942
22764SOL    HW273140   6.569   0.144   1.918 -2.1875  1.1862  1.9128
22765SOL     OW73141   8.071   0.450   1.198  0.1138 -0.1037  0.6030
22765SOL    HW173142   8.142   0.453   1.262  1.0884 -2.7140 -0.2795
22765SOL    HW273143   8.100   0.384   1.134 -1.7412  0.9993 -1.4138
22766SOL     OW73144   6.596   1.750   1.664 -0.0386  0.5849 -0.5053
22766SOL    HW173145   6.656   1.767   1.736  1.0647  1.3980 -1.5873
22766SOL    HW273146   6.631   1.802   1.591 -0.0062 -1.7687 -2.2094
22767SOL     OW73147   8.418   1.971   0.376 -0.2099 -0.4493 -0.6785
22767SOL    HW173148   8.490   1.948   0.317 -0.0122 -0.5286 -0.4106
22767SOL    HW273149   8.366   1.892   0.383  0.1430 -0.6464 -0.2170
22768SOL     OW73150   9.893   1.616   1.610  0.1627 -0.1412 -0.0366
22768SOL    HW173151   9.951   1.540   1.609  0.5926  0.1856  0.1342
22768SOL    HW273152   9.829   1.598   1.541  0.0484 -0.8244  0.2408
22769SOL     OW73153   8.577   1.254   0.805 -0.3159 -0.4311 -0.3473
22769SOL    HW173154   8.629   1.300   0.871  0.3655  0.1772 -1.2998
22769SOL    HW273155   8.535   1.183   0.854 -0.5053  0.5327  0.9132
22770SOL     OW73156   8.492   0.284   1.204  0.2121  0.2948 -0.4841
22770SOL    HW173157   8.571   0.285   1.258 -0.1763  0.3484  0.0900
22770SOL    HW273158   8.455   0.372   1.213 -0.1472  0.1375 -0.3992
22771SOL     OW73159   8.122   0.835   1.937  0.5914  0.3380 -0.3791
22771SOL    HW173160   8.084   0.858   2.022 -0.7520  0.2696 -0.9438
22771SOL    HW273161   8.116   0.740   1.933  1.2011  0.2972 -0.2968
22772SOL     OW73162   7.667   0.473   2.073 -0.8493 -0.3117  0.6412
22772SOL    HW173163   7.573   0.465   2.091 -1.1532 -2.0166 -1.5395
22772SOL    HW273164   7.699   0.383   2.071 -0.1285 -0.0311 -3.2886
22773SOL     OW73165   9.215   1.082   2.060  0.0162 -0.3182 -0.7262
22773SOL    HW173166   9.307   1.075   2.035  0.4220  0.5971  0.4466
22773SOL    HW273167   9.168   1.031   1.994  1.4508 -1.5741 -0.8050
22774SOL     OW73168   7.688   9.417   0.411 -0.1075  0.4227  0.4576
22774SOL    HW173169   7.636   9.491   0.441  0.1519  0.5379  0.6223
22774SOL    HW273170   7.625   9.360   0.367 -0.3502  0.6244  0.5412
22775SOL     OW73171   8.341   8.743   1.155  0.1893 -0.2954 -0.6524
22775SOL    HW173172   8.335   8.836   1.133 -0.7553 -0.4513 -1.0886
22775SOL    HW273173   8.265   8.726   1.211  0.4480 -0.7639 -0.4405
22776SOL     OW73174   8.260   1.250   0.394  0.7934  0.2605 -0.4675
22776SOL    HW173175   8.224   1.203   0.319  1.4292 -2.5772  0.9608
22776SOL    HW273176   8.184   1.270   0.449  0.5788  0.5810 -0.8724
22777SOL     OW73177   8.618   1.797   1.702 -0.1866 -0.5525  0.1981
22777SOL    HW173178   8.567   1.719   1.725  1.1755 -1.2140  1.0541
22777SOL    HW273179   8.679   1.767   1.635  0.6599 -0.3369  0.8691
22778SOL     OW73180   9.405   0.258   2.337  0.0956 -0.6230  0.0384
22778SOL    HW173181   9.458   0.218   2.268  0.7845  0.7651 -0.2562
22778SOL    HW273182   9.435   0.349   2.341 -0.2432 -0.5644  1.8601
22779SOL     OW73183   6.568   1.406   0.379 -0.5084  0.2026 -0.2469
22779SOL    HW173184   6.580   1.489   0.334 -0.5751  1.4330  1.9132
22779SOL    HW273185   6.598   1.423   0.469 -0.8960 -1.9900  0.3305
22780SOL     OW73186   8.561   0.049   0.592  0.1622 -0.2036  0.6064
22780SOL    HW173187   8.502   0.124   0.598  0.3355 -0.0432  0.2942
22780SOL    HW273188   8.515  -0.021   0.638 -0.9770 -0.5246 -0.9803
22781SOL     OW73189   6.624   9.647   1.993  0.3099  0.5795 -0.1001
22781SOL    HW173190   6.708   9.618   2.029 -1.3345 -2.2026  1.6513
22781SOL    HW273191   6.597   9.718   2.051  0.0261 -0.5475  1.1492
22782SOL     OW73192   8.666   9.518   9.839 -0.0764 -0.0832  0.3170
22782SOL    HW173193   8.602   9.553   9.901 -0.1074  0.2120  0.1203
22782SOL    HW273194   8.741   9.578   9.844  0.6664 -1.0853  1.3982
22783SOL     OW73195   8.982   0.478   1.004 -0.1136 -0.0396  0.2548
22783SOL    HW173196   9.027   0.395   0.987  0.8567 -0.0706  2.7793
22783SOL    HW273197   8.909   0.478   0.941  0.5486 -2.2479 -0.5870
22784SOL     OW73198   7.478   1.552   2.125  0.2485  0.1937  0.2258
22784SOL    HW173199   7.442   1.627   2.077  0.9824  1.0577  1.0036
22784SOL    HW273200   7.573   1.569   2.128  0.3563 -0.4975  0.8677
22785SOL     OW73201   9.505   2.551   2.494  0.0619  0.2593 -0.7973
22785SOL    HW173202   9.468   2.501   2.422 -1.0765 -0.0575 -0.0113
22785SOL    HW273203   9.433   2.561   2.556  0.9688  0.6852  0.2116
22786SOL     OW73204   7.834   1.541   2.193 -0.7112  0.4792 -0.5096
22786SOL    HW173205   7.814   1.449   2.214  0.3237  0.1607 -0.9159
22786SOL    HW273206   7.891   1.536   2.116 -0.9278  1.4834 -0.7387
22787SOL     OW73207   9.593   0.086   0.343  0.8883  0.1828  0.7079
22787SOL    HW173208   9.623   0.059   0.256  0.0629  0.5261  0.3068
22787SOL    HW273209   9.672   0.088   0.396  1.0167 -2.6383  0.6671
22788SOL     OW73210   0.892   2.281   0.640 -0.6873  0.3011  0.1802
22788SOL    HW173211   0.896   2.324   0.726 -1.2847 -0.4769  0.6035
22788SOL    HW273212   0.854   2.347   0.582 -0.9911  0.5697  0.6847
22789SOL     OW73213   7.899   0.530   0.993  0.1984 -0.2211 -0.1619
22789SOL    HW173214   7.944   0.509   1.076 -1.3763 -1.9942  0.2764
22789SOL    HW273215   7.970   0.548   0.932  1.3867  2.2048  1.8338
22790SOL     OW73216   7.656   9.201   1.588 -0.4044  0.0820  0.6615
22790SOL    HW173217   7.622   9.269   1.647  0.0684  1.2717 -0.4026
22790SOL    HW273218   7.638   9.235   1.500  0.8154 -0.6621  0.1186
22791SOL     OW73219   7.847   0.191   1.619  0.4120  0.1186 -0.0385
22791SOL    HW173220   7.867   0.113   1.672  0.6585 -0.4793 -1.0063
22791SOL    HW273221   7.887   0.173   1.534  0.8943  1.5232 -0.1128
22792SOL     OW73222   9.559   9.782   0.794 -0.0488 -0.9608  0.5083
22792SOL    HW173223   9.540   9.873   0.816 -0.1018 -0.6487 -0.8260
22792SOL    HW273224   9.654   9.774   0.806 -0.0874 -0.8296  0.9328
22793SOL     OW73225   7.787   2.241   1.861  0.4265  0.8288 -0.0606
22793SOL    HW173226   7.776   2.168   1.801 -0.2784  0.2089  0.8056
22793SOL    HW273227   7.750   2.316   1.816  3.3603  1.2011 -1.9839
22794SOL     OW73228   7.780   1.412   0.957 -0.3641 -0.3307 -0.0428
22794SOL    HW173229   7.824   1.489   0.921 -0.5631 -0.4322 -0.5061
22794SOL    HW273230   7.816   1.402   1.045  1.0176 -0.7886 -0.6460
22795SOL     OW73231   7.296   0.181   2.215  0.0901  0.6215  0.4210
22795SOL    HW173232   7.370   0.123   2.197 -0.3243  0.1723  0.1421
22795SOL    HW273233   7.323   0.265   2.179 -0.4829 -0.1185 -1.8332
22796SOL     OW73234   7.752   9.566   1.573 -0.0702  0.6603  0.1025
22796SOL    HW173235   7.718   9.647   1.534 -0.1298  0.0163 -1.1838
22796SOL    HW273236   7.677   9.507   1.576  0.4240 -0.0167 -0.7460
22797SOL     OW73237   9.272   1.525   0.464 -0.2027 -0.4663 -0.0650
22797SOL    HW173238   9.277   1.449   0.406  1.5178  0.2534 -0.9190
22797SOL    HW273239   9.274   1.488   0.552 -0.9631 -1.4825 -0.4637
22798SOL     OW73240   7.319   0.755   0.512 -0.3942  0.0814  0.3419
22798SOL    HW173241   7.382   0.686   0.537  0.2087  0.2709 -0.6155
22798SOL    HW273242   7.374   0.828   0.485 -1.0332  1.0296  1.5492
22799SOL     OW73243   7.010   2.197   2.382  0.7497 -0.3885 -0.2775
22799SOL    HW173244   6.981   2.129   2.442  0.8374 -1.2798 -1.2255
22799SOL    HW273245   7.100   2.217   2.410  0.3976  0.0075  0.5791
22800SOL     OW73246   7.479   1.141   0.628  0.7492  0.3938  0.4295
22800SOL    HW173247   7.471   1.080   0.555  0.9903  2.6070 -1.5111
22800SOL    HW273248   7.538   1.097   0.689  1.0620 -1.2328 -0.9989
22801SOL     OW73249   7.346   0.141   1.790 -0.3873  0.1564  1.1918
22801SOL    HW173250   7.310   0.227   1.768 -1.6350 -0.4823  0.7321
22801SOL    HW273251   7.280   0.078   1.762  0.8470 -1.0131  0.8321
22802SOL     OW73252   6.761   1.633   0.836  0.7664  0.0739  0.1597
22802SOL    HW173253   6.779   1.552   0.884  1.5667 -0.1690 -0.5386
22802SOL    HW273254   6.693   1.677   0.887  1.5724 -0.2031  1.4836
22803SOL     OW73255   7.142   0.805   0.133 -0.1586 -0.4793 -0.9846
22803SOL    HW173256   7.205   0.825   0.064  1.3723  0.9129  0.7928
22803SOL    HW273257   7.156   0.712   0.152 -0.8275 -0.9578 -2.7669
22804SOL     OW73258   9.376   0.774   0.899  0.1310 -0.2654  0.6515
22804SOL    HW173259   9.325   0.711   0.849 -0.0993  0.0909  0.4330
22804SOL    HW273260   9.319   0.798   0.972  0.3168 -0.4969  0.8725
22805SOL     OW73261   7.022   1.941   1.112  0.0386 -1.0949 -0.0553
22805SOL    HW173262   7.066   1.882   1.052  0.3261 -0.6904 -0.2446
22805SOL    HW273263   7.047   2.028   1.083  1.6502 -0.9217  1.7249
22806SOL     OW73264   7.187   1.603   0.738 -0.7828 -0.0058 -0.4784
22806SOL    HW173265   7.118   1.540   0.714 -1.6957  1.5274 -2.0782
22806SOL    HW273266   7.217   1.638   0.654  1.0926  0.2726  0.2808
22807SOL     OW73267   0.154   3.349   1.510  1.1155 -0.2727 -0.4255
22807SOL    HW173268   0.074   3.394   1.487  2.2904  2.1045  0.0017
22807SOL    HW273269   0.161   3.359   1.605  1.5068 -1.1596 -0.3562
22808SOL     OW73270   0.327   0.101   0.854 -0.1073  0.0549 -0.1941
22808SOL    HW173271   0.380   0.081   0.931 -2.1978 -0.7057  1.0789
22808SOL    HW273272   0.263   0.165   0.885 -0.4301  0.3962 -1.5244
22809SOL     OW73273   7.191   2.237   9.978  0.4269  0.7468  0.0730
22809SOL    HW173274   7.112   2.187  10.001  2.2441 -2.2381  0.0822
22809SOL    HW273275   7.219   2.277  10.060 -0.0479  0.2915  0.4580
22810SOL     OW73276   7.833   2.424   0.956  0.0666  0.1661 -0.1620
22810SOL    HW173277   7.743   2.408   0.927 -0.1556  0.1969  0.5153
22810SOL    HW273278   7.875   2.337   0.951  0.9784  0.7069 -3.7622
22811SOL     OW73279   8.504   0.853   0.625 -0.1070  0.0698 -0.0880
22811SOL    HW173280   8.456   0.773   0.647  1.0243 -0.0210  2.1720
22811SOL    HW273281   8.508   0.853   0.529 -0.4480 -2.3690 -0.1279
22812SOL     OW73282   7.876   1.588   1.602  1.0293 -0.0050 -0.6054
22812SOL    HW173283   7.955   1.641   1.614  1.7750 -1.1871 -0.3080
22812SOL    HW273284   7.857   1.553   1.689  0.2980  0.0984 -0.7179
22813SOL     OW73285   7.708   2.616   0.044 -0.2883  0.4600  0.2799
22813SOL    HW173286   7.775   2.600  -0.023 -0.7467 -1.2044  0.2146
22813SOL    HW273287   7.757   2.647   0.120  0.4474  0.2324 -0.0943
22814SOL     OW73288   9.207   1.378   3.165  0.2120  0.0849 -0.4233
22814SOL    HW173289   9.262   1.413   3.094 -2.1316 -0.1211 -2.3991
22814SOL    HW273290   9.262   1.314   3.208  1.0644 -1.2281 -3.3152
22815SOL     OW73291   8.711   0.525   1.221 -0.4016  0.4191 -0.2440
22815SOL    HW173292   8.806   0.521   1.231 -0.3168  0.5785 -0.9702
22815SOL    HW273293   8.695   0.600   1.165 -0.8568 -0.5153 -1.3863
22816SOL     OW73294   8.803   0.132   1.780  0.5281  0.5559  0.1729
22816SOL    HW173295   8.895   0.106   1.779  0.2092 -0.5798  0.7794
22816SOL    HW273296   8.806   0.228   1.777  1.7430  0.5537  1.0855
22817SOL     OW73297   8.663   0.676   0.064 -0.2018 -0.1297  0.5632
22817SOL    HW173298   8.655   0.688   0.159  1.1724  2.1970  0.4169
22817SOL    HW273299   8.604   0.603   0.044 -0.7449 -0.4475  3.1546
22818SOL     OW73300   7.353   1.606   1.662  0.3040 -0.3534 -0.3812
22818SOL    HW173301   7.402   1.582   1.583  0.0701  0.1600 -0.6935
22818SOL    HW273302   7.411   1.667   1.709 -0.1432  0.4995 -0.9081
22819SOL     OW73303   8.202   0.864   9.559 -0.4566 -0.0505 -0.1503
22819SOL    HW173304   8.237   0.790   9.509  1.6513  1.4971 -1.0798
22819SOL    HW273305   8.247   0.940   9.523 -1.8348  1.5765  1.4593
22820SOL     OW73306   8.044   2.434   9.608  0.0342 -0.1481 -0.3338
22820SOL    HW173307   7.976   2.384   9.653 -0.7240 -0.5356 -1.9050
22820SOL    HW273308   8.078   2.493   9.676 -0.4151 -1.4045  1.0157
22821SOL     OW73309   7.915   9.562   1.777  0.0149 -0.0592 -0.1983
22821SOL    HW173310   7.886   9.647   1.810  0.2372 -0.4767  1.1121
22821SOL    HW273311   7.862   9.547   1.698 -0.2590  1.1341 -0.2445
22822SOL     OW73312   8.661   0.980   1.358 -0.3406 -0.3252 -1.1036
22822SOL    HW173313   8.717   0.906   1.336 -1.1195 -0.9980 -0.8365
22822SOL    HW273314   8.608   0.994   1.279 -1.3238 -1.0929 -0.5934
22823SOL     OW73315   9.536   2.035   1.480  0.6443  0.0607  0.0818
22823SOL    HW173316   9.632   2.030   1.486  0.6085 -0.8976  0.0501
22823SOL    HW273317   9.506   2.002   1.565  0.3356 -0.5312 -0.2495
22824SOL     OW73318   8.532   9.572   9.272  0.1310  0.1002  0.3339
22824SOL    HW173319   8.475   9.634   9.227  1.5766  0.7601 -0.6390
22824SOL    HW273320   8.478   9.494   9.286 -0.7043  0.3381 -1.4518
22825SOL     OW73321   7.632   1.463   0.728 -0.2672 -0.0113  0.1512
22825SOL    HW173322   7.542   1.448   0.759 -1.0903  1.0075 -1.6757
22825SOL    HW273323   7.687   1.441   0.803 -2.0019 -1.3827  1.0586
22826SOL     OW73324   9.595   8.967   1.553  0.2197  0.2455  0.0957
22826SOL    HW173325   9.669   9.027   1.555  1.6791 -1.4986 -0.2885
22826SOL    HW273326   9.574   8.959   1.459  1.8426 -1.9888 -0.1020
22827SOL     OW73327   7.785   1.184   0.453 -0.3387 -0.2724 -0.4881
22827SOL    HW173328   7.742   1.206   0.536 -1.7540  0.5393 -1.4276
22827SOL    HW273329   7.713   1.166   0.392  0.6965 -1.5296 -1.3792
22828SOL     OW73330   7.046   0.395   2.020  0.2316  0.3653  0.7667
22828SOL    HW173331   7.113   0.452   2.058  1.7657 -0.6009 -0.4415
22828SOL    HW273332   7.086   0.360   1.940 -0.8142 -2.1135  1.2854
22829SOL     OW73333   8.426   1.116   1.747 -0.3835 -0.1562 -0.1299
22829SOL    HW173334   8.514   1.132   1.711  0.3117 -0.5530  1.3308
22829SOL    HW273335   8.421   1.174   1.824 -0.8957 -1.0975  0.5559
22830SOL     OW73336   8.091   0.633   9.942  0.4497  0.7231  0.3618
22830SOL    HW173337   8.137   0.679  10.013 -1.2577  0.5313  1.6141
22830SOL    HW273338   8.117   0.542   9.953  1.6211  0.9496 -0.4007
22831SOL     OW73339   0.348   2.152   0.012  0.2779  0.2616 -0.5770
22831SOL    HW173340   0.353   2.121  -0.079 -0.6971 -0.1058 -0.5102
22831SOL    HW273341   0.284   2.095   0.053  0.6478  0.4924  0.3259
22832SOL     OW73342   8.005   0.574   9.383  0.0311  0.1891 -0.1906
22832SOL    HW173343   7.939   0.576   9.452  0.7812  1.1870  0.5235
22832SOL    HW273344   8.088   0.582   9.430  0.4382  4.1720 -1.3493
22833SOL     OW73345   8.768   8.833   0.952 -0.2134  0.0557 -0.4706
22833SOL    HW173346   8.706   8.813   1.022  0.0621 -0.6773 -0.4314
22833SOL    HW273347   8.784   8.927   0.961  1.7784 -0.4691  2.0722
22834SOL     OW73348   8.317   1.767   1.284 -0.2262 -0.5830 -0.0645
22834SOL    HW173349   8.253   1.834   1.259  1.4498  1.6997  1.6060
22834SOL    HW273350   8.272   1.717   1.353 -0.7047  0.1372  0.1497
22835SOL     OW73351   7.764   9.514   2.152  0.3020 -0.1932 -0.4849
22835SOL    HW173352   7.739   9.590   2.099  0.6665 -0.1698 -0.6199
22835SOL    HW273353   7.741   9.540   2.242 -1.2961 -0.6389 -0.7442
22836SOL     OW73354   9.731   2.248   1.291  0.2055 -0.3256 -0.0021
22836SOL    HW173355   9.750   2.172   1.346  0.6918  0.4174  0.8624
22836SOL    HW273356   9.665   2.297   1.339  1.5163  0.9667  0.5275
22837SOL     OW73357   8.093   2.026   1.800 -0.5950  0.0125 -0.5550
22837SOL    HW173358   8.128   2.110   1.770  0.4261 -0.9398 -2.0630
22837SOL    HW273359   8.053   2.046   1.885  2.1047  1.4594  0.4258
22838SOL     OW73360   0.639   1.624   0.852 -0.2110 -0.2340  0.0644
22838SOL    HW173361   0.562   1.607   0.906 -1.2459  3.0034 -0.2473
22838SOL    HW273362   0.711   1.629   0.915 -0.6194 -1.1950  0.6138
22839SOL     OW73363   6.279   9.746   1.303  0.6841 -0.2915 -0.6187
22839SOL    HW173364   6.365   9.722   1.337  1.2000  0.9167 -1.0490
22839SOL    HW273365   6.239   9.798   1.373  1.2878  1.2253 -1.3951
22840SOL     OW73366   8.640   9.159   3.070  0.0745  0.7670  0.5426
22840SOL    HW173367   8.731   9.135   3.054 -0.0639  1.6696 -1.8123
22840SOL    HW273368   8.622   9.128   3.159  2.1120 -1.0610  0.3611
22841SOL     OW73369   8.929   2.747   1.195  0.1326  0.4370  0.3376
22841SOL    HW173370   8.874   2.779   1.266  0.5898  0.1199  0.8367
22841SOL    HW273371   9.018   2.757   1.227  0.3886  1.4276 -0.6676
22842SOL     OW73372   7.158   1.435   0.464 -0.3409  0.3831  0.0178
22842SOL    HW173373   7.240   1.462   0.422  0.3887  0.3441  1.3696
22842SOL    HW273374   7.100   1.511   0.455  0.6124  1.2602  0.9740
22843SOL     OW73375   0.102   1.678   1.364  0.0850  0.5743  0.0107
22843SOL    HW173376   0.178   1.664   1.419  1.2577  0.1916 -1.6746
22843SOL    HW273377   0.078   1.770   1.380  1.4175  0.9504 -0.0883
22844SOL     OW73378   8.886   0.413   9.559 -0.2791  0.3611 -0.9159
22844SOL    HW173379   8.916   0.377   9.642 -1.7703 -0.7507 -0.8331
22844SOL    HW273380   8.797   0.444   9.576 -2.2680 -3.7100 -3.0403
22845SOL     OW73381   9.409   9.761   0.178  0.3010  0.4192  0.2247
22845SOL    HW173382   9.350   9.724   0.112  0.2697 -2.8765  1.9609
22845SOL    HW273383   9.496   9.746   0.143  0.2269  1.9726 -0.6754
22846SOL     OW73384   7.982   2.509   0.345 -0.1701  0.1434  0.0356
22846SOL    HW173385   8.070   2.526   0.379  0.0748  0.6480 -0.8436
22846SOL    HW273386   7.974   2.568   0.270 -1.4427  0.4523  0.4093
22847SOL     OW73387   6.494   1.347   3.130  0.1297  0.0064 -0.2809
22847SOL    HW173388   6.457   1.382   3.049  0.9690 -0.9921 -1.1107
22847SOL    HW273389   6.541   1.268   3.103  1.8639  0.6084  0.9353
22848SOL     OW73390   7.779   1.879   0.849 -0.3533 -0.1126  0.2420
22848SOL    HW173391   7.760   1.861   0.757  0.2135  0.7778 -0.0638
22848SOL    HW273392   7.875   1.880   0.853 -0.3794  0.0968  0.7930
22849SOL     OW73393   7.152   1.792   0.945  0.1473 -0.2241 -0.2349
22849SOL    HW173394   7.156   1.718   0.884  0.2354 -0.5883  0.2103
22849SOL    HW273395   7.239   1.795   0.986  0.8598  1.4434 -1.7760
22850SOL     OW73396   8.927   1.351   1.018  0.6322  0.0679  0.3776
22850SOL    HW173397   9.022   1.344   1.016  0.6753  0.7455 -1.4720
22850SOL    HW273398   8.897   1.282   0.959  0.0567  0.6934 -0.0766
22851SOL     OW73399   6.192   0.667   9.991 -0.0148 -0.4141 -0.0907
22851SOL    HW173400   6.149   0.651   9.908  0.4872 -0.3498 -0.3671
22851SOL    HW273401   6.235   0.584  10.013  2.2327  0.3659 -1.3161
22852SOL     OW73402   8.613   2.733   0.216 -0.3104  0.0183 -0.0226
22852SOL    HW173403   8.625   2.714   0.123  1.5977  2.4050 -0.3226
22852SOL    HW273404   8.535   2.789   0.219 -0.4086 -0.1084 -0.1543
22853SOL     OW73405   8.111   0.741   2.806 -0.4498 -0.6828 -0.8351
22853SOL    HW173406   8.191   0.771   2.763  1.2750 -2.3880  1.0804
22853SOL    HW273407   8.089   0.810   2.868 -1.1587  0.3210 -2.1690
22854SOL     OW73408   7.488   2.413   1.421  0.1350  0.1848  0.1028
22854SOL    HW173409   7.493   2.469   1.344  2.8455 -0.6328 -0.3647
22854SOL    HW273410   7.527   2.465   1.491 -0.6684  0.2342  0.5241
22855SOL     OW73411   8.860   0.494   2.001 -0.2911  0.4062 -0.2162
22855SOL    HW173412   8.904   0.577   1.981 -0.0893  0.1771 -0.7106
22855SOL    HW273413   8.922   0.446   2.055 -0.2518  0.4135 -0.2545
22856SOL     OW73414   7.783   1.712   0.103 -0.0178 -0.1883  0.4836
22856SOL    HW173415   7.814   1.777   0.040 -1.1469 -0.8556 -0.7756
22856SOL    HW273416   7.809   1.747   0.188  0.8028  1.1210 -0.2909
22857SOL     OW73417   8.310   1.913   2.131  0.5443  0.5996 -0.2430
22857SOL    HW173418   8.333   1.910   2.038 -0.2846  1.6852 -0.4916
22857SOL    HW273419   8.291   2.006   2.148  0.6641  0.4071  1.0045
22858SOL     OW73420   8.314   1.094   9.455 -0.4969  0.1777 -0.1015
22858SOL    HW173421   8.258   1.118   9.382  3.0551  0.3102 -2.9309
22858SOL    HW273422   8.355   1.177   9.482  1.5202 -0.5460 -0.8869
22859SOL     OW73423   8.217   9.870   1.035  0.1324  0.3853 -0.0734
22859SOL    HW173424   8.224   9.877   0.940 -0.5400 -0.6144 -0.1988
22859SOL    HW273425   8.280   9.802   1.059  0.4572  0.7868  0.2268
22860SOL     OW73426   8.703   1.857   9.734 -0.1859 -0.4502  0.1840
22860SOL    HW173427   8.665   1.916   9.668  2.6377  0.9853 -0.2181
22860SOL    HW273428   8.708   1.910   9.813  0.7316 -0.7029  0.2963
22861SOL     OW73429   7.008   9.752   3.199 -0.4683 -0.2895 -0.1235
22861SOL    HW173430   7.099   9.725   3.193  0.2524  1.6268  1.4331
22861SOL    HW273431   6.960   9.672   3.220  1.3697 -0.6727  2.9256
22862SOL     OW73432   8.570   0.652   2.300 -0.2517 -0.2563 -0.1857
22862SOL    HW173433   8.592   0.667   2.208 -2.3575 -1.4919 -0.9100
22862SOL    HW273434   8.524   0.732   2.326 -2.2222 -1.0921 -1.0503
22863SOL     OW73435   8.352   1.670   2.609  0.1636 -0.0520 -0.3770
22863SOL    HW173436   8.318   1.713   2.531 -0.8211 -0.7881 -0.3721
22863SOL    HW273437   8.397   1.739   2.658 -0.7729  0.8055 -0.7156
22864SOL     OW73438   8.843   1.593   1.784 -0.0096 -0.1180 -0.1009
22864SOL    HW173439   8.930   1.556   1.788  0.5094  0.5994 -3.2261
22864SOL    HW273440   8.784   1.518   1.793  0.9209 -0.7399  0.9168
22865SOL     OW73441   7.525   1.457   1.010 -0.2731  0.4860  0.5345
22865SOL    HW173442   7.615   1.428   0.996 -0.0472  0.6253  1.6228
22865SOL    HW273443   7.502   1.422   1.096 -1.6323 -0.4577 -0.2057
22866SOL     OW73444   9.422   1.695   4.069 -0.3611 -0.0638  0.3931
22866SOL    HW173445   9.514   1.707   4.045 -0.8036  0.4850 -1.0657
22866SOL    HW273446   9.412   1.747   4.149  0.6900 -0.4616  0.7944
22867SOL     OW73447   9.416   9.841   2.450  0.1386  0.1600  0.3805
22867SOL    HW173448   9.385   9.918   2.499 -0.3906 -0.0638  0.3936
22867SOL    HW273449   9.360   9.837   2.373  1.6677  1.1407 -0.8044
22868SOL     OW73450   9.042   9.342   2.574 -0.1137  0.7498  0.0678
22868SOL    HW173451   9.009   9.274   2.515  0.4162  0.9484 -0.4595
22868SOL    HW273452   8.982   9.416   2.562  0.2363  0.9368 -0.5311
22869SOL     OW73453   9.731   1.979   3.585  0.1950  0.7106  0.4649
22869SOL    HW173454   9.754   2.061   3.541 -1.0007  0.6691 -0.2621
22869SOL    HW273455   9.813   1.930   3.590  0.2404  0.4711 -2.2518
22870SOL     OW73456   0.493   2.282   3.946  0.2631 -0.0274  0.1209
22870SOL    HW173457   0.521   2.326   3.866  0.0401  0.2003  0.1663
22870SOL    HW273458   0.397   2.278   3.939  0.3706 -1.7058 -0.5043
22871SOL     OW73459   8.940   2.227   3.951 -0.1060  0.5347  0.1548
22871SOL    HW173460   9.019   2.184   3.919  0.2547  1.9642 -0.9256
22871SOL    HW273461   8.930   2.196   4.041  1.2464 -0.2593  0.0354
22872SOL     OW73462   6.417   1.451   3.608  0.2365 -0.2467  0.4981
22872SOL    HW173463   6.383   1.417   3.525 -1.1041 -1.2049  1.4273
22872SOL    HW273464   6.442   1.373   3.658 -0.6093  0.2355  1.6966
22873SOL     OW73465   8.840   1.165   1.819 -0.1871  0.6342  0.2323
22873SOL    HW173466   8.839   1.165   1.723 -0.2188 -0.1143  0.2324
22873SOL    HW273467   8.824   1.074   1.843  2.1177  0.4001  0.9405
22874SOL     OW73468   7.753   1.359   1.782  0.2214  0.5104 -0.3988
22874SOL    HW173469   7.832   1.309   1.762  0.5721  0.7708  0.3493
22874SOL    HW273470   7.724   1.327   1.867 -0.4926  0.4037 -0.6789
22875SOL     OW73471   7.904   1.632   3.592 -0.4223  0.2091 -0.6936
22875SOL    HW173472   7.823   1.672   3.562 -0.7447  0.4686  0.4966
22875SOL    HW273473   7.876   1.551   3.635 -0.0199  0.1448 -0.5507
22876SOL     OW73474   0.615   2.289   0.080 -0.5075 -0.6763 -0.1754
22876SOL    HW173475   0.557   2.247   0.017  0.0459 -1.8203  0.0504
22876SOL    HW273476   0.661   2.216   0.122 -1.5845  0.0062  2.2633
22877SOL     OW73477   7.396   0.446   2.627 -0.0835 -0.4295 -0.1776
22877SOL    HW173478   7.384   0.359   2.664  2.6820 -1.0691 -0.6230
22877SOL    HW273479   7.363   0.439   2.537 -1.2177 -0.5949  0.2502
22878SOL     OW73480   7.988   2.072   2.620  0.0754 -0.3206  0.4452
22878SOL    HW173481   8.040   2.087   2.699 -0.8455  0.3576  0.9436
22878SOL    HW273482   8.027   2.127   2.553  0.2920 -0.1820  0.6872
22879SOL     OW73483   5.961   1.580   3.101  0.5184  0.3945 -0.1832
22879SOL    HW173484   6.045   1.534   3.091 -0.1518 -1.0475  0.5465
22879SOL    HW273485   5.961   1.647   3.033  2.3182  0.4860 -0.1110
22880SOL     OW73486   9.439   9.912   2.007 -0.2133  0.4119  0.1589
22880SOL    HW173487   9.499   9.863   1.951  1.8305 -0.2553  2.7898
22880SOL    HW273488   9.475  10.001   2.009 -0.6842  0.6085 -0.1638
22881SOL     OW73489   7.531   1.026   2.652 -0.0001  0.0504 -0.1764
22881SOL    HW173490   7.597   0.960   2.632  2.5212  2.6519 -0.6873
22881SOL    HW273491   7.518   1.073   2.570  1.0872  2.6336  1.0712
22882SOL     OW73492   0.975   2.666   1.942  0.1954  0.1722  0.1218
22882SOL    HW173493   0.900   2.617   1.908 -0.2303  0.6814  0.3150
22882SOL    HW273494   1.036   2.598   1.971  0.5309 -0.2710 -1.5662
22883SOL     OW73495   6.742   0.156   1.460 -0.1738  0.4892 -0.7267
22883SOL    HW173496   6.653   0.122   1.448 -0.1605 -0.6641  2.0165
22883SOL    HW273497   6.729   0.240   1.504  0.0888 -0.0081  0.3208
22884SOL     OW73498   8.673   9.661   3.331 -0.6725 -0.0215  0.0847
22884SOL    HW173499   8.745   9.711   3.294 -0.2501  0.2431  1.2460
22884SOL    HW273500   8.673   9.684   3.424 -0.3570 -2.2796  0.6737
22885SOL     OW73501   8.612   9.295   0.445 -0.6495  0.2806 -0.1512
22885SOL    HW173502   8.684   9.253   0.397 -0.9441 -1.3634  0.8308
22885SOL    HW273503   8.575   9.357   0.382 -0.2182 -0.9281 -1.6185
22886SOL     OW73504   6.790   1.105   3.943  0.2383  0.2075 -0.5862
22886SOL    HW173505   6.733   1.031   3.965  0.5044  0.0481 -0.4312
22886SOL    HW273506   6.736   1.182   3.958  0.3005  0.0880  0.3040
22887SOL     OW73507   7.053   1.843   3.359 -0.2468  0.0336  0.1325
22887SOL    HW173508   7.021   1.764   3.316  0.3092 -0.6416  0.9382
22887SOL    HW273509   6.978   1.877   3.408 -0.5163  0.0712 -0.3075
22888SOL     OW73510   8.987   2.161   4.221 -0.0003  0.0012  0.1649
22888SOL    HW173511   8.965   2.118   4.304 -0.3266 -0.4691 -0.1586
22888SOL    HW273512   9.082   2.156   4.215 -0.0430 -0.7447  0.0983
22889SOL     OW73513   8.479   8.112   1.185  0.5749  0.1847 -0.2750
22889SOL    HW173514   8.566   8.116   1.145  1.0752  1.4943  0.9336
22889SOL    HW273515   8.494   8.080   1.274 -0.4036 -1.4169 -0.6540
22890SOL     OW73516   8.060   0.493   4.104 -0.1562 -0.3933 -0.2344
22890SOL    HW173517   8.128   0.502   4.038 -2.0983 -0.6712 -2.3018
22890SOL    HW273518   7.991   0.554   4.077 -1.4131 -1.2556  0.9655
22891SOL     OW73519   9.100   1.025   1.640  0.0738 -0.0997  0.0763
22891SOL    HW173520   9.106   1.002   1.732  0.7394 -0.3301 -0.0245
22891SOL    HW273521   9.050   0.954   1.600  1.3299 -0.9294 -0.0652
22892SOL     OW73522   8.448   1.492   4.249 -0.1970 -0.0582 -0.0464
22892SOL    HW173523   8.415   1.433   4.316  0.8135  1.0543  1.4528
22892SOL    HW273524   8.515   1.442   4.204  0.3584 -0.2109  0.9411
22893SOL     OW73525   7.846   0.265   2.526  0.4691 -0.1663 -0.6419
22893SOL    HW173526   7.760   0.225   2.535  0.7345 -0.6873 -0.3769
22893SOL    HW273527   7.897   0.202   2.474  0.7091  0.1043 -0.7384
22894SOL     OW73528   0.611   3.662   3.031  0.0033  0.0779  0.1531
22894SOL    HW173529   0.558   3.742   3.036 -0.4320 -0.1272 -1.1262
22894SOL    HW273530   0.671   3.677   2.958  1.4054  0.1165  1.2940
22895SOL     OW73531   9.313   2.646   2.679  0.2645  0.0698 -0.2041
22895SOL    HW173532   9.360   2.652   2.762  0.2446 -1.4276 -0.0774
22895SOL    HW273533   9.224   2.621   2.703  0.5017 -1.3268 -0.7170
22896SOL     OW73534   7.999   0.508   3.665 -0.2269 -0.4191  0.2736
22896SOL    HW173535   7.931   0.520   3.599  0.0526 -1.6233 -0.2647
22896SOL    HW273536   8.038   0.422   3.644  2.0269  0.6155  0.0408
22897SOL     OW73537   8.890   0.792   2.646 -0.0951 -0.0048 -0.1947
22897SOL    HW173538   8.986   0.791   2.651 -0.1362  0.8970  1.2093
22897SOL    HW273539   8.870   0.755   2.560  1.4941 -0.6250 -0.3192
22898SOL     OW73540   0.440   1.519   2.278  0.0079 -0.7136  0.6403
22898SOL    HW173541   0.439   1.614   2.268  2.6394 -0.9595 -2.6971
22898SOL    HW273542   0.377   1.487   2.213  1.2322 -1.3449 -0.2605
22899SOL     OW73543   7.869   0.255   4.435 -0.0881  0.3456 -0.4943
22899SOL    HW173544   7.843   0.250   4.343  1.6785 -0.7706 -0.9624
22899SOL    HW273545   7.904   0.344   4.445  3.5586 -0.7976 -2.0428
22900SOL     OW73546   8.568   1.014   2.908  0.3663  0.3803 -0.5174
22900SOL    HW173547   8.658   0.983   2.912  0.6342  1.0824 -0.9805
22900SOL    HW273548   8.562   1.059   2.824 -0.0045  1.6101  0.1597
22901SOL     OW73549   9.830   1.453   2.734 -0.1324  0.0538 -0.1938
22901SOL    HW173550   9.906   1.459   2.792 -0.8626  0.1616  0.7606
22901SOL    HW273551   9.764   1.407   2.786 -0.2411 -1.3057 -1.5291
22902SOL     OW73552   7.985   0.382   1.976 -0.3660 -0.0357  0.3244
22902SOL    HW173553   7.890   0.367   1.982 -0.1790 -1.4628  0.0665
22902SOL    HW273554   8.006   0.367   1.884  0.4090 -1.7727  0.7587
22903SOL     OW73555   7.174   8.609   4.552  0.6294  0.5842 -0.0183
22903SOL    HW173556   7.125   8.587   4.473  0.2545 -1.5517  0.7506
22903SOL    HW273557   7.260   8.636   4.520  0.5775 -0.5351 -1.1493
22904SOL     OW73558   9.125   0.678   3.663  0.4240  0.3883 -0.2562
22904SOL    HW173559   9.057   0.629   3.618  1.1046  1.3031 -2.3900
22904SOL    HW273560   9.200   0.619   3.665  0.2606  0.1931  0.0404
22905SOL     OW73561   8.142   8.880   2.182 -0.7920 -0.1709 -0.0359
22905SOL    HW173562   8.071   8.908   2.124 -0.3130 -0.2273 -0.6613
22905SOL    HW273563   8.221   8.890   2.129 -0.3722 -0.4571  0.5294
22906SOL     OW73564   9.655   0.878   2.369  0.7442 -1.1593  0.3308
22906SOL    HW173565   9.711   0.953   2.391 -1.4712  0.7702 -0.4472
22906SOL    HW273566   9.646   0.882   2.274 -1.1055 -1.1198  0.4841
22907SOL     OW73567   6.868   1.685   2.540  0.1253 -0.3178 -0.2054
22907SOL    HW173568   6.786   1.653   2.502 -0.0993  2.2686 -2.0037
22907SOL    HW273569   6.871   1.645   2.627 -2.2068 -1.7833 -0.7503
22908SOL     OW73570   7.360   3.201   3.599  0.3028 -0.0319  0.9091
22908SOL    HW173571   7.266   3.215   3.613 -0.3117 -1.2850 -1.6024
22908SOL    HW273572   7.384   3.266   3.533  0.9544 -0.4324  0.7462
22909SOL     OW73573   9.113   1.292   1.691  0.1244 -0.0606 -0.3347
22909SOL    HW173574   9.083   1.205   1.664  0.7275 -1.2338  2.6434
22909SOL    HW273575   9.206   1.280   1.711  0.2923  1.3664 -0.2211
22910SOL     OW73576   9.343   1.991   2.059  0.0305 -0.3009  0.2588
22910SOL    HW173577   9.266   2.040   2.088 -0.9151  0.2610 -3.0420
22910SOL    HW273578   9.318   1.899   2.069  0.5412 -0.1580  3.1955
22911SOL     OW73579   8.491   3.249   3.394 -0.4789  0.2374 -0.0221
22911SOL    HW173580   8.508   3.311   3.464 -0.5680  0.3421 -0.0927
22911SOL    HW273581   8.455   3.302   3.323 -0.8754  0.0558  0.0416
22912SOL     OW73582   9.061   1.250   3.389  0.3242 -0.6900 -0.3467
22912SOL    HW173583   9.046   1.169   3.340 -1.1527 -1.0851  0.7236
22912SOL    HW273584   9.156   1.252   3.403  0.3259 -2.4921  0.0367
22913SOL     OW73585   7.003   0.782   3.787  0.1706 -0.3422 -0.2339
22913SOL    HW173586   7.070   0.832   3.740  0.2174 -1.0003 -0.8687
22913SOL    HW273587   7.011   0.812   3.878  0.6463  0.3161 -0.4836
22914SOL     OW73588   7.369   2.744   4.006 -0.1545 -0.2088  0.1145
22914SOL    HW173589   7.448   2.715   4.052 -0.7574  0.2050  1.4429
22914SOL    HW273590   7.299   2.692   4.045 -1.2304  2.7590  2.3737
22915SOL     OW73591   8.312   0.978   1.506 -0.0074 -0.1570  0.3946
22915SOL    HW173592   8.321   1.050   1.444 -0.6139 -0.0119  0.4727
22915SOL    HW273593   8.227   0.993   1.548 -0.0628 -0.8282  0.5217
22916SOL     OW73594   7.193   2.055   2.117  0.5318  0.2086 -0.0167
22916SOL    HW173595   7.249   2.111   2.170  1.3729 -0.7511  0.1034
22916SOL    HW273596   7.136   2.117   2.070  1.0192  1.1352  0.5944
22917SOL     OW73597   7.378   1.140   1.172 -0.3092 -0.5648 -0.1442
22917SOL    HW173598   7.456   1.151   1.118 -0.1352  0.0581  0.2206
22917SOL    HW273599   7.401   1.070   1.233  0.4103  0.4110  0.7317
22918SOL     OW73600   8.542   2.797   2.598 -0.2836 -0.2395 -0.0377
22918SOL    HW173601   8.543   2.714   2.550 -0.0789 -0.5311  0.4654
22918SOL    HW273602   8.507   2.861   2.535 -0.7144 -0.7627 -0.3379
22919SOL     OW73603   7.903   1.975   1.298  0.0870  0.3042 -0.1634
22919SOL    HW173604   7.906   2.006   1.389 -0.4446  1.8260 -0.6441
22919SOL    HW273605   7.827   1.917   1.295 -1.0280  1.7114 -0.0495
22920SOL     OW73606   8.105   0.143   3.155 -0.3961  0.6078  0.1970
22920SOL    HW173607   8.200   0.144   3.148 -0.3319 -0.2954  0.8860
22920SOL    HW273608   8.076   0.212   3.095  0.5934 -0.2605 -1.3181
22921SOL     OW73609   9.077   9.525   2.274 -0.5805 -0.2567 -0.4027
22921SOL    HW173610   9.051   9.572   2.354 -2.4835 -1.3174 -0.3777
22921SOL    HW273611   9.071   9.591   2.205 -0.5872  0.2217  0.0436
22922SOL     OW73612   8.711   7.753   1.245  0.6099  0.6274 -0.7085
22922SOL    HW173613   8.722   7.694   1.170 -1.1531  0.6011 -0.9663
22922SOL    HW273614   8.798   7.790   1.259  1.1831 -0.1313 -2.1353
22923SOL     OW73615   5.350   1.970   2.004 -0.1073  0.0940 -0.4027
22923SOL    HW173616   5.360   2.062   2.031 -4.5360  0.3085  0.9860
22923SOL    HW273617   5.396   1.920   2.071 -1.3285  1.1636  1.2785
22924SOL     OW73618   9.472   2.212   1.946  0.1079  0.6770 -0.0137
22924SOL    HW173619   9.478   2.146   1.876 -1.2348 -0.8408  1.2457
22924SOL    HW273620   9.435   2.164   2.021  0.1324  2.6167  1.2808
22925SOL     OW73621   7.529   1.636   2.403 -0.1405 -0.5639  0.4028
22925SOL    HW173622   7.480   1.642   2.321  0.4512 -1.1800  0.0013
22925SOL    HW273623   7.505   1.551   2.439  0.8106 -0.9833  0.0771
22926SOL     OW73624   9.021   1.301   1.964  0.2220 -0.2437 -0.2457
22926SOL    HW173625   8.936   1.267   1.936 -0.4272 -0.7085  2.1442
22926SOL    HW273626   9.070   1.223   1.993  0.6366  0.2574  0.4341
22927SOL     OW73627   8.810   9.588   1.966 -0.5256  0.1130 -0.3438
22927SOL    HW173628   8.895   9.544   1.970 -0.7843 -0.3941 -0.3474
22927SOL    HW273629   8.751   9.522   1.929 -0.5891  0.9747 -1.8132
22928SOL     OW73630   8.422   1.209   1.252  0.0680  0.2070  0.2964
22928SOL    HW173631   8.369   1.258   1.190 -0.6247  0.0581  0.7644
22928SOL    HW273632   8.452   1.132   1.203 -1.6388 -0.6447  0.5494
22929SOL     OW73633   8.032   9.510   2.040 -0.0153 -0.1472 -0.1897
22929SOL    HW173634   8.038   9.587   1.984 -0.6784 -0.1999 -0.3323
22929SOL    HW273635   7.948   9.519   2.086 -0.3612 -1.0653 -0.6308
22930SOL     OW73636   9.192   8.551   2.400 -0.0416 -0.4617  0.2203
22930SOL    HW173637   9.222   8.461   2.386 -0.7900 -0.9623  1.6559
22930SOL    HW273638   9.099   8.541   2.423 -0.3214  0.7440 -0.3430
22931SOL     OW73639   9.817   0.819   3.411  0.5977  0.2172 -0.0176
22931SOL    HW173640   9.758   0.782   3.345 -0.2767  0.9598  0.3397
22931SOL    HW273641   9.871   0.745   3.438  0.3799 -0.2907 -0.9336
22932SOL     OW73642   8.874   1.060   2.105 -0.0665 -0.0402 -0.3899
22932SOL    HW173643   8.921   1.005   2.167  1.8036  2.3283  0.3347
22932SOL    HW273644   8.897   1.023   2.019  0.9071 -0.6128  0.1042
22933SOL     OW73645   7.777   2.254   2.597  0.4280  0.4556 -0.3282
22933SOL    HW173646   7.826   2.278   2.676 -0.2457 -0.8590  0.4989
22933SOL    HW273647   7.793   2.160   2.587  0.8030  0.6774 -1.9686
22934SOL     OW73648   7.486   2.204   2.600 -0.1009 -0.7813  0.1394
22934SOL    HW173649   7.580   2.212   2.615  0.1040 -1.5026 -0.6769
22934SOL    HW273650   7.468   2.110   2.612 -0.9821 -0.4352  1.7263
22935SOL     OW73651   8.994   0.323   1.533 -0.7148  0.4032 -0.0597
22935SOL    HW173652   8.902   0.348   1.529 -0.7257  0.5481  0.9986
22935SOL    HW273653   9.031   0.378   1.602  0.2481  0.6010 -0.7262
22936SOL     OW73654   8.270   0.897   4.435  0.0506  0.2719  0.8413
22936SOL    HW173655   8.208   0.882   4.363  1.7972  1.2394 -0.9168
22936SOL    HW273656   8.240   0.978   4.475  0.8227  1.3754 -0.7507
22937SOL     OW73657   7.581   0.788   3.473 -0.2393  0.3222 -0.3786
22937SOL    HW173658   7.659   0.838   3.451 -0.2540 -0.9495 -3.6918
22937SOL    HW273659   7.508   0.846   3.449 -0.2717 -0.0839 -1.2797
22938SOL     OW73660   8.734   0.386   2.307 -0.1720  0.3566 -0.1231
22938SOL    HW173661   8.687   0.468   2.294  2.4517  2.0552  0.8478
22938SOL    HW273662   8.703   0.353   2.391  0.5314  1.5983  0.6367
22939SOL     OW73663   8.308   9.662   2.231 -0.4898  0.2080 -0.0091
22939SOL    HW173664   8.340   9.707   2.153 -1.0136 -1.2350 -1.0737
22939SOL    HW273665   8.387   9.623   2.270 -0.2028  1.0788  0.3034
22940SOL     OW73666   9.387   1.518   4.607 -0.0231 -0.3991  0.0489
22940SOL    HW173667   9.459   1.573   4.636 -0.4273 -0.1307  0.5416
22940SOL    HW273668   9.308   1.563   4.638 -0.3750 -0.9756 -0.0054
22941SOL     OW73669   9.353   1.746   2.448  0.5152  0.4993 -0.1953
22941SOL    HW173670   9.417   1.741   2.377 -0.6550 -0.4438 -1.1959
22941SOL    HW273671   9.277   1.790   2.409 -0.0431  0.1964  0.5440
22942SOL     OW73672   8.298   2.077   0.990 -0.4413 -0.0939 -0.6391
22942SOL    HW173673   8.270   2.024   1.064 -0.1704  1.2199  0.4232
22942SOL    HW273674   8.393   2.066   0.986 -0.1661  1.5759  0.6206
22943SOL     OW73675   9.882   1.848   3.235 -0.4489  0.2067 -0.0298
22943SOL    HW173676   9.907   1.939   3.246  1.6464 -0.5292  1.6211
22943SOL    HW273677   9.920   1.803   3.310 -1.5164 -2.0170 -0.7731
22944SOL     OW73678   7.830   0.480   1.346 -0.1403 -0.3713 -0.8113
22944SOL    HW173679   7.882   0.488   1.266  0.1704 -0.9754 -0.6715
22944SOL    HW273680   7.787   0.396   1.338 -1.0960  0.1271 -0.9202
22945SOL     OW73681   7.996   9.530   1.127  0.1421  0.1127  0.0275
22945SOL    HW173682   8.061   9.550   1.059  0.2527  0.5143  0.2531
22945SOL    HW273683   7.912   9.535   1.081  0.1988  0.6540 -0.0156
22946SOL     OW73684   9.760   3.373   5.130  0.0196 -0.1302  0.1560
22946SOL    HW173685   9.803   3.298   5.090  1.0139  0.9786 -0.9161
22946SOL    HW273686   9.749   3.436   5.058  1.4006  1.7082  1.4820
22947SOL     OW73687   8.653   1.379   4.102 -0.1851 -0.2001  0.1160
22947SOL    HW173688   8.688   1.456   4.057 -0.8060 -0.1781 -0.3281
22947SOL    HW273689   8.731   1.330   4.128  0.2383  0.9096  0.9921
22948SOL     OW73690   0.161   3.070   3.065 -0.4989 -0.0395 -0.1749
22948SOL    HW173691   0.180   2.977   3.057  0.3799  0.2019 -1.0882
22948SOL    HW273692   0.076   3.081   3.021 -0.8215 -0.4847  0.3442
22949SOL     OW73693   8.448   2.880   0.874 -0.3274 -0.5305 -0.0055
22949SOL    HW173694   8.421   2.968   0.901 -2.5036 -0.9864 -0.5299
22949SOL    HW273695   8.470   2.836   0.956 -1.3284 -0.1523  0.4821
22950SOL     OW73696   8.680   0.853   1.829  0.0347 -0.0968 -0.0418
22950SOL    HW173697   8.756   0.813   1.871 -0.7411  0.1468  1.6664
22950SOL    HW273698   8.638   0.903   1.899 -0.5894  1.3967 -1.4478
22951SOL     OW73699   8.461   1.658   4.014  0.1459  0.0534  0.3084
22951SOL    HW173700   8.455   1.631   4.106  0.6312 -0.6018  0.1537
22951SOL    HW273701   8.486   1.750   4.018  0.1412  0.0383  0.8382
22952SOL     OW73702   6.860   0.831   0.207 -0.1179 -0.4323  0.4397
22952SOL    HW173703   6.857   0.846   0.302  0.6785 -2.5210  0.8284
22952SOL    HW273704   6.953   0.832   0.186 -0.1401 -2.4933  0.1415
22953SOL     OW73705   8.423   0.216   2.951 -0.1943 -0.1592 -0.1580
22953SOL    HW173706   8.431   0.178   3.038  0.9389 -1.4915 -0.8317
22953SOL    HW273707   8.480   0.293   2.953  1.2806 -1.2323 -0.2878
22954SOL     OW73708   6.744   9.601   3.418 -0.2621  0.0512  0.9638
22954SOL    HW173709   6.702   9.639   3.341  0.0109  2.8735  2.1412
22954SOL    HW273710   6.786   9.521   3.386  1.0200  1.8799 -2.1255
22955SOL     OW73711   7.436   1.996   0.832 -0.1031 -0.6280 -0.5157
22955SOL    HW173712   7.397   2.051   0.765 -0.0608 -0.7897 -0.6741
22955SOL    HW273713   7.503   1.945   0.785  0.9222  0.2910 -0.0837
22956SOL     OW73714   6.792   0.992   2.890 -0.2670  0.0959  0.4429
22956SOL    HW173715   6.886   0.984   2.904 -0.1069 -0.2070 -0.7577
22956SOL    HW273716   6.777   0.959   2.802 -1.4720  0.3486  0.5310
22957SOL     OW73717   9.959   1.702   2.850  0.2507 -0.0867  0.3726
22957SOL    HW173718   9.940   1.757   2.774  0.0844 -1.2252 -0.4201
22957SOL    HW273719  10.046   1.730   2.879  0.6632 -0.2226 -0.7418
22958SOL     OW73720   9.188   9.816   1.902 -0.1184 -0.1561 -0.2188
22958SOL    HW173721   9.127   9.799   1.974 -1.6538  2.3597 -0.8774
22958SOL    HW273722   9.250   9.879   1.938 -0.2659  0.2984 -0.7483
22959SOL     OW73723   8.169   1.976   4.000 -0.5038 -0.7043  0.2160
22959SOL    HW173724   8.246   1.951   3.950 -0.4110  0.8500 -0.4523
22959SOL    HW273725   8.204   2.018   4.079 -0.5737  2.5634 -1.3736
22960SOL     OW73726   9.143   0.588   4.355  0.3869 -0.1595 -0.5586
22960SOL    HW173727   9.171   0.533   4.428  1.6563  1.0236 -0.1232
22960SOL    HW273728   9.193   0.555   4.280  0.7297  0.0369 -0.4176
22961SOL     OW73729   8.758   0.855   4.730 -0.1039 -0.2180  0.5014
22961SOL    HW173730   8.820   0.794   4.769 -0.4150 -0.7315  0.1955
22961SOL    HW273731   8.672   0.822   4.757 -0.6072 -3.0406 -4.0151
22962SOL     OW73732   7.166   0.626   4.718  0.6290 -0.4412  0.0802
22962SOL    HW173733   7.213   0.644   4.636 -0.2902 -0.7985 -0.5346
22962SOL    HW273734   7.074   0.625   4.692  0.2953  0.0271  1.2363
22963SOL     OW73735   7.441   1.234   4.226  0.3934  0.3069 -0.1699
22963SOL    HW173736   7.418   1.279   4.307 -0.4562  0.9071 -0.7406
22963SOL    HW273737   7.373   1.258   4.164  1.0442 -0.1304 -1.0809
22964SOL     OW73738   9.312   1.699   3.226 -0.1812  0.3604 -0.1191
22964SOL    HW173739   9.392   1.647   3.226  1.3988  2.7349 -0.6191
22964SOL    HW273740   9.242   1.635   3.245  1.8049 -1.7168  0.4383
22965SOL     OW73741   7.282   1.072   2.058 -0.0797 -0.2507  0.0022
22965SOL    HW173742   7.365   1.046   2.098  0.3016  1.0205  0.0368
22965SOL    HW273743   7.215   1.033   2.115  0.4638 -2.5621 -0.8543
22966SOL     OW73744   9.063   0.879   2.306  0.6754  0.3226 -0.2532
22966SOL    HW173745   9.050   0.972   2.324  0.2824  0.2592 -0.2231
22966SOL    HW273746   9.157   0.871   2.290  0.8778  0.5406  0.8004
22967SOL     OW73747   5.446   0.505   3.268  0.2564  0.3607 -0.2301
22967SOL    HW173748   5.494   0.521   3.187  1.3295 -0.3627  0.2387
22967SOL    HW273749   5.386   0.434   3.247 -1.2963  1.8981 -1.0759
22968SOL     OW73750   9.254   1.417   4.399  0.2149 -0.2773  0.0964
22968SOL    HW173751   9.277   1.360   4.472 -1.0392  1.0267  1.5454
22968SOL    HW273752   9.300   1.500   4.417  0.1742 -0.0558 -0.7714
22969SOL     OW73753   8.498   0.056   2.769 -0.1440 -0.3491 -0.2955
22969SOL    HW173754   8.511   0.109   2.848 -0.9025 -2.3476  1.2098
22969SOL    HW273755   8.406   0.029   2.774 -0.6677  0.8433 -2.7318
22970SOL     OW73756   7.358   9.848   2.457 -0.1805 -0.1182 -0.2803
22970SOL    HW173757   7.305   9.796   2.517 -1.1522  0.6022 -0.5059
22970SOL    HW273758   7.447   9.842   2.493 -0.6939  0.0250  1.0384
22971SOL     OW73759   8.101   9.463   2.336 -0.4747  0.0307 -0.3606
22971SOL    HW173760   8.167   9.531   2.320 -1.0568  0.5311 -0.6291
22971SOL    HW273761   8.065   9.444   2.250 -0.0340 -0.9160 -0.3501
22972SOL     OW73762   7.299   1.085   1.579 -0.2831  0.2024  0.3656
22972SOL    HW173763   7.228   1.022   1.592  0.3534 -0.0580  3.0011
22972SOL    HW273764   7.256   1.170   1.573 -1.1167 -0.3661 -2.7060
22973SOL     OW73765   9.735   3.165   3.144  0.1503 -0.2075  0.0101
22973SOL    HW173766   9.677   3.104   3.189  1.0468 -1.2080 -0.1677
22973SOL    HW273767   9.814   3.114   3.127  0.6064  0.7792 -0.8447
22974SOL     OW73768   8.754   2.279   4.671  0.8488 -0.5517  0.3703
22974SOL    HW173769   8.818   2.239   4.729 -0.9934  0.4153  3.1700
22974SOL    HW273770   8.765   2.374   4.683  1.4227 -0.2735 -2.0002
22975SOL     OW73771   9.149   1.541   1.839  0.4348 -0.6940  0.2941
22975SOL    HW173772   9.237   1.547   1.874  0.8727  0.5022 -0.9828
22975SOL    HW273773   9.121   1.452   1.861  1.4774 -0.6637  1.7888
22976SOL     OW73774   8.416   8.970   2.204 -0.1743 -0.1482 -0.3499
22976SOL    HW173775   8.372   9.054   2.211  2.0772  0.9324  1.0481
22976SOL    HW273776   8.414   8.934   2.293  2.8799  0.5267  0.0464
22977SOL     OW73777   9.212   1.257   2.707  0.0804  0.1125 -0.2154
22977SOL    HW173778   9.243   1.215   2.787 -1.4879  0.1954  0.4361
22977SOL    HW273779   9.119   1.237   2.703  0.2696 -0.5062 -2.4003
22978SOL     OW73780   9.486   0.571   2.147  1.0041 -0.2192 -0.2941
22978SOL    HW173781   9.509   0.664   2.137  1.3193 -0.0212  1.9457
22978SOL    HW273782   9.556   0.524   2.102  1.3942  0.6215 -0.5718
22979SOL     OW73783   6.441   2.150   1.469  0.3087 -0.3080  0.3947
22979SOL    HW173784   6.431   2.135   1.375  0.3699  1.2968  0.1191
22979SOL    HW273785   6.351   2.154   1.502  0.2242  1.6031 -0.0179
22980SOL     OW73786   9.179   1.630   2.908  0.3107 -0.3302 -0.3981
22980SOL    HW173787   9.251   1.573   2.935 -0.4063 -1.9900 -1.9044
22980SOL    HW273788   9.119   1.629   2.982  2.3610  2.0687  1.3907
22981SOL     OW73789   8.413   9.414   1.600  0.0798 -0.5255 -0.4665
22981SOL    HW173790   8.339   9.474   1.597  0.5288  0.0748  0.3072
22981SOL    HW273791   8.433   9.396   1.508  0.5715  1.2967 -0.7386
22982SOL     OW73792   8.991   1.035   3.220  0.2351  0.2636  0.6978
22982SOL    HW173793   8.915   1.030   3.278 -0.7864 -0.3500 -0.6756
22982SOL    HW273794   9.034   0.950   3.231 -1.6456 -1.0444 -1.6885
22983SOL     OW73795   8.559   2.297   3.265  0.0689 -0.2434  0.1720
22983SOL    HW173796   8.543   2.333   3.353 -0.4571 -1.1444  0.4464
22983SOL    HW273797   8.654   2.285   3.261 -0.0893 -1.9926  1.3291
22984SOL     OW73798   7.453   1.276   2.204  0.1704  0.6213  0.0224
22984SOL    HW173799   7.491   1.364   2.210 -1.1396  1.2682 -1.1078
22984SOL    HW273800   7.367   1.289   2.165 -0.5813 -1.0293  1.0801
22985SOL     OW73801   9.080   2.086   2.757  0.1323  0.0472 -0.6807
22985SOL    HW173802   9.071   2.167   2.807 -0.8181 -0.7420  0.4581
22985SOL    HW273803   9.155   2.042   2.796  0.1707  0.0266 -0.7822
22986SOL     OW73804   8.160   0.198   2.721  0.5028 -0.3765  0.0896
22986SOL    HW173805   8.156   0.194   2.625 -0.2307 -2.7606  0.1649
22986SOL    HW273806   8.200   0.282   2.740 -1.6021  1.2295 -2.2505
22987SOL     OW73807   7.166   9.941   4.642  0.0261  0.1100  0.6378
22987SOL    HW173808   7.201   9.851   4.647 -1.4418 -0.5352 -0.4706
22987SOL    HW273809   7.116   9.951   4.722 -0.4070 -0.3264  0.4267
22988SOL     OW73810   7.749   1.224   4.418  0.0397 -0.1192  0.1178
22988SOL    HW173811   7.772   1.295   4.357 -0.6569 -0.2785 -0.3370
22988SOL    HW273812   7.775   1.144   4.373 -0.0850 -0.2094  0.2060
22989SOL     OW73813   9.208   1.271   2.245 -0.1455  0.4146  0.4995
22989SOL    HW173814   9.145   1.223   2.299  0.4287 -1.0875 -0.1369
22989SOL    HW273815   9.224   1.214   2.170 -0.4340  2.1958 -0.9444
22990SOL     OW73816   8.092   0.326   1.736 -0.4016  0.2282 -0.0170
22990SOL    HW173817   8.180   0.358   1.718 -0.4915  0.2258 -0.4815
22990SOL    HW273818   8.060   0.295   1.651 -0.4150 -0.8360  0.3747
22991SOL     OW73819   8.924   1.519   4.960  0.5890 -0.3423  0.2800
22991SOL    HW173820   8.940   1.454   4.892 -0.5849 -0.7457  0.3846
22991SOL    HW273821   8.934   1.472   5.043 -1.1236 -0.6070  0.3467
22992SOL     OW73822   8.093   1.768   1.698 -0.3176 -0.2567 -0.1351
22992SOL    HW173823   8.098   1.740   1.789 -1.9386 -0.0391  0.0323
22992SOL    HW273824   8.098   1.864   1.702 -1.4021 -0.1916 -0.1863
22993SOL     OW73825   7.898   1.367   2.591 -0.1719  0.3837 -0.5857
22993SOL    HW173826   7.879   1.286   2.639  0.9712  0.6685  0.3920
22993SOL    HW273827   7.819   1.385   2.541 -0.5453 -1.1845 -0.5905
22994SOL     OW73828   8.812   0.924   2.871  0.2569 -0.4641 -0.1101
22994SOL    HW173829   8.834   0.875   2.793 -0.6310 -0.1298 -0.5812
22994SOL    HW273830   8.895   0.936   2.917  0.7743 -0.6696 -0.9918
22995SOL     OW73831   7.642   9.845   2.548 -0.3997  0.2999 -0.7878
22995SOL    HW173832   7.619   9.751   2.548 -2.3996  0.7593 -1.4362
22995SOL    HW273833   7.699   9.856   2.472 -0.2752 -0.3596 -0.7932
22996SOL     OW73834   9.053   2.738   4.378 -0.1478 -0.1606  0.2841
22996SOL    HW173835   9.137   2.717   4.419 -0.1414  0.7399  0.7445
22996SOL    HW273836   9.024   2.655   4.339  0.0949 -0.9143  1.6512
22997SOL     OW73837   9.735   1.925   4.685  0.0094 -0.1144  0.1519
22997SOL    HW173838   9.762   1.984   4.614  1.3444  0.1564  0.8587
22997SOL    HW273839   9.708   1.983   4.756 -1.9263 -0.3884 -0.3418
22998SOL     OW73840   9.469   0.835   3.872 -0.3436  0.1494 -0.0126
22998SOL    HW173841   9.478   0.874   3.959  0.5019 -1.4605  0.6518
22998SOL    HW273842   9.379   0.855   3.845 -0.3360  1.4063  0.8438
22999SOL     OW73843   9.806   2.139   2.139 -0.7323  0.7703  0.7600
22999SOL    HW173844   9.804   2.103   2.051  0.9791  3.9943 -0.7012
22999SOL    HW273845   9.722   2.114   2.178 -0.8062 -2.1098 -1.1484
23000SOL     OW73846   6.837   1.553   2.776  0.0357  0.7744 -0.0296
23000SOL    HW173847   6.824   1.528   2.867 -0.3974  3.8679  0.8219
23000SOL    HW273848   6.922   1.514   2.752 -0.6951 -1.5611  1.0873
23001SOL     OW73849   7.828   1.195   4.103 -0.2446  0.0459  0.2772
23001SOL    HW173850   7.856   1.222   4.016  0.7631 -1.1196  0.2369
23001SOL    HW273851   7.885   1.122   4.126 -2.6307 -1.7694  0.5889
23002SOL     OW73852   8.980   2.504   4.280 -0.1661 -0.0418  0.9684
23002SOL    HW173853   9.008   2.414   4.260  0.4369  0.3659 -0.0673
23002SOL    HW273854   8.905   2.519   4.222  0.9454  0.7912 -0.2634
23003SOL     OW73855   8.491   0.068   3.156 -0.4591  0.7400  0.1629
23003SOL    HW173856   8.448  -0.006   3.113  1.4466  0.4845 -1.4157
23003SOL    HW273857   8.471   0.057   3.249 -0.5306 -1.5761 -0.0963
23004SOL     OW73858   6.929   2.393   3.964 -0.5588  0.1892  0.2299
23004SOL    HW173859   6.834   2.395   3.962 -0.5446  0.6268 -0.0359
23004SOL    HW273860   6.954   2.466   4.021 -0.3833  0.0367  0.3507
23005SOL     OW73861   9.537   1.878   3.763  1.3352 -0.4232 -0.8330
23005SOL    HW173862   9.578   1.934   3.698  1.4959 -1.2259 -1.4323
23005SOL    HW273863   9.544   1.790   3.727  0.4991 -0.7548 -0.2052
23006SOL     OW73864   6.832   1.058   6.275 -0.8602  0.0281  0.1847
23006SOL    HW173865   6.754   1.114   6.265 -0.6386  0.2679 -0.2384
23006SOL    HW273866   6.833   1.004   6.197  0.3443  1.2226 -0.6483
23007SOL     OW73867   7.895   2.522   2.104 -0.9260 -0.7147  0.4541
23007SOL    HW173868   7.922   2.513   2.196 -1.8531  1.8458  1.0173
23007SOL    HW273869   7.907   2.615   2.085 -0.7328 -1.2274 -2.0448
23008SOL     OW73870   9.932   1.776   3.721 -0.1138 -0.2331  0.4313
23008SOL    HW173871   9.951   1.804   3.632 -1.7527  0.2294  0.2123
23008SOL    HW273872   9.980   1.694   3.731 -0.9759 -0.9671 -1.3253
23009SOL     OW73873   9.801   9.907   2.005 -0.8958 -0.3023 -0.6072
23009SOL    HW173874   9.763   9.824   1.975 -0.0776 -0.7581 -0.3940
23009SOL    HW273875   9.757   9.923   2.089  0.4633 -1.6195  0.3884
23010SOL     OW73876   8.222   1.657   1.988 -0.5638  0.2389 -0.2025
23010SOL    HW173877   8.292   1.591   1.979 -0.4853  0.4125 -0.8700
23010SOL    HW273878   8.247   1.707   2.065  0.2392  0.5256 -0.6414
23011SOL     OW73879   7.733   1.287   2.979  0.2732 -1.4657  0.6408
23011SOL    HW173880   7.643   1.318   2.969  0.4542 -0.7590  1.1335
23011SOL    HW273881   7.787   1.357   2.944  0.6724 -1.4289  1.3129
23012SOL     OW73882   6.775   9.270   3.017  0.4075 -0.1702 -0.1454
23012SOL    HW173883   6.781   9.359   2.982  1.4761 -0.5313 -0.9236
23012SOL    HW273884   6.690   9.238   2.987  1.3557 -0.5206 -2.5634
23013SOL     OW73885   9.810   1.383   0.451 -0.1139  0.0366  0.3026
23013SOL    HW173886   9.735   1.376   0.392 -0.3641 -0.2024  0.6453
23013SOL    HW273887   9.846   1.470   0.433  0.8487 -0.7215 -1.4136
23014SOL     OW73888   7.175   1.437   2.205  0.2044 -0.0144  0.4278
23014SOL    HW173889   7.163   1.503   2.136 -0.8337 -0.7257 -0.0848
23014SOL    HW273890   7.186   1.488   2.285  0.5525  0.8040 -0.1259
23015SOL     OW73891   8.358   9.719   2.665  0.3517  0.2955  0.1569
23015SOL    HW173892   8.335   9.781   2.735 -0.7936 -0.1961  0.2234
23015SOL    HW273893   8.277   9.671   2.648  0.2638  1.2682 -2.3867
23016SOL     OW73894   8.417   1.284   2.533  0.0899  0.0769 -0.3269
23016SOL    HW173895   8.466   1.317   2.458  2.2578  1.6278  1.7488
23016SOL    HW273896   8.326   1.309   2.514  0.7876  1.6039 -1.8113
23017SOL     OW73897   9.393   0.075   2.586 -0.1524  0.4524  0.1925
23017SOL    HW173898   9.357   0.145   2.531  0.8572 -0.1898 -1.3239
23017SOL    HW273899   9.487   0.087   2.582 -0.0872  0.6527  2.1612
23018SOL     OW73900   8.274   1.121   3.022 -0.7543  0.0829 -0.4736
23018SOL    HW173901   8.217   1.161   2.957 -1.4331 -1.4253 -0.8244
23018SOL    HW273902   8.243   1.030   3.029  1.6305 -0.7874 -0.7314
23019SOL     OW73903   7.485   1.994   0.321 -0.0374  0.2562 -0.3208
23019SOL    HW173904   7.391   2.012   0.312 -0.1654 -0.7768 -1.3002
23019SOL    HW273905   7.489   1.901   0.345  0.7109  0.5076  0.5497
23020SOL     OW73906   7.641   1.830   3.922  0.5249 -0.2443  0.3836
23020SOL    HW173907   7.731   1.826   3.889  0.3330 -1.4677 -0.0080
23020SOL    HW273908   7.644   1.785   4.006  0.2538 -0.3901  0.3152
23021SOL     OW73909   9.067   0.946   2.891 -0.5362 -0.3349  0.2812
23021SOL    HW173910   9.131   0.876   2.874 -0.2393 -0.3072  1.2740
23021SOL    HW273911   9.119   1.017   2.929 -1.3104 -0.6997  2.0671
23022SOL     OW73912   9.635   1.601   4.748 -0.3742  0.1217  0.0297
23022SOL    HW173913   9.722   1.641   4.746 -0.6266  0.8916  2.2995
23022SOL    HW273914   9.652   1.509   4.764  0.0066  0.5300  2.1284
23023SOL     OW73915   8.255   9.278   1.051  0.9879 -0.1206  0.4455
23023SOL    HW173916   8.210   9.352   1.010  1.5278 -0.1334 -0.1659
23023SOL    HW273917   8.348   9.297   1.040  1.1289 -0.6563  0.7077
23024SOL     OW73918   8.008   0.898   2.525 -0.6711 -0.3797 -0.2047
23024SOL    HW173919   7.922   0.875   2.562 -0.0156 -0.1114  1.5359
23024SOL    HW273920   8.039   0.816   2.485 -1.8117 -0.4310 -1.0160
23025SOL     OW73921   9.419   1.971   2.975  0.8053 -0.4325 -0.6214
23025SOL    HW173922   9.429   2.055   3.019  1.1055  1.1233 -3.5653
23025SOL    HW273923   9.493   1.919   3.005  1.8209  1.1159 -0.4088
23026SOL     OW73924   8.850   9.228   4.765  0.0041  0.5290  0.7148
23026SOL    HW173925   8.839   9.307   4.817  0.8862  0.7418  0.5819
23026SOL    HW273926   8.928   9.244   4.712  0.9903 -0.9634  1.6938
23027SOL     OW73927   8.930   1.070   5.690 -0.4538 -0.0870  0.3692
23027SOL    HW173928   8.908   1.004   5.624  0.3396 -0.7971  0.8227
23027SOL    HW273929   8.848   1.083   5.738 -1.2394  0.9320 -1.1673
23028SOL     OW73930   6.174   3.767   2.243  0.2861  0.1086  0.1236
23028SOL    HW173931   6.230   3.691   2.225 -1.7311 -1.2398 -0.6001
23028SOL    HW273932   6.206   3.800   2.327  1.2645 -1.4723  0.3999
23029SOL     OW73933   7.848   1.495   3.327 -0.2478  0.1445 -0.3547
23029SOL    HW173934   7.905   1.425   3.295 -0.6393  0.2043 -1.1980
23029SOL    HW273935   7.906   1.572   3.334  0.4336 -0.5019  1.6136
23030SOL     OW73936   7.373   0.765   2.621  0.1001 -0.6467  0.4325
23030SOL    HW173937   7.388   0.858   2.604 -2.8651  0.2713  2.4389
23030SOL    HW273938   7.384   0.722   2.536 -1.6034  1.9943 -1.1799
23031SOL     OW73939   6.728   8.821   5.422  0.3331 -0.1592 -0.1680
23031SOL    HW173940   6.820   8.839   5.400  0.6482 -0.4647  0.8411
23031SOL    HW273941   6.714   8.732   5.392  0.0075  0.3006 -1.4055
23032SOL     OW73942   9.568   1.010   3.542  0.0776 -0.2392  0.1921
23032SOL    HW173943   9.558   0.916   3.557  1.2510 -0.4448 -0.2388
23032SOL    HW273944   9.557   1.021   3.448  1.2983 -0.1494  0.0424
23033SOL     OW73945   8.469   1.735   4.867  0.1014  0.0012 -0.2054
23033SOL    HW173946   8.466   1.669   4.798 -0.5760 -1.3568  1.0821
23033SOL    HW273947   8.559   1.768   4.866  0.6384 -1.4395 -0.4204
23034SOL     OW73948   8.045   9.805   2.899  0.4553 -0.1715 -0.5317
23034SOL    HW173949   8.061   9.712   2.881  0.8096 -0.2762  0.2806
23034SOL    HW273950   7.958   9.822   2.863  0.8911 -0.5133 -1.7561
23035SOL     OW73951   7.865   0.953   1.886 -0.2544 -0.1348 -0.4827
23035SOL    HW173952   7.939   0.893   1.890  0.8026  1.0237 -2.2664
23035SOL    HW273953   7.816   0.935   1.967  2.1528 -0.6566  0.9285
23036SOL     OW73954   9.648   2.697   2.273  0.2815  0.2726 -0.1578
23036SOL    HW173955   9.716   2.642   2.310 -0.6554 -0.0587  1.1124
23036SOL    HW273956   9.691   2.745   2.202  1.4819 -0.9389 -0.2614
23037SOL     OW73957   8.352   9.152   2.844  0.3474 -0.2763  0.3088
23037SOL    HW173958   8.299   9.212   2.791  0.4524 -0.2899  0.1873
23037SOL    HW273959   8.440   9.159   2.807  0.0951 -1.4760 -0.5303
23038SOL     OW73960   8.626   1.107   2.631 -0.1461 -0.0131  0.1549
23038SOL    HW173961   8.552   1.164   2.608 -0.0484 -0.4659 -1.3788
23038SOL    HW273962   8.679   1.104   2.551  1.4474  0.1790  1.1982
23039SOL     OW73963   8.895   1.431   2.498 -0.0433 -0.1597  0.6552
23039SOL    HW173964   8.814   1.480   2.484 -0.7306 -1.1008  1.2056
23039SOL    HW273965   8.873   1.341   2.474  1.0643 -0.2901  0.0944
23040SOL     OW73966   7.335   0.382   2.986 -0.2904 -0.2982  0.6032
23040SOL    HW173967   7.247   0.366   2.952  0.5528 -1.2744 -1.1903
23040SOL    HW273968   7.385   0.306   2.959  2.3055  2.3860 -2.7068
23041SOL     OW73969   8.012   0.947   2.160 -0.2058  0.0978 -0.1889
23041SOL    HW173970   7.918   0.951   2.180  0.0016  0.2655  0.7989
23041SOL    HW273971   8.050   1.015   2.215  0.1678  1.9490 -2.6577
23042SOL     OW73972   9.361   2.157   2.578  0.4121  0.6112 -0.2364
23042SOL    HW173973   9.357   2.180   2.671 -1.4191 -0.3790 -0.0425
23042SOL    HW273974   9.444   2.109   2.568  0.0952 -0.2466  1.1219
23043SOL     OW73975   8.087   0.680   2.368  0.4115  0.7688  0.5578
23043SOL    HW173976   8.177   0.646   2.376  0.6407  1.2037 -0.1547
23043SOL    HW273977   8.062   0.661   2.278 -0.9993 -1.2189  1.3209
23044SOL     OW73978   6.930   1.302   4.296  0.2826 -0.0119  0.0444
23044SOL    HW173979   6.963   1.350   4.220 -0.6183 -1.2919 -1.1927
23044SOL    HW273980   7.008   1.285   4.349  1.6500 -2.6128 -2.6003
23045SOL     OW73981   8.206   0.192   1.971  0.0032  0.0525 -0.6025
23045SOL    HW173982   8.157   0.272   1.992 -1.0360 -0.7122 -0.0459
23045SOL    HW273983   8.252   0.212   1.890  0.2085  1.4127 -0.1582
23046SOL     OW73984   8.057   9.039   3.182  0.3793 -0.0348  0.1483
23046SOL    HW173985   8.082   9.015   3.093 -0.4999 -0.2248 -0.0461
23046SOL    HW273986   8.138   9.030   3.232  0.9542  0.3674 -0.6854
23047SOL     OW73987   8.900   2.764   3.548 -0.1127  0.2470 -1.0068
23047SOL    HW173988   8.950   2.842   3.525 -0.0049  1.0614  1.7334
23047SOL    HW273989   8.813   2.797   3.569 -0.5568 -0.6047 -1.4849
23048SOL     OW73990   9.368   3.505   4.279  0.2211  0.2691  0.1630
23048SOL    HW173991   9.387   3.575   4.216  0.5570  1.4551  1.5662
23048SOL    HW273992   9.272   3.506   4.286  0.2829  1.4820  1.1372
23049SOL     OW73993   0.073   9.760   1.717  0.1648  0.3065 -0.0675
23049SOL    HW173994   0.092   9.728   1.628  1.6018  0.4207  0.1768
23049SOL    HW273995   0.062   9.855   1.707 -0.5174  0.2090 -0.2521
23050SOL     OW73996   8.068   0.940   3.744 -0.2553  0.1245  0.1342
23050SOL    HW173997   8.094   0.890   3.822 -2.5286 -1.1864  0.0962
23050SOL    HW273998   8.011   1.009   3.779 -0.5884  0.0542 -0.2761
23051SOL     OW73999   9.153   9.623   3.149 -0.3904  0.0005 -0.2905
23051SOL    HW174000   9.219   9.616   3.218 -0.8001 -0.5921  0.0358
23051SOL    HW274001   9.120   9.534   3.138 -0.8471  0.2268 -0.7366
23052SOL     OW74002   7.477   2.386   3.498  0.3847  0.4091 -0.1123
23052SOL    HW174003   7.515   2.423   3.577  1.7802 -1.4895  0.1361
23052SOL    HW274004   7.553   2.360   3.445 -0.5213 -1.8697 -0.3521
23053SOL     OW74005   9.174   2.397   1.791  0.2949  0.7318  0.2953
23053SOL    HW174006   9.259   2.437   1.769 -0.8771  2.8241 -0.6324
23053SOL    HW274007   9.159   2.423   1.882  0.4233  0.7854  0.3022
23054SOL     OW74008   8.185   1.186   6.948  0.0569  0.3645 -0.6457
23054SOL    HW174009   8.154   1.121   7.011  1.6216 -0.8565 -1.1025
23054SOL    HW274010   8.165   1.148   6.862  1.5807  0.1532 -0.9237
23055SOL     OW74011   8.666   9.596   3.862 -0.8438 -0.1114  0.2779
23055SOL    HW174012   8.727   9.524   3.871  0.2529  1.0678  2.8145
23055SOL    HW274013   8.587   9.567   3.907  0.0145  0.6924  2.3471
23056SOL     OW74014   7.875   9.902   3.510  0.1819 -0.5182  0.2247
23056SOL    HW174015   7.917   9.883   3.426  0.0987 -0.9341  0.2774
23056SOL    HW274016   7.796   9.950   3.487 -1.0775 -2.6984 -0.0916
23057SOL     OW74017   9.661   1.530   5.061  0.6054  0.3442  0.4537
23057SOL    HW174018   9.756   1.542   5.062  0.5588  0.7114  0.3550
23057SOL    HW274019   9.627   1.602   5.008  0.3486 -0.3309 -0.3156
23058SOL     OW74020   8.435   2.006   4.979 -0.3441  0.3858  0.4682
23058SOL    HW174021   8.518   1.970   4.946  0.1150  0.7626  1.1954
23058SOL    HW274022   8.369   1.941   4.955  0.4585 -0.9182  1.7287
23059SOL     OW74023   8.279   0.589   3.624  0.1046 -0.3337  0.1188
23059SOL    HW174024   8.190   0.619   3.642  0.6406  2.1898 -1.0770
23059SOL    HW274025   8.268   0.504   3.582 -1.8098  0.3373 -0.7921
23060SOL     OW74026   9.950   0.987   2.335 -0.4984  0.2599 -0.2840
23060SOL    HW174027   9.940   0.942   2.251 -0.0503  0.9898 -0.7292
23060SOL    HW274028  10.003   1.064   2.315  1.0405 -0.4615  0.9967
23061SOL     OW74029   7.535   1.153   3.464  0.3698 -0.2724  0.4393
23061SOL    HW174030   7.563   1.233   3.420 -1.3475  0.6809  1.0404
23061SOL    HW274031   7.610   1.094   3.457  1.3153  1.0549 -0.8180
23062SOL     OW74032   8.161   0.775   4.667 -0.3482  0.0619  0.7615
23062SOL    HW174033   8.177   0.831   4.591 -0.6181 -0.1519  0.5446
23062SOL    HW274034   8.067   0.755   4.663 -0.3446 -0.0271  1.0972
23063SOL     OW74035   7.168   0.030   4.027 -0.7327  0.5151 -0.3589
23063SOL    HW174036   7.092   0.076   4.064  0.2081  2.2187 -0.4845
23063SOL    HW274037   7.228   0.100   4.002  0.7090 -0.8055 -0.6460
23064SOL     OW74038   9.468   0.629   6.092  0.0553  0.3208  0.0324
23064SOL    HW174039   9.488   0.722   6.089  0.4581  0.2434  0.3457
23064SOL    HW274040   9.525   0.591   6.025  1.9695 -0.0873  1.8685
23065SOL     OW74041   8.084   2.167   5.278  0.6460 -0.4808  0.0486
23065SOL    HW174042   8.013   2.228   5.297  0.2939 -0.8113 -0.2064
23065SOL    HW274043   8.105   2.181   5.186  1.7075  0.4450  0.4292
23066SOL     OW74044   9.780   0.986   5.290  0.7295 -0.4329 -0.0979
23066SOL    HW174045   9.831   1.024   5.218 -1.4559  0.5117 -1.1999
23066SOL    HW274046   9.689   0.995   5.262 -0.1244 -0.8217  2.4334
23067SOL     OW74047   8.202   9.471   5.259 -0.2232 -0.0985 -0.2257
23067SOL    HW174048   8.228   9.386   5.224 -0.0883 -0.9507  1.8683
23067SOL    HW274049   8.285   9.515   5.280 -0.3162  0.1326 -0.3440
23068SOL     OW74050   8.087   0.210   4.054 -1.0761 -0.2087  0.4050
23068SOL    HW174051   8.095   0.208   4.149  0.9780  2.3736  0.3481
23068SOL    HW274052   8.068   0.301   4.034  0.1775 -0.3984 -1.7644
23069SOL     OW74053   8.632   0.897   5.370 -0.6137  0.1538  0.3841
23069SOL    HW174054   8.617   0.983   5.330 -0.9144 -0.6747 -1.3252
23069SOL    HW274055   8.725   0.896   5.390 -0.0757 -0.1503 -2.0721
23070SOL     OW74056   8.402   1.281   4.897 -0.1859  0.4601  0.1199
23070SOL    HW174057   8.320   1.302   4.854 -0.9008 -1.8016  0.3439
23070SOL    HW274058   8.458   1.246   4.828  0.1526  0.8345  0.2019
23071SOL     OW74059   7.392   1.994   3.831 -0.1731 -0.1891  0.0423
23071SOL    HW174060   7.405   1.970   3.739 -2.8951 -1.8110  0.0138
23071SOL    HW274061   7.468   1.959   3.876  1.7502  1.5883 -1.7155
23072SOL     OW74062   7.998   0.786   4.313 -0.0507 -0.4440  0.0862
23072SOL    HW174063   8.036   0.698   4.314 -1.8668 -1.2695 -0.7956
23072SOL    HW274064   7.978   0.804   4.405  0.2842 -0.9552  0.2666
23073SOL     OW74065   8.396   2.839   4.929  0.0843 -0.1952  0.0331
23073SOL    HW174066   8.375   2.814   4.839 -0.1260  0.4341 -0.0938
23073SOL    HW274067   8.483   2.802   4.944  1.1884  1.7850 -1.2765
23074SOL     OW74068   8.162   1.753   4.843 -0.1546  0.3172 -0.1605
23074SOL    HW174069   8.092   1.806   4.881 -0.7521 -0.6040  0.0446
23074SOL    HW274070   8.238   1.772   4.898 -0.7595 -0.2407  0.8972
23075SOL     OW74071   0.488   1.063   4.254 -0.0607 -0.2325 -0.8120
23075SOL    HW174072   0.555   1.016   4.304 -0.7157 -1.1319 -0.7751
23075SOL    HW274073   0.406   1.046   4.300 -0.1817  1.6680 -0.3137
23076SOL     OW74074   6.523   1.303   4.680  0.2468 -0.2348  0.2631
23076SOL    HW174075   6.600   1.300   4.624  1.1116  1.2711  1.3533
23076SOL    HW274076   6.449   1.308   4.618  1.0854 -0.3476 -0.7551
23077SOL     OW74077   9.633   2.501   5.037  0.5546 -0.0467 -0.3126
23077SOL    HW174078   9.632   2.483   5.131  1.5350 -1.3488 -0.5367
23077SOL    HW274079   9.589   2.426   4.997 -0.0742  0.6178 -0.8692
23078SOL     OW74080   7.766   0.982   3.393 -0.1649 -0.1081  0.3853
23078SOL    HW174081   7.804   1.012   3.310 -0.4573 -1.6757 -0.3520
23078SOL    HW274082   7.841   0.971   3.451 -0.0577  1.9822  0.6724
23079SOL     OW74083   9.620   0.363   2.709  0.2881 -0.2876 -0.4385
23079SOL    HW174084   9.580   0.361   2.796 -0.3031 -2.1396 -0.7475
23079SOL    HW274085   9.566   0.426   2.660  0.6244  0.7668  0.5139
23080SOL     OW74086   8.920   0.732   4.291 -0.4849  0.6159  0.2412
23080SOL    HW174087   8.953   0.815   4.256  0.1237  0.6017  0.7801
23080SOL    HW274088   8.998   0.678   4.302 -1.1483 -1.1900 -3.1213
23081SOL     OW74089   8.784   0.163   4.305 -0.0973  0.3776  0.0326
23081SOL    HW174090   8.712   0.188   4.362  1.1922  1.8254  1.0733
23081SOL    HW274091   8.861   0.165   4.362  0.8650 -0.4609 -1.2208
23082SOL     OW74092   9.136   9.949   6.235 -0.1411  0.4450 -0.2229
23082SOL    HW174093   9.152   9.918   6.146 -2.1160  1.2625 -0.9021
23082SOL    HW274094   9.168   9.879   6.292  1.1315 -0.0904 -1.5785
23083SOL     OW74095   9.030   0.335   4.425 -0.0416 -0.4203 -0.2007
23083SOL    HW174096   9.025   0.403   4.358  1.0912  0.5669  0.6976
23083SOL    HW274097   9.108   0.285   4.403 -0.5240 -1.0588 -0.4918
23084SOL     OW74098   9.778   2.178   3.852 -0.1054  0.2770  1.0239
23084SOL    HW174099   9.846   2.148   3.793 -0.6745  2.2802 -0.6921
23084SOL    HW274100   9.817   2.171   3.939  1.6172 -0.3311  0.2151
23085SOL     OW74101   6.765   0.731   3.519  0.4460  0.3151  0.2278
23085SOL    HW174102   6.700   0.674   3.561  1.4833 -0.3058  1.0300
23085SOL    HW274103   6.776   0.694   3.431  1.2658 -0.8751  0.8133
23086SOL     OW74104   9.623   1.208   4.080 -0.0205 -0.1707  0.0419
23086SOL    HW174105   9.605   1.116   4.103  0.6490 -0.3726 -0.2271
23086SOL    HW274106   9.717   1.217   4.091  0.3311 -0.2892 -2.6116
23087SOL     OW74107   8.299   1.725   5.601  0.0610  0.1105  0.0444
23087SOL    HW174108   8.209   1.695   5.608  0.1294  0.3565  2.3992
23087SOL    HW274109   8.308   1.791   5.670  1.9261  0.3561 -0.3971
23088SOL     OW74110   7.937   0.591   7.287 -0.6834 -0.0135 -0.3817
23088SOL    HW174111   7.947   0.629   7.200  0.6391 -0.7992 -0.5892
23088SOL    HW274112   8.022   0.552   7.306 -2.0182 -2.8947 -0.1893
23089SOL     OW74113   7.715   1.472   3.721  0.0163  0.1058  0.1555
23089SOL    HW174114   7.648   1.526   3.678 -1.7338  0.2569  2.9859
23089SOL    HW274115   7.672   1.387   3.735  1.5155 -0.8443 -0.9088
23090SOL     OW74116   9.596   1.386   3.874  0.2960 -0.3870  0.1389
23090SOL    HW174117   9.616   1.343   3.957 -1.5140  0.9590  1.3264
23090SOL    HW274118   9.506   1.358   3.854  0.6752 -0.5967 -1.2950
23091SOL     OW74119   8.851   9.229   2.395  0.5915 -0.8516  0.4772
23091SOL    HW174120   8.829   9.309   2.444  1.7747 -1.3433  1.8379
23091SOL    HW274121   8.877   9.261   2.308  2.4114  0.3776  1.4450
23092SOL     OW74122   7.685   1.121   5.141 -0.1311 -0.1658  0.2832
23092SOL    HW174123   7.737   1.163   5.072  0.6020  0.0521  0.9559
23092SOL    HW274124   7.721   1.157   5.222 -1.1116 -0.2800  0.7663
23093SOL     OW74125   8.568   0.570   4.297 -0.3616 -0.1154 -0.1568
23093SOL    HW174126   8.622   0.518   4.238 -1.3608 -0.9447 -0.3552
23093SOL    HW274127   8.627   0.638   4.330  0.2714  0.2517 -1.9678
23094SOL     OW74128   8.437   0.069   5.521  0.1881  0.1893 -0.9317
23094SOL    HW174129   8.448   0.152   5.476 -0.9797  0.7046 -0.2809
23094SOL    HW274130   8.406   0.009   5.453  1.0566  0.2769 -1.4075
23095SOL     OW74131   9.349   9.439   4.887 -0.5169 -0.3887  0.6388
23095SOL    HW174132   9.371   9.531   4.874 -0.1309 -0.6198 -0.3587
23095SOL    HW274133   9.403   9.392   4.824  1.1256 -1.5156  2.8389
23096SOL     OW74134   9.688   9.378   6.779  0.0283  0.0801 -0.0041
23096SOL    HW174135   9.774   9.396   6.742 -0.9446  0.3541 -2.2382
23096SOL    HW274136   9.704   9.317   6.851  2.1806  0.9417  0.2669
23097SOL     OW74137   9.878   0.635   5.810 -0.2534 -0.8766 -0.1827
23097SOL    HW174138   9.902   0.727   5.800 -0.3413 -0.8753 -0.3827
23097SOL    HW274139   9.918   0.609   5.893 -0.6081 -0.5347  0.0990
23098SOL     OW74140   7.610   1.040   4.144 -0.1475 -0.4014 -1.0915
23098SOL    HW174141   7.551   1.112   4.165  0.4486 -0.5280  1.1873
23098SOL    HW274142   7.693   1.082   4.121 -0.4159 -0.3023 -1.8923
23099SOL     OW74143   7.524   1.549   4.911  0.4055  0.2356  0.7630
23099SOL    HW174144   7.489   1.609   4.977 -0.5323 -0.6722  1.0936
23099SOL    HW274145   7.544   1.606   4.836 -0.5419  0.9679  1.0470
23100SOL     OW74146   8.059   1.889   4.312 -0.2902 -0.2674  0.0621
23100SOL    HW174147   8.059   1.822   4.243 -1.1260  0.8257 -1.0176
23100SOL    HW274148   8.150   1.892   4.342  0.1059 -0.6788 -1.0565
23101SOL     OW74149   8.556   9.668   3.075 -0.4889 -0.6697  0.0987
23101SOL    HW174150   8.628   9.710   3.027 -2.2966  1.0961 -1.1111
23101SOL    HW274151   8.586   9.668   3.166  0.4774  1.3317 -0.1919
23102SOL     OW74152   8.196   0.657   5.248 -0.4145  0.4364  0.5744
23102SOL    HW174153   8.160   0.746   5.245  1.3074  1.1732  1.3267
23102SOL    HW274154   8.155   0.613   5.174 -1.8136  1.6450  0.5950
23103SOL     OW74155   0.469   2.794   5.736 -1.1553  0.0084 -0.0016
23103SOL    HW174156   0.511   2.879   5.721  2.2521 -1.8827 -1.8527
23103SOL    HW274157   0.464   2.754   5.649  0.3236 -2.9820  1.1964
23104SOL     OW74158   9.707   1.343   5.816 -0.5051 -0.2204  0.1702
23104SOL    HW174159   9.782   1.363   5.760  0.0058 -0.1885  0.8607
23104SOL    HW274160   9.653   1.422   5.813 -2.2037 -1.4230 -2.9706
23105SOL     OW74161   9.735   1.870   3.980 -0.5654  0.8644  0.0628
23105SOL    HW174162   9.688   1.856   3.898 -0.4055  1.9607 -0.2251
23105SOL    HW274163   9.827   1.852   3.959 -0.2415  3.0075 -0.5172
23106SOL     OW74164   7.248   2.128   2.975  0.0322  0.4149 -0.6863
23106SOL    HW174165   7.209   2.040   2.969 -0.4825  0.6801 -1.2171
23106SOL    HW274166   7.326   2.124   2.919 -0.1903  0.4055 -0.9940
23107SOL     OW74167   8.053   0.807   5.767  0.5127 -0.2455 -0.4441
23107SOL    HW174168   8.000   0.816   5.846 -0.3817  2.0956 -1.2447
23107SOL    HW274169   8.079   0.715   5.765 -0.0693 -0.5002  2.1585
23108SOL     OW74170   7.450   0.547   4.091  0.0393 -0.7517  0.0472
23108SOL    HW174171   7.532   0.595   4.103 -0.0794 -1.0307  2.1449
23108SOL    HW274172   7.443   0.535   3.996  0.6635  2.3215 -0.4422
23109SOL     OW74173   0.352   0.208   4.793 -0.2915 -0.4176 -0.4886
23109SOL    HW174174   0.300   0.136   4.830 -1.2911 -0.8516 -2.6751
23109SOL    HW274175   0.438   0.170   4.777 -0.0866 -0.4416  0.6614
23110SOL     OW74176   8.203   1.260   4.115  0.5136  0.3073 -0.4714
23110SOL    HW174177   8.293   1.233   4.134  0.6079 -0.0091 -1.3897
23110SOL    HW274178   8.179   1.214   4.035  0.0741  1.5990 -1.1029
23111SOL     OW74179   9.038   9.458   5.040  0.3648 -1.0205 -0.2802
23111SOL    HW174180   9.029   9.364   5.053  0.7993 -1.2980 -1.8393
23111SOL    HW274181   9.018   9.471   4.947 -0.4684  0.5302  0.0939
23112SOL     OW74182   9.880   1.356   4.264 -0.0484  0.2649  0.1420
23112SOL    HW174183   9.907   1.397   4.347 -2.6061  2.0887  0.1255
23112SOL    HW274184   9.819   1.287   4.290  0.4245 -0.2717 -0.1492
23113SOL     OW74185   7.968   1.412   4.884  0.0110 -0.9113  0.2038
23113SOL    HW174186   7.878   1.381   4.882 -0.7777  1.2721 -0.0816
23113SOL    HW274187   7.991   1.413   4.977 -0.5499 -0.7249  0.3419
23114SOL     OW74188   8.576   0.411   3.036  0.2751  0.4168 -0.5558
23114SOL    HW174189   8.636   0.387   3.106 -0.0374 -0.9101 -0.7271
23114SOL    HW274190   8.590   0.504   3.023  1.9474  0.2175 -0.2659
23115SOL     OW74191   7.068   2.298   5.086  0.3144  0.1892  0.5905
23115SOL    HW174192   7.108   2.273   5.170 -0.2258 -1.4623  0.3880
23115SOL    HW274193   7.134   2.351   5.042  1.1389 -0.0831  1.4888
23116SOL     OW74194   8.720   2.341   5.038  0.4139  0.0974 -0.4171
23116SOL    HW174195   8.704   2.247   5.028  0.5587  0.1069 -0.7590
23116SOL    HW274196   8.782   2.362   4.967  0.2668  0.4778 -0.4312
23117SOL     OW74197   8.132   0.466   3.260  0.2185  0.0066 -0.2962
23117SOL    HW174198   8.221   0.438   3.279  0.0967 -1.6475 -1.9808
23117SOL    HW274199   8.077   0.411   3.316  0.1746 -0.2944 -0.6327
23118SOL     OW74200   8.559   0.055   5.247  0.1154 -0.3796 -0.2868
23118SOL    HW174201   8.495   0.126   5.256 -1.5271 -1.8262 -0.2109
23118SOL    HW274202   8.570   0.021   5.336 -0.6192 -1.4883 -0.6098
23119SOL     OW74203   7.101   9.440   6.939 -0.2541  0.2312 -0.3085
23119SOL    HW174204   7.161   9.437   6.865 -1.7519  0.0921 -1.5654
23119SOL    HW274205   7.095   9.532   6.963  0.6759  0.2072  0.0090
23120SOL     OW74206   7.140   2.369   4.705  0.5214  0.9202 -0.0424
23120SOL    HW174207   7.212   2.313   4.674 -0.8500 -0.3701 -0.9724
23120SOL    HW274208   7.129   2.345   4.797 -0.4464 -0.8240 -0.5822
23121SOL     OW74209   8.707   8.532   6.713  0.2216  0.2551  0.2537
23121SOL    HW174210   8.722   8.626   6.718  1.3467  0.1095 -0.3363
23121SOL    HW274211   8.761   8.495   6.782  1.2011 -0.1039 -0.6821
23122SOL     OW74212   7.936   1.354   5.166  0.1405  0.0747  0.0944
23122SOL    HW174213   7.982   1.437   5.174  0.3998 -0.0632  0.0080
23122SOL    HW274214   7.886   1.347   5.248 -1.8875  1.5358 -0.9518
23123SOL     OW74215   7.458   0.546   4.992 -0.5359  0.1385 -0.6339
23123SOL    HW174216   7.418   0.582   5.071 -0.0282  1.0889 -0.8009
23123SOL    HW274217   7.388   0.497   4.950 -0.6945 -0.7175  0.6197
23124SOL     OW74218   7.591   0.531   3.014  0.7683 -0.3805 -0.0160
23124SOL    HW174219   7.543   0.448   3.017  0.5533 -0.3327 -1.8754
23124SOL    HW274220   7.578   0.564   2.925  2.5762  0.6287  0.0591
23125SOL     OW74221   9.617   2.218   2.425  0.3872 -0.4183  0.2048
23125SOL    HW174222   9.562   2.275   2.371  2.8493  0.8925 -1.0330
23125SOL    HW274223   9.593   2.129   2.398  1.0021  0.1996 -2.5366
23126SOL     OW74224   7.824   0.178   4.175  0.7934  0.0819  0.5267
23126SOL    HW174225   7.852   0.096   4.135  0.1611  0.1029  0.0324
23126SOL    HW274226   7.852   0.245   4.113 -1.8232 -0.0044 -0.8279
23127SOL     OW74227   8.789   1.036   5.038 -0.3683 -0.1338 -0.2679
23127SOL    HW174228   8.845   0.961   5.059 -0.0644 -0.1329 -1.0262
23127SOL    HW274229   8.816   1.061   4.949 -0.5852  0.7663 -0.0797
23128SOL     OW74230   8.783   2.046   5.046  0.5436 -0.5108  0.5761
23128SOL    HW174231   8.846   2.103   5.090  0.1250  0.1510  0.3150
23128SOL    HW274232   8.754   1.985   5.114 -1.7777  1.8774  1.8220
23129SOL     OW74233   8.088   0.803   3.236  0.2697  0.2531 -0.1210
23129SOL    HW174234   8.038   0.801   3.318  0.2560 -2.2793 -0.1578
23129SOL    HW274235   8.178   0.788   3.263  0.2373 -0.8002 -0.5641
23130SOL     OW74236   6.941   2.031   4.738  0.1173  0.8004 -0.6535
23130SOL    HW174237   6.996   2.052   4.813 -1.6271 -0.0239  0.8947
23130SOL    HW274238   6.963   1.940   4.716 -0.2504  0.6387 -0.3576
23131SOL     OW74239   7.682   9.718   3.630 -0.0977  0.1613  0.1742
23131SOL    HW174240   7.672   9.639   3.577  2.2756 -0.6127  0.7705
23131SOL    HW274241   7.756   9.764   3.590  0.7304  0.3259  1.8431
23132SOL     OW74242   9.282   0.440   4.164 -0.6456  0.4351  0.0460
23132SOL    HW174243   9.325   0.429   4.079  0.1307  0.5349  0.4155
23132SOL    HW274244   9.354   0.434   4.227 -1.3085 -0.2690  0.7324
23133SOL     OW74245   8.902   9.544   4.490  0.0271 -0.5786 -0.1763
23133SOL    HW174246   8.996   9.541   4.504  0.3716  1.3705 -1.8286
23133SOL    HW274247   8.882   9.638   4.481 -2.2349 -0.8845  1.2183
23134SOL     OW74248   9.024   0.035   3.627  0.1586  0.0488  0.4811
23134SOL    HW174249   9.081   0.090   3.681 -3.1264  2.5874  1.5785
23134SOL    HW274250   8.971  -0.013   3.690 -1.3404  0.4100 -0.4915
23135SOL     OW74251   9.168   1.832   6.758 -0.1783 -0.1168  0.3454
23135SOL    HW174252   9.162   1.764   6.824 -0.7273 -0.0354  0.3823
23135SOL    HW274253   9.157   1.786   6.675 -0.2592 -0.1112  0.3534
23136SOL     OW74254   7.785   0.841   3.914 -0.7492  0.3687  0.3456
23136SOL    HW174255   7.837   0.920   3.933  1.8000 -0.6927 -1.9763
23136SOL    HW274256   7.850   0.775   3.891 -3.0055 -1.8334  0.1600
23137SOL     OW74257   9.951   1.060   5.101 -0.5083  0.3665  0.6956
23137SOL    HW174258   9.992   1.145   5.084 -1.1764  0.6775  0.5947
23137SOL    HW274259  10.011   0.996   5.064 -0.5041  0.8607 -0.1698
23138SOL     OW74260   9.746   9.734   5.417 -0.3711  0.0622 -0.0105
23138SOL    HW174261   9.827   9.698   5.454 -0.3933  0.9901  0.9615
23138SOL    HW274262   9.676   9.697   5.471 -0.5372 -0.0641 -0.3102
23139SOL     OW74263   6.577   1.126   3.011  0.3304 -0.7525 -0.0152
23139SOL    HW174264   6.662   1.097   2.977 -0.1295  1.4105 -3.3436
23139SOL    HW274265   6.514   1.067   2.970 -0.0130  0.0226 -0.6276
23140SOL     OW74266   8.677   1.722   5.830  0.2119 -0.8954  0.1094
23140SOL    HW174267   8.593   1.758   5.802  0.8952 -0.3136 -1.2721
23140SOL    HW274268   8.677   1.632   5.797 -0.8449 -1.6822  2.1942
23141SOL     OW74269   9.360   0.544   2.689 -0.4032 -0.0261 -0.2093
23141SOL    HW174270   9.398   0.590   2.614  0.8838  1.6719  1.4417
23141SOL    HW274271   9.401   0.584   2.765 -2.1855 -1.2663  1.4514
23142SOL     OW74272   8.781   0.172   2.978  0.0663 -0.5363  0.0482
23142SOL    HW174273   8.711   0.186   3.041 -0.1735 -1.0606 -0.1061
23142SOL    HW274274   8.855   0.222   3.013 -0.6303  0.7164 -0.2215
23143SOL     OW74275   9.976   1.453   4.525  0.4701  0.1668 -0.4325
23143SOL    HW174276  10.032   1.405   4.586  0.4621  0.8748  0.1385
23143SOL    HW274277   9.998   1.545   4.539 -0.9592  0.4772 -0.0483
23144SOL     OW74278   8.317   1.391   4.507  0.2505 -0.4356 -0.7858
23144SOL    HW174279   8.286   1.444   4.581  1.0092  1.2698 -1.6576
23144SOL    HW274280   8.296   1.301   4.532 -4.0123  0.4880 -0.6621
23145SOL     OW74281   8.317   1.375   3.728 -0.1092 -0.2963 -0.8094
23145SOL    HW174282   8.262   1.407   3.800  1.2853  0.0996  0.0983
23145SOL    HW274283   8.407   1.387   3.759  0.5138  0.0034 -2.6812
23146SOL     OW74284   8.531   0.900   4.899  0.0465 -0.3057  0.0299
23146SOL    HW174285   8.502   0.839   4.967 -0.1535  0.3347  0.5193
23146SOL    HW274286   8.606   0.945   4.937 -0.1691  0.1742 -0.1101
23147SOL     OW74287   8.884   0.237   3.889  0.1607  0.0376  0.4418
23147SOL    HW174288   8.971   0.197   3.896  0.0412 -0.9230 -2.6520
23147SOL    HW274289   8.901   0.331   3.880  0.8871 -0.1156  0.1330
23148SOL     OW74290   6.547   8.992   4.759 -0.4448  0.1483  0.1704
23148SOL    HW174291   6.502   8.916   4.796  0.5352  0.1526  1.3914
23148SOL    HW274292   6.477   9.048   4.725 -1.2532 -0.5834  0.6289
23149SOL     OW74293   8.238   8.315   5.375  0.5420 -0.2944  0.4894
23149SOL    HW174294   8.212   8.381   5.311  3.2967  0.2840 -0.1016
23149SOL    HW274295   8.318   8.350   5.414  1.5597 -2.8817  0.7868
23150SOL     OW74296   8.627   0.213   5.018  0.0632  0.2410 -0.1660
23150SOL    HW174297   8.632   0.175   5.106 -1.7408 -0.3043 -0.2644
23150SOL    HW274298   8.606   0.305   5.033 -0.1317  0.1729 -0.0207
23151SOL     OW74299   7.888   9.543   2.856  0.1150 -0.2458 -0.0293
23151SOL    HW174300   7.945   9.568   2.784  1.3254 -0.4607  0.8533
23151SOL    HW274301   7.929   9.466   2.893  1.3186  1.7460  2.9602
23152SOL     OW74302   8.411   0.277   5.344 -0.5234 -0.3664 -0.3729
23152SOL    HW174303   8.421   0.331   5.266  0.9042  1.0273  0.7231
23152SOL    HW274304   8.322   0.294   5.374 -1.3301 -1.4681 -2.0622
23153SOL     OW74305   8.455   1.604   5.414 -0.4436  0.5327 -0.5202
23153SOL    HW174306   8.392   1.550   5.365 -0.1437 -0.2672 -0.0320
23153SOL    HW274307   8.410   1.625   5.496 -0.6382  1.2024 -0.7966
23154SOL     OW74308   7.716   9.981   4.886 -0.0589  0.4090 -0.0424
23154SOL    HW174309   7.705   9.914   4.819  0.0822  0.8166 -0.4742
23154SOL    HW274310   7.780  10.041   4.850  0.5089  0.2804  0.7296
23155SOL     OW74311   8.457   0.063   4.045  0.4651  0.6654 -0.2596
23155SOL    HW174312   8.509   0.143   4.043  1.3069  0.1522  0.7506
23155SOL    HW274313   8.450   0.041   4.138  0.2455 -0.4341 -0.5290
23156SOL     OW74314   8.407   2.241   4.474 -0.1714  0.5610 -0.0104
23156SOL    HW174315   8.343   2.215   4.540 -0.0762  0.3962  0.0174
23156SOL    HW274316   8.361   2.304   4.419 -0.9485 -0.9662 -1.1268
23157SOL     OW74317   8.451   2.966   3.444 -0.3212  0.1551 -0.1896
23157SOL    HW174318   8.452   3.059   3.421  0.1196  0.2242  0.0987
23157SOL    HW274319   8.443   2.965   3.540  1.7757 -0.0595  0.0148
23158SOL     OW74320   8.357   0.707   3.363  0.7236  1.2565 -0.5144
23158SOL    HW174321   8.411   0.643   3.317  2.1880  1.6648  0.6033
23158SOL    HW274322   8.336   0.664   3.446  0.0400  1.4388 -0.5938
23159SOL     OW74323   0.545   0.968   4.514  0.4282  0.4300 -0.1903
23159SOL    HW174324   0.612   0.901   4.507  0.3718  0.1362  1.7178
23159SOL    HW274325   0.592   1.048   4.536  0.0956  0.0235  2.0925
23160SOL     OW74326   8.688   0.516   4.874 -0.2964 -0.1420  0.6135
23160SOL    HW174327   8.738   0.541   4.952  0.6975 -0.3334  0.0515
23160SOL    HW274328   8.753   0.478   4.815 -1.2853 -1.3799  0.2940
23161SOL     OW74329   9.517   0.954   6.481 -0.1579  0.6791 -0.7073
23161SOL    HW174330   9.451   0.905   6.433 -0.4575  0.4363 -0.0553
23161SOL    HW274331   9.468   1.009   6.541  0.2388 -0.0838  0.3402
23162SOL     OW74332   9.633   9.973   5.674  0.0071  0.0175  0.1603
23162SOL    HW174333   9.721  10.009   5.658  0.9132 -1.3977  1.7773
23162SOL    HW274334   9.576  10.050   5.676  1.4149  1.0782  0.3764
23163SOL     OW74335   6.221   0.417   4.834  0.1239  0.4272  0.3727
23163SOL    HW174336   6.258   0.348   4.779 -0.0996 -0.9935  1.9714
23163SOL    HW274337   6.216   0.493   4.776  0.6979 -0.7849 -1.3185
23164SOL     OW74338   7.889   0.175   2.789  0.2104  0.2668 -0.3788
23164SOL    HW174339   7.846   0.231   2.724 -0.2260  1.4786  0.9222
23164SOL    HW274340   7.981   0.178   2.765 -0.1400 -0.5428 -1.8578
23165SOL     OW74341   9.113   9.629   4.818  0.0408 -0.3684  0.4540
23165SOL    HW174342   9.135   9.688   4.746  0.2103  0.7721  1.4287
23165SOL    HW274343   9.187   9.568   4.822  0.4916  0.1540  0.2556
23166SOL     OW74344   8.950   9.749   3.660  0.0475  0.0427  0.2887
23166SOL    HW174345   9.036   9.760   3.702  0.2803  0.9561 -0.4202
23166SOL    HW274346   8.967   9.687   3.589  0.2952  0.8394 -0.3533
23167SOL     OW74347   7.659   0.381   6.017 -0.4845 -0.1571  0.6315
23167SOL    HW174348   7.742   0.424   5.996  0.0605 -1.3810  0.2873
23167SOL    HW274349   7.616   0.442   6.077  0.1310  1.0349 -0.1154
23168SOL     OW74350   7.780   1.681   5.297  0.6621 -0.6783 -0.3185
23168SOL    HW174351   7.732   1.607   5.259 -1.4043 -1.0154  2.7154
23168SOL    HW274352   7.863   1.644   5.327  0.0736 -1.5654  0.2424
23169SOL     OW74353   8.508   9.534   6.063  0.1431  0.4215  0.6795
23169SOL    HW174354   8.533   9.609   6.009  3.1461 -0.9609  0.0290
23169SOL    HW274355   8.591   9.491   6.083 -1.3214 -1.4228  2.9727
23170SOL     OW74356   9.745   0.768   6.542  0.4834 -0.0686  0.4868
23170SOL    HW174357   9.675   0.832   6.529  0.0074 -0.3041  1.7541
23170SOL    HW274358   9.825   0.814   6.518  0.0798  0.8083  0.8123
23171SOL     OW74359   9.900   1.194   5.441 -0.0590  0.2629 -0.4748
23171SOL    HW174360   9.849   1.115   5.422 -0.3923  0.3260  0.1673
23171SOL    HW274361   9.906   1.239   5.356 -1.1956  0.3233 -0.5259
23172SOL     OW74362   7.644   0.769   4.114  0.2207 -0.3427  0.5289
23172SOL    HW174363   7.617   0.856   4.143 -0.9602 -0.9538  1.2983
23172SOL    HW274364   7.695   0.785   4.034 -0.2218  1.0229  0.5102
23173SOL     OW74365   8.944   1.513   5.330 -0.4072 -0.3548 -0.4144
23173SOL    HW174366   8.956   1.418   5.326  0.2798 -0.2428 -1.0498
23173SOL    HW274367   8.849   1.525   5.323 -0.5389 -1.0090  0.1226
23174SOL     OW74368   8.528   1.472   5.745 -0.7515  0.2931  0.1325
23174SOL    HW174369   8.476   1.391   5.746 -1.4278  0.7256  0.2131
23174SOL    HW274370   8.525   1.501   5.654  0.2056 -0.2273 -0.0673
23175SOL     OW74371   9.631   2.148   5.782  0.5484 -0.5843  0.2082
23175SOL    HW174372   9.653   2.116   5.869  1.8902  0.3479  0.2094
23175SOL    HW274373   9.539   2.124   5.771  0.5136 -1.1628  1.6702
23176SOL     OW74374   7.683   1.767   6.328 -0.2514 -0.2762  0.1709
23176SOL    HW174375   7.661   1.844   6.275 -0.4609 -1.8516 -2.1069
23176SOL    HW274376   7.778   1.760   6.321 -0.2711 -0.4312  0.0392
23177SOL     OW74377   8.830   1.653   3.688  0.3773  0.2269  0.0782
23177SOL    HW174378   8.816   1.744   3.714  1.1723  0.2897  0.3065
23177SOL    HW274379   8.897   1.657   3.620 -0.0845 -0.1308 -0.3990
23178SOL     OW74380   9.697   1.633   2.948  0.1133  0.3193 -0.1493
23178SOL    HW174381   9.677   1.540   2.954 -0.0723  0.5327  3.7238
23178SOL    HW274382   9.786   1.636   2.912  0.8197 -1.4736  1.3344
23179SOL     OW74383   8.075   0.096   5.356 -0.1604 -0.6116  0.0248
23179SOL    HW174384   7.986   0.075   5.326  0.8163 -2.2024 -1.8705
23179SOL    HW274385   8.112   0.011   5.381  1.4049 -0.2079 -0.8722
23180SOL     OW74386   6.827   0.118   5.854 -0.0560 -0.0273  0.9241
23180SOL    HW174387   6.792   0.029   5.862 -1.5917  0.5438  0.7163
23180SOL    HW274388   6.888   0.114   5.781 -0.8266 -0.7017  0.3158
23181SOL     OW74389   0.073   1.226   6.219  0.5740  0.7210 -0.4252
23181SOL    HW174390  -0.014   1.222   6.179  0.5047  3.4507 -0.6667
23181SOL    HW274391   0.069   1.163   6.291 -1.7495  1.0804 -0.1872
23182SOL     OW74392   6.500   0.514   4.766 -0.3246 -1.1987  0.1562
23182SOL    HW174393   6.434   0.453   4.797 -1.2237 -1.0255 -1.3714
23182SOL    HW274394   6.518   0.570   4.841 -0.4324 -2.5133  1.1738
23183SOL     OW74395   5.888   2.651   3.890 -0.0947 -0.4103 -0.6747
23183SOL    HW174396   5.918   2.597   3.817  1.5953 -0.9051  0.3690
23183SOL    HW274397   5.906   2.599   3.968 -1.4587  0.3045  0.1542
23184SOL     OW74398   8.830   2.043   5.342 -0.3312 -0.0121 -0.0945
23184SOL    HW174399   8.806   2.076   5.428  0.1049  0.1936 -0.0501
23184SOL    HW274400   8.773   1.967   5.329  1.1919 -1.4667  1.3776
23185SOL     OW74401   8.025   2.493   4.987 -0.2622  0.1714  0.4885
23185SOL    HW174402   8.063   2.581   4.997  1.8660 -0.9498  2.6490
23185SOL    HW274403   8.009   2.486   4.893 -0.9255  3.0464  0.3212
23186SOL     OW74404   9.457   9.452   6.667 -0.3381  0.0532  0.2146
23186SOL    HW174405   9.503   9.495   6.594  0.2501 -0.8880  0.0313
23186SOL    HW274406   9.526   9.407   6.715 -0.9780 -0.8074  0.3284
23187SOL     OW74407   8.153   2.117   4.611 -0.3440  0.2936 -0.2479
23187SOL    HW174408   8.155   2.024   4.589  1.0019  0.2730 -0.0677
23187SOL    HW274409   8.071   2.149   4.571 -0.1233 -0.6689 -1.5182
23188SOL     OW74410   8.566   1.139   7.478 -0.2180 -0.0040  0.0834
23188SOL    HW174411   8.495   1.203   7.478 -0.9191 -0.7752  0.2972
23188SOL    HW274412   8.643   1.188   7.451 -0.9713  0.6854 -0.8024
23189SOL     OW74413   0.077   9.267   4.339 -0.4839  0.2728  0.0870
23189SOL    HW174414   0.084   9.318   4.420 -1.1930 -0.2657  0.4984
23189SOL    HW274415   0.134   9.192   4.353 -0.6554  0.1472  0.1164
23190SOL     OW74416   8.148   7.846   3.712  0.5326  0.3045  0.0729
23190SOL    HW174417   8.089   7.897   3.657 -0.3502 -0.2129  0.5346
23190SOL    HW274418   8.119   7.756   3.702  0.6636  0.1469  1.0053
23191SOL     OW74419   9.839   1.576   5.355 -0.0101 -0.3521  0.5137
23191SOL    HW174420   9.808   1.658   5.316 -0.9544 -0.9849 -0.1041
23191SOL    HW274421   9.922   1.558   5.311 -0.6513 -0.6170 -0.6212
23192SOL     OW74422   8.230   1.508   3.964  0.5405  0.2040  0.7855
23192SOL    HW174423   8.315   1.548   3.983  0.2493  0.8533  0.7225
23192SOL    HW274424   8.224   1.435   4.026  1.0560  0.2834  0.9337
23193SOL     OW74425   7.882   0.648   4.664  0.2267 -0.2191 -0.9033
23193SOL    HW174426   7.918   0.568   4.626  0.9366 -0.2289 -0.2222
23193SOL    HW274427   7.787   0.634   4.665  0.4568 -1.8061  0.8615
23194SOL     OW74428   8.297   0.820   3.032  0.1075 -0.7144 -0.2831
23194SOL    HW174429   8.390   0.826   3.053  0.3042 -2.2331 -0.6975
23194SOL    HW274430   8.278   0.727   3.033 -1.5492 -0.3904  0.3860
23195SOL     OW74431   8.335   1.269   5.636 -0.1657 -0.1425  0.1548
23195SOL    HW174432   8.289   1.215   5.700 -0.1081 -0.5798 -0.1715
23195SOL    HW274433   8.280   1.265   5.558 -0.2109  0.3499  0.1569
23196SOL     OW74434   8.226   1.489   4.764 -0.2444 -0.0116  0.1089
23196SOL    HW174435   8.233   1.584   4.758 -1.2441  0.0587 -0.1281
23196SOL    HW274436   8.176   1.473   4.844  1.4917 -0.4241  1.1420
23197SOL     OW74437   8.306   2.019   3.500 -0.2148  0.2449 -0.4124
23197SOL    HW174438   8.346   2.022   3.413  2.5354  1.3260  0.8194
23197SOL    HW274439   8.288   2.111   3.520 -4.1496 -0.2860 -1.2534
23198SOL     OW74440   9.470   2.081   4.689 -0.5717 -0.2468 -0.1042
23198SOL    HW174441   9.504   2.002   4.647 -0.2373  0.6794 -1.6150
23198SOL    HW274442   9.437   2.050   4.773  1.1050 -1.7127  0.0642
23199SOL     OW74443   9.322   0.824   3.503 -0.3689  0.6560  0.1237
23199SOL    HW174444   9.394   0.770   3.538 -1.7350 -1.3886 -0.1795
23199SOL    HW274445   9.269   0.845   3.580  0.1695  1.6358  0.2449
23200SOL     OW74446   6.143   1.178   3.751 -0.3143  0.1186  0.1588
23200SOL    HW174447   6.153   1.122   3.675  1.2501 -0.2688  0.6311
23200SOL    HW274448   6.232   1.196   3.780 -0.8758  0.5964  1.6518
23201SOL     OW74449   9.106   1.244   5.122  0.6725 -0.3214  0.4306
23201SOL    HW174450   9.176   1.304   5.147  0.5978 -0.2318  0.4245
23201SOL    HW274451   9.103   1.249   5.027  0.1618  0.2330  0.4715
23202SOL     OW74452   9.706   9.711   4.388  0.4943 -0.2306 -0.6152
23202SOL    HW174453   9.740   9.796   4.413  0.8080 -0.5562  0.0597
23202SOL    HW274454   9.625   9.731   4.341  1.3423  0.5119 -1.8002
23203SOL     OW74455   8.619   2.433   4.357  0.1803 -0.1494  0.8212
23203SOL    HW174456   8.562   2.358   4.371  0.1506 -0.1124  0.9042
23203SOL    HW274457   8.661   2.416   4.273  1.6787 -1.2302  1.7688
23204SOL     OW74458   8.946   2.087   4.784  0.3253 -0.4924 -1.1178
23204SOL    HW174459   9.031   2.095   4.740 -0.2766  3.0493 -1.8310
23204SOL    HW274460   8.960   2.129   4.869 -0.7890  0.4898 -1.4069
23205SOL     OW74461   8.064   1.679   4.143  0.2297  0.2479 -0.5849
23205SOL    HW174462   8.102   1.631   4.217 -0.2953  2.0646  0.8908
23205SOL    HW274463   8.086   1.626   4.066  4.1501  0.3053  0.4043
23206SOL     OW74464   8.868   0.644   3.035  1.1148 -0.1004  0.1254
23206SOL    HW174465   8.895   0.675   3.121 -0.3139  0.3115  0.4343
23206SOL    HW274466   8.949   0.611   2.995  2.0165  0.8511  1.1258
23207SOL     OW74467   8.263   2.439   4.349 -0.0946 -0.2203 -0.1268
23207SOL    HW174468   8.170   2.420   4.352 -0.4653  1.4350 -0.3150
23207SOL    HW274469   8.286   2.434   4.256 -0.1001 -0.2146 -0.1281
23208SOL     OW74470   8.760   0.318   6.084 -0.2199 -0.3541 -0.3580
23208SOL    HW174471   8.671   0.332   6.053  0.6773  3.0019 -1.6320
23208SOL    HW274472   8.801   0.266   6.015 -0.9061 -1.1486 -0.1819
23209SOL     OW74473   0.136   9.870   5.077  0.6052 -0.0683  0.2968
23209SOL    HW174474   0.154   9.789   5.124 -0.9721 -0.6987 -0.1509
23209SOL    HW274475   0.221   9.915   5.073  1.2988 -1.2417  1.3757
23210SOL     OW74476   8.123   9.896   4.790  0.0767  0.3103 -0.1345
23210SOL    HW174477   8.137   9.882   4.696 -0.7361  1.9858 -0.5367
23210SOL    HW274478   8.065   9.825   4.817 -0.1544  0.1560 -1.0340
23211SOL     OW74479   0.127   1.141   4.191 -0.5857  0.1095 -0.2082
23211SOL    HW174480   0.111   1.126   4.098  0.9417  0.7859 -0.5931
23211SOL    HW274481   0.122   1.053   4.230 -1.5914 -0.1343 -0.8463
23212SOL     OW74482   0.605   2.192   4.896 -0.3001  0.4508 -0.1866
23212SOL    HW174483   0.679   2.176   4.954  0.0690  3.1599  0.1314
23212SOL    HW274484   0.529   2.165   4.947  0.2332  0.3660  0.5744
23213SOL     OW74485   8.704   0.386   3.276  0.1270  0.1093 -0.4641
23213SOL    HW174486   8.727   0.315   3.336 -1.0080  0.7280  0.7292
23213SOL    HW274487   8.739   0.465   3.318 -1.3895  0.6544 -0.1705
23214SOL     OW74488   9.401   1.876   4.291 -0.3127  0.0238  0.7204
23214SOL    HW174489   9.365   1.965   4.292 -0.1724  0.1260 -1.4272
23214SOL    HW274490   9.476   1.881   4.352 -0.1362  1.4454  0.4126
23215SOL     OW74491   8.698   1.916   4.835  0.2563 -0.1807  0.2171
23215SOL    HW174492   8.718   1.978   4.905  1.7981 -0.8803  0.4062
23215SOL    HW274493   8.767   1.928   4.770  0.1895 -1.2074 -0.0633
23216SOL     OW74494   9.819   0.393   5.581  0.0667 -0.3449 -0.0677
23216SOL    HW174495   9.756   0.370   5.512 -3.2765  1.2334  2.3106
23216SOL    HW274496   9.797   0.335   5.654  1.8954 -0.2698  0.5737
23217SOL     OW74497   8.633   0.330   2.688 -0.5331 -0.2336 -0.3134
23217SOL    HW174498   8.693   0.369   2.752 -1.3194 -0.8358  0.8096
23217SOL    HW274499   8.589   0.260   2.736 -0.9697 -0.8455 -1.5911
23218SOL     OW74500   7.285   8.885   4.712 -0.3818 -0.4491  0.2879
23218SOL    HW174501   7.307   8.952   4.777  3.5429 -1.0739 -0.2232
23218SOL    HW274502   7.221   8.829   4.756 -2.2568  2.4657  1.4259
23219SOL     OW74503   7.251   1.259   4.016  0.1048 -0.2236  0.0544
23219SOL    HW174504   7.178   1.319   4.025  2.7721  3.2823 -0.8047
23219SOL    HW274505   7.268   1.255   3.922  0.9896 -1.0331  0.2369
23220SOL     OW74506   8.207   9.830   4.015  0.5935  0.3813 -0.4971
23220SOL    HW174507   8.128   9.778   4.030 -1.5441  4.0904  1.6938
23220SOL    HW274508   8.265   9.805   4.087  0.8372 -1.2035 -1.2177
23221SOL     OW74509   6.547   0.561   3.527 -0.4053 -0.4000  0.5167
23221SOL    HW174510   6.577   0.483   3.480 -1.3544 -1.3220  1.3994
23221SOL    HW274511   6.493   0.526   3.598  0.6919  0.9813  2.0721
23222SOL     OW74512   9.360   1.279   4.747  0.1157  0.2364  0.3986
23222SOL    HW174513   9.347   1.214   4.678 -1.4698  0.9073  0.0355
23222SOL    HW274514   9.388   1.358   4.701 -0.7566  0.6276  0.5239
23223SOL     OW74515   6.896   8.983   5.940 -0.0124  0.1778 -0.4925
23223SOL    HW174516   6.984   8.947   5.927 -0.6739 -1.8242  0.3929
23223SOL    HW274517   6.847   8.954   5.863 -0.4177 -0.4322 -0.0111
23224SOL     OW74518   7.814   0.256   3.059  0.5940  0.2454 -0.2249
23224SOL    HW174519   7.858   0.241   2.975 -1.7739 -1.6780 -1.1916
23224SOL    HW274520   7.798   0.169   3.094 -3.2711  0.7907 -0.4066
23225SOL     OW74521   8.784   1.554   3.949 -0.0255 -0.1140  0.1614
23225SOL    HW174522   8.773   1.572   3.856 -0.6730  2.6678  0.7196
23225SOL    HW274523   8.878   1.565   3.964  0.1350 -0.9074 -0.1965
23226SOL     OW74524   8.494   0.276   6.033 -0.0016 -0.0375 -0.2387
23226SOL    HW174525   8.435   0.319   6.095  0.8089 -0.8627  1.1512
23226SOL    HW274526   8.473   0.314   5.948 -1.0811  1.1886  0.5673
23227SOL     OW74527   7.872   2.285   4.537 -0.1641  0.6063 -0.7000
23227SOL    HW174528   7.924   2.321   4.465 -1.1644 -0.1405 -1.8195
23227SOL    HW274529   7.883   2.190   4.528 -3.1970  0.3527 -2.1036
23228SOL     OW74530   8.704   0.195   4.746 -0.3433  0.2640 -0.0107
23228SOL    HW174531   8.701   0.101   4.729  0.2415  0.1995  0.2319
23228SOL    HW274532   8.678   0.203   4.838  0.2577  0.2769  0.1625
23229SOL     OW74533   9.530   2.072   5.188  0.1218 -0.0586 -0.1425
23229SOL    HW174534   9.552   2.164   5.203 -0.8452  0.2074 -0.3387
23229SOL    HW274535   9.510   2.067   5.094 -0.9912 -0.2150  0.0931
23230SOL     OW74536   6.375   1.081   5.001  0.2168  0.3092 -0.1272
23230SOL    HW174537   6.290   1.088   4.958 -0.7625  0.0647  1.7398
23230SOL    HW274538   6.385   1.164   5.049  0.4895 -0.1594  0.6309
23231SOL     OW74539   8.332   1.698   4.425 -0.2710 -0.7970 -0.2354
23231SOL    HW174540   8.372   1.630   4.371 -0.1442  0.1825 -1.4068
23231SOL    HW274541   8.379   1.778   4.401 -0.6714 -0.2331  0.8442
23232SOL     OW74542   7.742   2.956   4.843 -0.8542  0.2694  0.2932
23232SOL    HW174543   7.653   2.941   4.875 -1.1761  0.2115 -0.6160
23232SOL    HW274544   7.743   2.915   4.756  0.4029 -0.7402  0.7698
23233SOL     OW74545   8.665   0.624   3.640  0.1983 -0.2232  0.2258
23233SOL    HW174546   8.624   0.539   3.660 -0.0420  0.0559  0.9344
23233SOL    HW274547   8.719   0.642   3.717  1.2588 -0.3422 -0.4800
23234SOL     OW74548   8.948   1.148   2.703  0.4798 -0.2284 -0.3243
23234SOL    HW174549   8.853   1.156   2.706  0.6206  1.0270  1.6190
23234SOL    HW274550   8.968   1.076   2.764  0.6104 -2.3868 -2.8323
23235SOL     OW74551   8.455   0.005   4.920  0.4408  0.0776  0.6989
23235SOL    HW174552   8.526   0.057   4.958 -0.3174  1.2696  0.5235
23235SOL    HW274553   8.378   0.027   4.973 -0.1397  0.0215 -0.1187
23236SOL     OW74554   8.726   1.646   4.726 -0.5676 -0.0977  0.3789
23236SOL    HW174555   8.783   1.708   4.772  1.5312  0.0241 -2.3161
23236SOL    HW274556   8.683   1.698   4.658  1.7291 -1.6327 -2.3560
23237SOL     OW74557   8.432   1.928   4.294  0.7706 -0.3555 -0.6993
23237SOL    HW174558   8.510   1.941   4.347  0.8596  1.2608 -1.2253
23237SOL    HW274559   8.409   2.015   4.261 -1.7606 -0.6323  0.1679
23238SOL     OW74560   8.287   2.430   4.065  0.1139  0.0979  0.1342
23238SOL    HW174561   8.205   2.441   4.018  0.7738  0.0747 -1.0571
23238SOL    HW274562   8.352   2.417   3.996  1.3792  1.7294  0.9793
23239SOL     OW74563   7.858   1.081   4.831  0.8523  0.2872  0.3822
23239SOL    HW174564   7.805   1.158   4.853  1.3577  0.7968 -0.1563
23239SOL    HW274565   7.932   1.084   4.892  1.8864  1.3125 -0.8868
23240SOL     OW74566   8.059   1.082   5.030  0.1687 -0.4408 -0.3567
23240SOL    HW174567   8.071   1.156   5.090  1.3582  0.1902 -1.3355
23240SOL    HW274568   8.144   1.073   4.986 -0.6007 -1.0439 -1.7544
23241SOL     OW74569   8.064   1.336   3.254 -0.0385  0.5869  0.0912
23241SOL    HW174570   8.113   1.314   3.333  1.2738  0.7299 -0.6730
23241SOL    HW274571   8.130   1.345   3.186 -1.1471  0.5444 -1.0182
23242SOL     OW74572   9.814   2.244   5.603  0.5605  0.3951  0.1116
23242SOL    HW174573   9.738   2.244   5.661  0.6915 -1.8275  0.3338
23242SOL    HW274574   9.888   2.222   5.660  1.0485  0.4993 -0.4769
23243SOL     OW74575   7.040   0.829   4.408 -0.1349  0.0696  0.6268
23243SOL    HW174576   7.086   0.894   4.354  1.2301 -1.0007  0.4638
23243SOL    HW274577   7.017   0.875   4.488 -1.3912  1.4402 -0.5009
23244SOL     OW74578   6.757   1.376   5.140 -0.1343 -0.0831  0.0596
23244SOL    HW174579   6.770   1.284   5.162 -2.1512 -0.5264 -0.4572
23244SOL    HW274580   6.779   1.423   5.220  1.1930 -0.9790  0.2431
23245SOL     OW74581   9.205   0.740   4.591 -0.6807  0.2512  0.6365
23245SOL    HW174582   9.175   0.710   4.506  0.5052  0.2914  0.1892
23245SOL    HW274583   9.210   0.661   4.644  2.2841 -0.3928 -0.4916
23246SOL     OW74584   7.625   0.586   2.445  0.0101  0.7567  0.3874
23246SOL    HW174585   7.548   0.623   2.402 -0.8644  1.4126  2.4538
23246SOL    HW274586   7.644   0.506   2.397 -2.4181  0.2057  0.3117
23247SOL     OW74587   9.286   1.108   4.012  0.4307 -0.2519 -0.1499
23247SOL    HW174588   9.200   1.066   4.008 -0.0602  0.6621  0.4942
23247SOL    HW274589   9.341   1.045   4.058 -0.5978  0.2335  1.8420
23248SOL     OW74590   8.140   8.842   4.982  0.3784 -1.0914  0.3547
23248SOL    HW174591   8.079   8.904   4.941  1.2473 -0.6020 -0.1980
23248SOL    HW274592   8.158   8.879   5.068 -1.1287 -1.9089  1.0388
23249SOL     OW74593   8.004   0.991   4.114 -0.3527 -0.4953 -0.2763
23249SOL    HW174594   7.990   0.931   4.187 -1.6622 -1.0214 -0.9445
23249SOL    HW274595   8.078   0.954   4.066  1.1100  0.3438  1.2651
23250SOL     OW74596   9.365   0.114   3.961  0.2955 -0.8317  0.6306
23250SOL    HW174597   9.373   0.147   4.050 -0.3726  0.2511  0.3087
23250SOL    HW274598   9.447   0.139   3.918 -0.2426  0.5133  0.3670
23251SOL     OW74599   8.595   9.780   3.574  0.0396 -1.0074 -0.2799
23251SOL    HW174600   8.623   9.837   3.502  0.9883  0.7595  1.4269
23251SOL    HW274601   8.500   9.780   3.569  0.0965 -0.9600 -1.5773
23252SOL     OW74602   8.682   2.117   4.007 -0.1392  0.1547  0.0465
23252SOL    HW174603   8.636   2.199   3.988 -0.7647  0.0165  0.9298
23252SOL    HW274604   8.774   2.135   3.986 -0.7862 -0.0481 -3.2644
23253SOL     OW74605   9.386   1.453   2.962 -0.3404 -0.5307  0.6234
23253SOL    HW174606   9.397   1.362   2.932  0.5095 -0.2242 -0.0044
23253SOL    HW274607   9.467   1.473   3.009 -1.1134 -0.5584  1.9961
23254SOL     OW74608   8.667   0.258   4.065  0.1008  0.3848 -0.0686
23254SOL    HW174609   8.709   0.221   4.143 -0.5358  0.0828  0.1333
23254SOL    HW274610   8.732   0.247   3.995  0.2514 -0.3470  0.1799
23255SOL     OW74611   8.491   1.909   6.427 -0.9126 -0.1342  0.0284
23255SOL    HW174612   8.530   1.825   6.452  1.3587  1.4955  2.2734
23255SOL    HW274613   8.544   1.939   6.353  0.2208  0.6338  1.1114
23256SOL     OW74614   8.460   9.837   4.440  0.3149 -0.8079  0.3552
23256SOL    HW174615   8.445   9.923   4.400 -0.8604 -1.0470  0.2465
23256SOL    HW274616   8.479   9.856   4.532 -0.0162 -0.4238  0.3479
23257SOL     OW74617   8.693   1.818   4.526  0.1499  0.0847 -0.1309
23257SOL    HW174618   8.785   1.796   4.512  0.2523  0.7940 -0.5863
23257SOL    HW274619   8.691   1.913   4.532 -0.3857  0.0079  1.1422
23258SOL     OW74620   7.525   2.326   4.846  0.8660 -0.0310  0.4543
23258SOL    HW174621   7.577   2.256   4.805  1.8553  0.8702  0.1462
23258SOL    HW274622   7.567   2.339   4.931  0.1565 -0.3852  0.8666
23259SOL     OW74623   8.566   0.354   5.753 -0.0796 -0.2468 -0.3744
23259SOL    HW174624   8.638   0.301   5.718 -0.9224 -1.8174  0.2144
23259SOL    HW274625   8.609   0.423   5.804  1.0050 -2.7074  2.1871
23260SOL     OW74626   7.978   1.391   7.266  0.1271 -0.0080  0.0664
23260SOL    HW174627   8.015   1.317   7.313  1.6014  0.6540 -0.0218
23260SOL    HW274628   7.925   1.437   7.330 -0.3215 -0.8155  0.2725
23261SOL     OW74629   8.259   1.117   4.640  0.1851  0.2764  0.0893
23261SOL    HW174630   8.180   1.170   4.646 -0.0709 -0.2071  1.0902
23261SOL    HW274631   8.264   1.071   4.724  1.9889  0.9248  0.3704
23262SOL     OW74632   6.772   1.779   5.868  0.1872 -0.0240  0.0491
23262SOL    HW174633   6.756   1.816   5.955  1.3965 -0.9773  0.6992
23262SOL    HW274634   6.834   1.839   5.828  0.4964 -0.1833  0.2830
23263SOL     OW74635   9.564   1.769   6.115  0.7024 -0.1044 -0.6016
23263SOL    HW174636   9.576   1.689   6.065  0.1209  0.0510 -0.9963
23263SOL    HW274637   9.652   1.800   6.133  0.9168 -0.1783 -1.5122
23264SOL     OW74638   7.874   0.997   6.725  0.3729  0.4747  0.3998
23264SOL    HW174639   7.968   1.011   6.717  0.2240  1.6393  0.5882
23264SOL    HW274640   7.862   0.962   6.814  0.9157 -2.5023 -0.6215
23265SOL     OW74641   9.126   0.786   5.555  0.0007 -0.3382 -0.4469
23265SOL    HW174642   9.156   0.797   5.646  2.4488  0.6433 -1.3254
23265SOL    HW274643   9.094   0.697   5.551 -0.5096 -0.2650  1.5095
23266SOL     OW74644   8.686   1.506   6.773  0.4044  0.1256 -0.2425
23266SOL    HW174645   8.754   1.447   6.807  0.2382 -1.6990 -2.9716
23266SOL    HW274646   8.682   1.577   6.838  1.1966 -2.3928  2.6875
23267SOL     OW74647   9.245   0.908   6.391 -0.2705  0.1274  0.0298
23267SOL    HW174648   9.179   0.966   6.429 -0.0875  1.0964 -1.1048
23267SOL    HW274649   9.203   0.822   6.389 -0.6310  0.2659  1.4968
23268SOL     OW74650   8.409   0.581   5.939 -0.2055  0.2895 -0.2926
23268SOL    HW174651   8.424   0.606   6.030 -0.9811  1.1048 -0.3802
23268SOL    HW274652   8.316   0.558   5.936  0.3531 -2.1554 -0.3330
23269SOL     OW74653   7.451   0.337   6.418  0.1664  0.4260 -0.1248
23269SOL    HW174654   7.368   0.353   6.463 -0.2971  1.7458 -1.3975
23269SOL    HW274655   7.511   0.402   6.455  0.8124 -0.8745  1.1816
23270SOL     OW74656   5.252   0.398   6.323  0.4215 -0.3529  0.0193
23270SOL    HW174657   5.210   0.442   6.249 -0.8460  0.1067  0.9808
23270SOL    HW274658   5.190   0.331   6.349  1.3519 -1.2312 -0.0095
23271SOL     OW74659   9.333   0.862   7.433  0.2165  0.7908 -0.1052
23271SOL    HW174660   9.259   0.879   7.374  1.4236  1.7154 -1.3796
23271SOL    HW274661   9.359   0.949   7.465  2.2225  0.7238 -1.4911
23272SOL     OW74662   5.517   0.989   6.716  0.2178  0.5818 -0.3460
23272SOL    HW174663   5.598   0.976   6.667  0.2704 -1.1020  0.1513
23272SOL    HW274664   5.545   1.024   6.800  0.4390 -0.0563 -0.1525
23273SOL     OW74665   8.786   0.881   8.115  0.3067  0.3297  0.1973
23273SOL    HW174666   8.716   0.880   8.049  2.3069 -2.5192 -2.0276
23273SOL    HW274667   8.853   0.938   8.077  0.4062  0.7322  0.9752
23274SOL     OW74668   8.889   9.807   6.596 -0.4090  0.2552  0.5638
23274SOL    HW174669   8.862   9.898   6.607  0.0594  0.4700 -0.0722
23274SOL    HW274670   8.816   9.756   6.632 -1.7800  0.8192 -1.3527
23275SOL     OW74671   8.350   1.739   6.734 -0.1039 -0.1875 -0.0209
23275SOL    HW174672   8.409   1.815   6.737 -1.6601  1.0918 -1.0716
23275SOL    HW274673   8.353   1.710   6.643 -1.1678 -0.0472 -0.1040
23276SOL     OW74674   8.063   1.785   5.279 -0.5319  0.2206  0.2424
23276SOL    HW174675   8.151   1.793   5.317 -0.2607  1.5869 -0.6155
23276SOL    HW274676   8.029   1.702   5.313  1.4692 -0.8039 -0.1829
23277SOL     OW74677   9.102   9.955   7.003 -0.2830  0.2349 -0.7850
23277SOL    HW174678   9.122   9.977   6.912  0.7988 -0.3397 -0.6947
23277SOL    HW274679   9.119   9.862   7.010  2.2651  0.7720  0.6756
23278SOL     OW74680   8.015   0.812   5.075  0.5787 -0.1477 -0.1154
23278SOL    HW174681   8.078   0.763   5.022  1.2566  0.2016  0.3474
23278SOL    HW274682   8.045   0.903   5.069  0.2103 -0.0014  0.2334
23279SOL     OW74683   0.862   1.940   6.910 -0.2143  0.4458  0.0064
23279SOL    HW174684   0.800   1.915   6.979 -1.3730  0.9953 -0.8252
23279SOL    HW274685   0.942   1.891   6.931 -1.0165 -0.4919  0.9290
23280SOL     OW74686   7.139   0.785   5.901  0.0350  0.0332 -0.7108
23280SOL    HW174687   7.052   0.752   5.876  0.0654 -0.2863 -0.3989
23280SOL    HW274688   7.161   0.848   5.833 -0.4608  0.1420 -0.7723
23281SOL     OW74689   8.819   2.497   5.777 -0.4560 -0.4562 -0.1389
23281SOL    HW174690   8.876   2.573   5.763 -0.7407 -0.5193 -1.8407
23281SOL    HW274691   8.869   2.423   5.741 -0.7236 -0.8532  0.3076
23282SOL     OW74692   0.294   2.235   6.607 -0.3639 -0.4285 -0.7085
23282SOL    HW174693   0.325   2.207   6.520  0.7719 -0.7135 -0.2225
23282SOL    HW274694   0.204   2.263   6.592 -0.2074 -0.5489 -1.9736
23283SOL     OW74695   9.191   0.763   5.826 -0.0996 -0.1567  0.0603
23283SOL    HW174696   9.285   0.774   5.845 -0.1966  0.2243  0.3183
23283SOL    HW274697   9.147   0.824   5.885 -0.4349  0.5639 -0.9142
23284SOL     OW74698   8.794   0.565   8.556  0.0367 -0.0501 -0.5043
23284SOL    HW174699   8.885   0.534   8.556 -0.1640 -0.6417 -0.3735
23284SOL    HW274700   8.788   0.623   8.632  0.5600  0.7462 -1.0586
23285SOL     OW74701   9.330   1.169   5.799 -0.1896  0.2170  0.3263
23285SOL    HW174702   9.380   1.221   5.737  1.0320 -1.1685  0.1433
23285SOL    HW274703   9.284   1.234   5.853  1.6480  1.4899  0.3814
23286SOL     OW74704   9.451   1.154   6.657  0.0063  0.9544 -0.0395
23286SOL    HW174705   9.458   1.191   6.745 -0.0272  1.3381 -0.1955
23286SOL    HW274706   9.484   1.223   6.600 -0.3920  0.8773 -0.3638
23287SOL     OW74707   6.017   8.750   9.988 -0.5292 -0.4917  0.2018
23287SOL    HW174708   6.100   8.795   9.980 -0.0575 -1.3072  0.4491
23287SOL    HW274709   6.038   8.668  10.032 -1.6987 -0.0136  1.7011
23288SOL     OW74710   9.040   1.520   7.140  0.3366  0.2451  0.0267
23288SOL    HW174711   8.983   1.520   7.217 -0.0228 -0.4674 -0.2357
23288SOL    HW274712   9.056   1.427   7.121 -1.1082  0.3394 -1.8765
23289SOL     OW74713   8.126   1.435   4.318  0.5232  0.7668  0.4671
23289SOL    HW174714   8.142   1.365   4.254  1.3741  1.6645 -0.3062
23289SOL    HW274715   8.194   1.423   4.383 -0.7348 -0.5562  1.5927
23290SOL     OW74716   8.268   0.991   4.871 -0.5837 -0.7335  0.1457
23290SOL    HW174717   8.363   0.988   4.882 -0.6002 -0.6735  0.3136
23290SOL    HW274718   8.240   0.900   4.879 -0.4665 -0.8450 -0.5942
23291SOL     OW74719   9.047   2.065   6.876 -0.0983  0.4394  0.0316
23291SOL    HW174720   9.118   2.010   6.843  0.1200  0.3013  0.7224
23291SOL    HW274721   9.040   2.042   6.969  0.7212  2.3654  0.5858
23292SOL     OW74722   8.895   2.854   4.765  0.2026  0.3450 -0.1682
23292SOL    HW174723   8.926   2.887   4.680  0.0534 -0.5319 -0.5736
23292SOL    HW274724   8.809   2.893   4.776 -0.7034 -1.2307 -1.4448
23293SOL     OW74725   8.442   2.561   6.899 -0.4593  0.4005 -1.1149
23293SOL    HW174726   8.512   2.591   6.842 -1.1614  2.5592 -0.8835
23293SOL    HW274727   8.475   2.575   6.988 -0.8113  0.5080 -1.0006
23294SOL     OW74728   9.403   9.631   9.362  0.4697 -0.1793 -0.0225
23294SOL    HW174729   9.312   9.622   9.391  0.7138 -1.9761  0.2563
23294SOL    HW274730   9.450   9.660   9.439  0.1091  0.9482 -0.2167
23295SOL     OW74731   8.378   1.393   7.497  0.4713 -0.0899 -0.1835
23295SOL    HW174732   8.424   1.475   7.513 -1.2975  1.0806 -0.9855
23295SOL    HW274733   8.319   1.383   7.572  1.7774 -1.4275  0.6882
23296SOL     OW74734   7.732   0.664   7.461  0.2317 -0.7645  0.3054
23296SOL    HW174735   7.705   0.755   7.453  0.3182 -0.5726  1.9117
23296SOL    HW274736   7.816   0.659   7.417  1.6854  0.6491  2.7738
23297SOL     OW74737   7.951   0.911   6.071 -0.1283  0.0228  0.8250
23297SOL    HW174738   7.992   0.965   6.140  0.5468  0.1759  0.3181
23297SOL    HW274739   7.869   0.955   6.052  0.6202  1.1501  0.1082
23298SOL     OW74740   8.217   0.653   7.193 -0.2004 -0.2213 -0.2618
23298SOL    HW174741   8.256   0.720   7.249 -0.4972 -1.0190  0.9135
23298SOL    HW274742   8.214   0.693   7.106  0.8582  0.7929  0.1573
23299SOL     OW74743   6.481   3.901   7.337  0.2319  0.0680  0.3421
23299SOL    HW174744   6.527   3.902   7.253  0.2163 -0.4633  0.3247
23299SOL    HW274745   6.540   3.856   7.397 -0.7749 -1.8027  0.0014
23300SOL     OW74746   7.249   9.689   4.043 -0.1542 -0.2914 -0.4448
23300SOL    HW174747   7.156   9.688   4.019 -0.3863  0.5747  0.4002
23300SOL    HW274748   7.281   9.772   4.009 -0.0284  0.0638  0.5522
23301SOL     OW74749   9.737   0.740   7.700 -0.5163  0.0613 -0.4969
23301SOL    HW174750   9.753   0.788   7.619  0.3887  0.6567  0.0281
23301SOL    HW274751   9.796   0.780   7.764 -1.3778 -0.2578  0.5133
23302SOL     OW74752   6.865   9.761   6.834 -0.2653 -0.2222  0.6934
23302SOL    HW174753   6.885   9.723   6.920  1.9474  1.6496  1.0629
23302SOL    HW274754   6.866   9.686   6.774 -3.1006 -1.7585  2.4212
23303SOL     OW74755   7.096   1.416   6.712  0.1235 -0.5841 -0.0305
23303SOL    HW174756   7.174   1.375   6.674  0.4341  0.7685 -0.8741
23303SOL    HW274757   7.130   1.476   6.778 -0.1518  0.5378 -0.8954
23304SOL     OW74758   9.160   9.744   5.667 -0.1369  0.3545 -0.2258
23304SOL    HW174759   9.071   9.779   5.675 -0.3940 -0.4320  0.4652
23304SOL    HW274760   9.148   9.652   5.645  0.3651 -1.0121  4.6013
23305SOL     OW74761   8.690   1.211   5.224  0.0263 -0.0643  0.6138
23305SOL    HW174762   8.727   1.165   5.149  0.5361  2.2455 -0.6095
23305SOL    HW274763   8.766   1.231   5.279  0.4290  2.8751 -0.8963
23306SOL     OW74764   0.168   1.674   6.178 -0.1978 -0.6592  0.3722
23306SOL    HW174765   0.110   1.644   6.249 -1.2408  1.9503  0.6871
23306SOL    HW274766   0.205   1.755   6.211 -0.4276  0.4086 -1.9550
23307SOL     OW74767   8.189   0.763   6.956  0.1571  0.3705  0.6051
23307SOL    HW174768   8.192   0.855   6.929  0.2753 -0.1175 -1.0782
23307SOL    HW274769   8.100   0.735   6.935  0.9097 -0.6259 -1.4262
23308SOL     OW74770   9.578   0.112   5.282  0.0765  0.1286  0.1085
23308SOL    HW174771   9.623   0.182   5.330 -0.0893  0.0312  0.4037
23308SOL    HW274772   9.527   0.158   5.215  1.0407  0.2082 -0.5839
23309SOL     OW74773   7.082   1.374   8.074  0.3641 -0.1937  0.4452
23309SOL    HW174774   7.028   1.297   8.057 -2.4981  1.8605 -0.0847
23309SOL    HW274775   7.120   1.396   7.989 -0.9325  0.4987  0.0272
23310SOL     OW74776   9.795   2.218   5.174  0.3098  0.2131 -0.2735
23310SOL    HW174777   9.743   2.298   5.179 -0.0687  0.0340 -1.2445
23310SOL    HW274778   9.761   2.163   5.244 -1.9015 -0.5338 -1.8832
23311SOL     OW74779   8.401   9.887   7.539  0.2683  0.3025 -0.0515
23311SOL    HW174780   8.368   9.918   7.454 -0.4447 -1.4708 -0.4440
23311SOL    HW274781   8.489   9.854   7.519  0.1701  0.0475 -0.0627
23312SOL     OW74782   7.817   0.938   7.370 -0.3016  0.3661 -0.1594
23312SOL    HW174783   7.735   0.966   7.409  0.4906 -0.9247  2.5523
23312SOL    HW274784   7.869   0.906   7.444  2.5157  0.8568 -1.8522
23313SOL     OW74785   7.904   1.142   8.715 -0.5606 -0.5013 -0.0270
23313SOL    HW174786   7.884   1.130   8.808 -0.0014  1.1430  0.3087
23313SOL    HW274787   7.945   1.060   8.689 -0.2870 -0.7974  1.2922
23314SOL     OW74788   8.979   1.692   7.500  0.5553 -0.0651  0.3304
23314SOL    HW174789   8.916   1.706   7.570  0.6454 -0.4955  0.4934
23314SOL    HW274790   8.943   1.619   7.449 -0.0305  0.8993 -0.6598
23315SOL     OW74791   8.782   2.135   3.712 -0.6898 -0.1915 -0.4444
23315SOL    HW174792   8.814   2.062   3.765 -0.6671  0.9964  1.2268
23315SOL    HW274793   8.797   2.108   3.622  0.7486 -1.5996  0.1900
23316SOL     OW74794   8.540   1.406   7.950 -0.1048  0.1334  0.0350
23316SOL    HW174795   8.571   1.489   7.911 -0.5239  0.4500  0.3744
23316SOL    HW274796   8.619   1.369   7.990  0.2143  0.0723 -0.6461
23317SOL     OW74797   7.826   1.792   7.090 -0.3092  0.0434 -0.3212
23317SOL    HW174798   7.855   1.701   7.078 -2.8440 -0.9443  0.6794
23317SOL    HW274799   7.907   1.841   7.107  1.3200 -1.6624 -2.7616
23318SOL     OW74800   0.082   0.249   8.473  0.6265 -0.1860  0.4490
23318SOL    HW174801   0.124   0.266   8.389 -0.6871 -0.3754 -0.2420
23318SOL    HW274802  -0.005   0.287   8.465  0.3097 -0.6760  1.5385
23319SOL     OW74803   7.278   0.555   5.933 -0.7663 -0.2408  0.3420
23319SOL    HW174804   7.316   0.569   6.020 -1.5134 -0.4867  0.7084
23319SOL    HW274805   7.225   0.633   5.917  0.1323  0.2515 -0.3077
23320SOL     OW74806   7.728   0.854   6.231  0.4005  0.1974  0.4795
23320SOL    HW174807   7.713   0.891   6.318 -2.2693 -0.5304  0.3654
23320SOL    HW274808   7.717   0.928   6.172 -0.7037  0.1007  0.5579
23321SOL     OW74809   8.421   8.858   5.299  0.5423 -0.0315 -0.5829
23321SOL    HW174810   8.478   8.840   5.374  0.2541 -0.1163 -0.3856
23321SOL    HW274811   8.448   8.945   5.269  1.6856 -0.6199 -1.3061
23322SOL     OW74812   9.970   1.352   5.680  0.1003  0.8230  0.1139
23322SOL    HW174813   9.984   1.285   5.613  0.5213  0.9093  0.1167
23322SOL    HW274814   9.966   1.434   5.632  3.0114  1.1939  0.4293
23323SOL     OW74815   9.276   0.481   5.366 -0.0965  0.0095  0.4597
23323SOL    HW174816   9.289   0.545   5.296 -1.2896 -0.6170 -0.3614
23323SOL    HW274817   9.337   0.508   5.435  0.3457  1.2542 -0.3933
23324SOL     OW74818   8.972   9.159   5.102 -0.0598 -0.1022 -0.7627
23324SOL    HW174819   8.970   9.064   5.090  2.6488 -0.8559  3.6170
23324SOL    HW274820   8.887   9.181   5.140 -0.3905 -0.8647 -1.0576
23325SOL     OW74821   9.506   1.249   7.397 -0.2096 -0.1371  0.3873
23325SOL    HW174822   9.441   1.279   7.460 -1.3415  0.6720 -1.1239
23325SOL    HW274823   9.559   1.326   7.378 -0.6487 -0.0511 -0.5489
23326SOL     OW74824   8.284   1.179   6.531  0.3356 -0.0242 -0.0235
23326SOL    HW174825   8.285   1.240   6.457 -1.5944  0.1445  0.0558
23326SOL    HW274826   8.326   1.100   6.497  1.7217  0.9004 -0.5161
23327SOL     OW74827   8.277   1.070   5.807 -0.2646 -0.2491 -0.4115
23327SOL    HW174828   8.282   0.982   5.846 -1.6226 -0.9796 -1.8332
23327SOL    HW274829   8.191   1.103   5.833  0.7957  1.2687  1.3017
23328SOL     OW74830   6.757   9.790   4.180 -0.1590  0.3832  0.1473
23328SOL    HW174831   6.670   9.789   4.219 -0.9533 -1.0332 -1.6210
23328SOL    HW274832   6.784   9.881   4.184 -1.8661  0.8913  0.3809
23329SOL     OW74833   6.514   0.833   7.447 -0.6677 -0.5831 -0.1825
23329SOL    HW174834   6.552   0.801   7.529 -0.0029  1.3300  0.3061
23329SOL    HW274835   6.421   0.845   7.467 -0.2128  1.5084  0.8756
23330SOL     OW74836   7.346   6.856   7.064  0.1078 -0.2051 -0.3573
23330SOL    HW174837   7.269   6.896   7.025 -0.3643  0.1540  0.9368
23330SOL    HW274838   7.351   6.769   7.023  0.9753  1.0136 -2.9521
23331SOL     OW74839   9.358   1.347   6.167  0.1766 -0.2154  0.0157
23331SOL    HW174840   9.453   1.344   6.156 -0.0254 -0.2746 -1.9063
23331SOL    HW274841   9.329   1.258   6.146 -0.3615  0.0037 -0.1784
23332SOL     OW74842   8.150   2.129   7.521  0.2152 -0.0916  0.4971
23332SOL    HW174843   8.169   2.036   7.529 -0.4242 -0.1851  0.9569
23332SOL    HW274844   8.172   2.150   7.430 -0.1681 -0.8161  0.2331
23333SOL     OW74845   9.261   1.642   6.949 -0.0381 -0.2766  0.0324
23333SOL    HW174846   9.251   1.570   7.011 -0.1966 -1.0598 -0.8734
23333SOL    HW274847   9.355   1.661   6.948 -0.2262  0.8612  1.7219
23334SOL     OW74848   9.591   1.103   4.965 -0.1456  0.3374 -0.2154
23334SOL    HW174849   9.557   1.185   5.000 -0.5581  0.3691 -0.6896
23334SOL    HW274850   9.665   1.129   4.911  0.4774  0.2902  0.6030
23335SOL     OW74851   8.730   2.064   6.851  0.0582  0.2945  0.4001
23335SOL    HW174852   8.730   2.159   6.842  1.4430  0.3978  1.3672
23335SOL    HW274853   8.809   2.035   6.805 -0.7648 -0.4749 -0.5697
23336SOL     OW74854   7.827   9.782   7.486  0.5255  0.4619 -0.0436
23336SOL    HW174855   7.852   9.699   7.445 -1.0179 -1.7287  3.2746
23336SOL    HW274856   7.734   9.790   7.466  0.5851  1.2155 -0.0119
23337SOL     OW74857   8.439   1.663   9.251  0.4813 -0.3329  0.7428
23337SOL    HW174858   8.495   1.713   9.193  0.1134 -0.8187 -0.0300
23337SOL    HW274859   8.365   1.636   9.197  0.3373 -1.1337  1.3197
23338SOL     OW74860   7.505   1.063   6.424 -0.1246  0.7411  0.2652
23338SOL    HW174861   7.435   1.023   6.373 -1.2315  1.0990  1.4978
23338SOL    HW274862   7.515   1.006   6.500  0.5867  0.9652  0.3478
23339SOL     OW74863   9.294   1.261   8.470  0.3452 -0.3317  0.0607
23339SOL    HW174864   9.310   1.320   8.543 -1.0238 -1.4817  1.3198
23339SOL    HW274865   9.199   1.253   8.466  0.3622  0.0897 -2.1736
23340SOL     OW74866   8.193   1.458   6.937 -0.2995  0.2932 -0.7606
23340SOL    HW174867   8.182   1.364   6.954 -0.3366  0.3630 -0.3820
23340SOL    HW274868   8.264   1.463   6.873 -1.1627 -0.0573 -1.7429
23341SOL     OW74869   0.092   0.700   7.017  0.2022 -0.4420  0.2096
23341SOL    HW174870   0.129   0.759   6.952 -1.7843  0.2297 -0.3431
23341SOL    HW274871   0.081   0.753   7.095 -0.3695 -0.4165  0.1141
23342SOL     OW74872   7.555   9.780   6.929  0.0054 -0.1728 -0.1170
23342SOL    HW174873   7.607   9.701   6.941  0.6059  0.1490 -0.5884
23342SOL    HW274874   7.618   9.847   6.902 -0.4880  0.4870  0.3552
23343SOL     OW74875   8.193   0.057   0.444  0.8813  0.3343  0.7665
23343SOL    HW174876   8.235   0.002   0.379  1.6403  1.8293 -0.0313
23343SOL    HW274877   8.234   0.033   0.527 -0.2641 -1.7559  0.7767
23344SOL     OW74878   9.558   0.893   6.067  0.3827  0.3337 -0.0979
23344SOL    HW174879   9.571   0.903   5.972  0.7903 -0.8187 -0.1752
23344SOL    HW274880   9.642   0.861   6.100 -0.0500 -0.2232  0.4935
23345SOL     OW74881   9.782   9.935   6.604  0.2086  0.4355  0.0060
23345SOL    HW174882   9.726   9.971   6.535 -1.5334 -1.4475  0.3694
23345SOL    HW274883   9.761   9.842   6.605  0.7475  0.3034  2.5605
23346SOL     OW74884   7.261   1.808   7.048 -0.5688  0.4715  0.3095
23346SOL    HW174885   7.228   1.802   6.959 -0.0361 -0.2637  0.1530
23346SOL    HW274886   7.344   1.761   7.046 -1.8320 -1.9416  1.7786
23347SOL     OW74887   5.755   9.126   5.663 -0.2209 -0.1864  0.6931
23347SOL    HW174888   5.670   9.164   5.686 -0.6157 -0.7895  0.2350
23347SOL    HW274889   5.801   9.197   5.617 -1.0901 -0.3527 -0.4603
23348SOL     OW74890   9.128   0.441   5.606 -0.3262  0.7321  0.2335
23348SOL    HW174891   9.112   0.350   5.581 -0.7967  0.6216  0.9096
23348SOL    HW274892   9.203   0.468   5.553 -1.5071  0.6275 -1.5327
23349SOL     OW74893   9.548   0.777   7.223  0.3288 -0.7521  0.6471
23349SOL    HW174894   9.605   0.737   7.158 -1.1003 -1.1011 -0.4212
23349SOL    HW274895   9.463   0.734   7.211 -1.1666  2.2822 -0.3013
23350SOL     OW74896   9.590   9.839   5.178  0.7989 -0.4770  0.7137
23350SOL    HW174897   9.594   9.878   5.091  0.4340 -0.6498  0.6189
23350SOL    HW274898   9.581   9.914   5.237  1.2395 -0.3485  0.6189
23351SOL     OW74899   7.736   1.938   6.517  0.0934 -0.3388  0.4856
23351SOL    HW174900   7.712   1.868   6.456  0.0028 -0.0240  0.1552
23351SOL    HW274901   7.824   1.915   6.547 -0.1268 -0.8389  0.7341
23352SOL     OW74902   7.827   1.177   6.101 -0.3570 -0.1514 -0.0617
23352SOL    HW174903   7.790   1.181   6.189  2.1388 -0.2979  1.0489
23352SOL    HW274904   7.753   1.156   6.045 -1.9148 -0.5293  2.0535
23353SOL     OW74905   7.515   1.004   7.743 -0.3789  0.0534  0.2498
23353SOL    HW174906   7.443   1.064   7.761  0.3142  0.8540  0.4026
23353SOL    HW274907   7.579   1.021   7.813 -0.1587 -0.8357  0.2772
23354SOL     OW74908   9.047   0.093   8.235 -0.0453 -0.0390 -0.3482
23354SOL    HW174909   9.004   0.175   8.259 -0.7885 -0.5111 -0.0434
23354SOL    HW274910   9.106   0.075   8.309 -0.0257  0.1168 -0.3270
23355SOL     OW74911   7.314   0.106   7.669  1.0164 -0.1976  0.3943
23355SOL    HW174912   7.219   0.117   7.662  0.9349  1.7973  3.5428
23355SOL    HW274913   7.347   0.125   7.582 -1.4725 -1.3185 -0.8610
23356SOL     OW74914   9.383   9.689   6.824  0.6132  0.2971 -0.5990
23356SOL    HW174915   9.422   9.761   6.775  0.8186 -0.5560 -1.7389
23356SOL    HW274916   9.397   9.612   6.767 -2.4507 -0.0856 -0.8823
23357SOL     OW74917   8.086   0.949   7.814  0.2398 -0.1318  0.1587
23357SOL    HW174918   8.027   0.915   7.881 -0.6790 -0.1504 -0.6627
23357SOL    HW274919   8.136   1.017   7.860 -0.7034  0.1794  0.7416
23358SOL     OW74920   9.647   0.527   6.877  0.0844 -0.3221 -0.1770
23358SOL    HW174921   9.694   0.572   6.947 -0.2719  0.7282 -0.6150
23358SOL    HW274922   9.589   0.466   6.923 -1.2977  1.4669  0.5263
23359SOL     OW74923   7.838   8.858   7.206 -0.1120 -0.4216 -0.2156
23359SOL    HW174924   7.762   8.807   7.180  1.1033 -1.7934 -1.1668
23359SOL    HW274925   7.876   8.808   7.279 -0.1523  0.2834  0.2930
23360SOL     OW74926   7.012   2.074   7.643  0.3163 -0.8558  0.1475
23360SOL    HW174927   7.042   1.999   7.695 -0.7565 -1.8826 -0.6633
23360SOL    HW274928   7.075   2.080   7.572  0.4789 -0.9028  0.2847
23361SOL     OW74929   7.411   0.915   6.041 -0.5543 -0.0450 -0.2336
23361SOL    HW174930   7.499   0.946   6.021 -0.4511  0.8497  1.4906
23361SOL    HW274931   7.376   0.884   5.957  0.1679  2.6715 -1.5974
23362SOL     OW74932   8.895   0.271   5.839  0.2952  0.1276  0.0770
23362SOL    HW174933   8.942   0.355   5.834  1.0105 -0.3163 -0.8117
23362SOL    HW274934   8.851   0.263   5.755 -0.5083  0.0316  0.5068
23363SOL     OW74935   7.235   0.791   6.895  0.2658  0.7951  0.2978
23363SOL    HW174936   7.266   0.716   6.844  0.2921 -0.3862  2.0045
23363SOL    HW274937   7.139   0.783   6.894  0.2966  0.2914  1.1291
23364SOL     OW74938   9.131   1.738   5.290 -0.0125  0.0660 -0.8241
23364SOL    HW174939   9.186   1.715   5.365 -1.5090  2.6102  1.1399
23364SOL    HW274940   9.054   1.682   5.299 -0.8962  1.4587  0.4679
23365SOL     OW74941   7.948   0.636   6.671  0.2414 -0.0518 -0.5949
23365SOL    HW174942   7.961   0.632   6.766 -1.1478 -2.0929 -0.4673
23365SOL    HW274943   7.853   0.639   6.660  0.4054  0.4007 -1.9213
23366SOL     OW74944   8.251   2.099   6.783  0.5490  0.1208 -0.2246
23366SOL    HW174945   8.234   2.041   6.857 -0.9281  0.2774 -0.4219
23366SOL    HW274946   8.336   2.071   6.749 -0.0027 -1.7097 -0.1098
23367SOL     OW74947   6.852   0.353   5.987  0.3868 -0.0423  0.2741
23367SOL    HW174948   6.845   0.270   5.940  1.6357 -0.0070  0.0074
23367SOL    HW274949   6.793   0.413   5.940  1.5745 -0.0200 -1.2098
23368SOL     OW74950   7.254   1.189   5.255  0.1592  0.1108 -0.3902
23368SOL    HW174951   7.261   1.225   5.166  1.0042 -2.9727 -1.6523
23368SOL    HW274952   7.338   1.208   5.295 -0.7011  2.7277  0.3000
23369SOL     OW74953   8.928   2.185   6.624  0.5377  0.5296 -0.3443
23369SOL    HW174954   8.992   2.135   6.675  0.1784  0.1754 -0.2367
23369SOL    HW274955   8.949   2.277   6.643 -1.1183  0.3998  2.3672
23370SOL     OW74956   7.873   2.340   5.866 -0.0976  0.3326 -0.2500
23370SOL    HW174957   7.858   2.374   5.778  0.0197  0.5385 -0.1919
23370SOL    HW274958   7.939   2.271   5.855  0.5535  0.9428 -0.2092
23371SOL     OW74959   8.123   2.803   7.725  0.2478  0.1997  0.3455
23371SOL    HW174960   8.201   2.839   7.766  0.4351 -1.4195  1.4602
23371SOL    HW274961   8.156   2.752   7.651  0.0559  1.5083 -0.6511
23372SOL     OW74962   8.642   0.063   5.976  0.2030 -0.2797  0.1738
23372SOL    HW174963   8.708   0.042   6.042  0.3676 -0.8074 -0.1527
23372SOL    HW274964   8.597   0.140   6.010  0.1437 -0.6731  1.0064
23373SOL     OW74965   9.187   0.082   8.466 -0.1721 -0.0175  0.4692
23373SOL    HW174966   9.223   0.000   8.503  0.0572  0.2606  0.8699
23373SOL    HW274967   9.149   0.127   8.541 -0.4745  0.1560  0.2131
23374SOL     OW74968   8.111   9.796   7.571  0.5276  0.0641  0.2794
23374SOL    HW174969   8.064   9.843   7.502 -1.3881 -2.2566 -0.0408
23374SOL    HW274970   8.202   9.826   7.562 -0.0459  1.2648 -1.9802
23375SOL     OW74971   8.812   1.758   6.094  0.0401  0.0141  0.6086
23375SOL    HW174972   8.771   1.842   6.114  1.2040  0.4334  1.2960
23375SOL    HW274973   8.770   1.729   6.013 -0.2869  1.3103  0.3041
23376SOL     OW74974   8.211   2.226   7.216 -0.3697  0.7341  0.2232
23376SOL    HW174975   8.286   2.284   7.226  0.2647 -0.0395 -0.0162
23376SOL    HW274976   8.245   2.151   7.168 -0.6425 -0.8576  2.4455
23377SOL     OW74977   8.436   1.617   9.537  0.2777 -0.6592 -0.1296
23377SOL    HW174978   8.424   1.649   9.448 -1.2152  1.6947  0.8592
23377SOL    HW274979   8.510   1.668   9.570 -1.2536  0.8830  1.0142
23378SOL     OW74980   6.413   9.770   8.774 -0.6198 -0.1064  0.1057
23378SOL    HW174981   6.378   9.819   8.849  1.3979  0.5116  0.6902
23378SOL    HW274982   6.408   9.678   8.801  1.0327  0.1641  1.4704
23379SOL     OW74983   9.479   1.515   7.709  0.1428 -0.2119 -0.0491
23379SOL    HW174984   9.437   1.592   7.746 -1.8637 -2.5320  2.7064
23379SOL    HW274985   9.568   1.517   7.744  0.1753  0.9021 -0.1654
23380SOL     OW74986   6.334   0.261   5.637  0.2735 -0.2172 -1.1370
23380SOL    HW174987   6.379   0.266   5.722  0.9955 -2.5870 -1.3274
23380SOL    HW274988   6.323   0.352   5.610  0.6043  0.5649  1.1989
23381SOL     OW74989   8.050   9.740   6.996  0.2551  0.0256 -0.0260
23381SOL    HW174990   8.094   9.655   6.997 -1.2847 -0.7812  0.4608
23381SOL    HW274991   8.119   9.802   6.972  1.1627 -1.4735 -1.4112
23382SOL     OW74992   6.547   0.688   7.048  0.2661  0.1260 -0.4030
23382SOL    HW174993   6.516   0.607   7.007 -0.1628  0.3689 -0.5510
23382SOL    HW274994   6.468   0.731   7.080  0.5584  0.1683  0.2659
23383SOL     OW74995   6.388   1.077   8.222 -0.5514  0.7418  0.2505
23383SOL    HW174996   6.339   1.159   8.216 -2.4668 -0.2791  1.3996
23383SOL    HW274997   6.402   1.064   8.316 -0.4009 -0.3124  0.0955
23384SOL     OW74998   7.574   0.239   6.839 -0.5373  0.0305 -0.0460
23384SOL    HW174999   7.569   0.332   6.860 -0.4882  0.4408 -1.7718
23384SOL    HW275000   7.651   0.208   6.888  0.6382  1.3409 -1.0193
23385SOL     OW75001   9.526   1.080   5.299 -0.5185 -0.2780 -0.4804
23385SOL    HW175002   9.517   1.013   5.367 -1.3816 -0.3141 -0.6245
23385SOL    HW275003   9.474   1.154   5.332 -1.9347 -0.7369 -1.6604
23386SOL     OW75004   9.465   2.723   7.156  0.0656 -0.3527  0.5912
23386SOL    HW175005   9.559   2.742   7.166  0.1572  0.2627 -1.1787
23386SOL    HW275006   9.462   2.653   7.091 -0.6067 -2.1230  2.4817
23387SOL     OW75007   8.372   1.915   7.290  0.0364  0.2068 -0.0508
23387SOL    HW175008   8.392   1.823   7.276  2.1518  0.9262 -1.9294
23387SOL    HW275009   8.344   1.919   7.382  2.7084 -1.8487  0.9189
23388SOL     OW75010   7.618   0.865   6.616 -0.1719 -0.1391  0.0461
23388SOL    HW175011   7.632   0.778   6.654  0.3892  1.3146  3.3212
23388SOL    HW275012   7.700   0.912   6.632 -1.5549  1.9899  1.1129
23389SOL     OW75013   8.144   2.126   6.522  0.1080 -0.0643 -0.4585
23389SOL    HW175014   8.165   2.130   6.615 -0.5055 -1.7163 -0.2408
23389SOL    HW275015   8.157   2.035   6.498 -0.7811  0.1322 -1.7594
23390SOL     OW75016   8.641   9.462   6.582 -0.3558  0.1819  0.1715
23390SOL    HW175017   8.624   9.385   6.637 -0.8692 -0.2611 -0.6072
23390SOL    HW275018   8.693   9.429   6.509 -2.6581  0.0664 -1.4881
23391SOL     OW75019   8.903   1.846   5.790  0.2026  0.2992  0.3600
23391SOL    HW175020   8.821   1.802   5.815 -0.0109  1.1195  1.1189
23391SOL    HW275021   8.963   1.829   5.862  0.8710 -0.7082 -0.4121
23392SOL     OW75022   8.347   0.893   8.209  0.8994  0.5782  0.0451
23392SOL    HW175023   8.261   0.850   8.208  0.6450  1.0833 -0.1816
23392SOL    HW275024   8.341   0.956   8.281  0.8499  1.0692 -0.3832
23393SOL     OW75025   9.630   1.283   6.198  0.1974 -0.8450  0.3551
23393SOL    HW175026   9.668   1.211   6.250 -0.1189 -0.8699  0.5561
23393SOL    HW275027   9.702   1.345   6.187 -0.2240  0.0966  2.5141
23394SOL     OW75028   7.704   0.882   8.825 -0.2104 -0.5043  0.5741
23394SOL    HW175029   7.706   0.786   8.831  0.7499 -0.5010  0.3499
23394SOL    HW275030   7.756   0.912   8.899 -1.5754 -0.1194  1.3843
23395SOL     OW75031   7.484   1.294   8.489  0.3419 -0.2451 -0.2011
23395SOL    HW175032   7.480   1.318   8.582  0.5225 -2.0142  0.2827
23395SOL    HW275033   7.569   1.252   8.479 -0.1933 -1.1898 -0.8752
23396SOL     OW75034   8.694   0.889   7.021  0.4068  0.1892  0.3366
23396SOL    HW175035   8.647   0.854   6.945  0.9720  0.7347 -0.2681
23396SOL    HW275036   8.662   0.837   7.094 -0.3160 -0.1929 -0.2373
23397SOL     OW75037   7.147   0.165   6.712 -0.5210 -0.4553 -0.4225
23397SOL    HW175038   7.233   0.140   6.746  0.4816 -0.0558 -2.6212
23397SOL    HW275039   7.138   0.257   6.738 -0.2470 -0.4641 -0.2874
23398SOL     OW75040   8.882   1.909   3.868 -0.0287  0.5847 -0.4072
23398SOL    HW175041   8.976   1.926   3.879 -0.3877  1.1057  2.0662
23398SOL    HW275042   8.851   1.886   3.956 -2.7627  3.0622 -0.6580
23399SOL     OW75043   7.182   1.854   6.075 -0.3118 -0.5856 -0.2901
23399SOL    HW175044   7.230   1.772   6.062  0.9556 -0.1768  1.6983
23399SOL    HW275045   7.144   1.846   6.163  0.4973  1.2885  0.2376
23400SOL     OW75046   8.129   1.445   6.072  0.0842  0.5296  0.0041
23400SOL    HW175047   8.186   1.485   6.006 -0.4941  1.3829  0.0077
23400SOL    HW275048   8.188   1.395   6.128  0.3861 -1.6036 -2.1613
23401SOL     OW75049   8.934   2.051   4.469  0.2300  0.3047 -0.2455
23401SOL    HW175050   8.865   2.032   4.533  0.7330  1.6073  0.7218
23401SOL    HW275051   9.003   2.093   4.521  0.6927  1.2912 -1.6229
23402SOL     OW75052   8.687   2.773   7.358 -0.1857 -0.1335  0.2641
23402SOL    HW175053   8.662   2.692   7.402  0.6484  0.2459  1.4642
23402SOL    HW275054   8.758   2.809   7.412 -1.5582  2.1818  0.5961
23403SOL     OW75055   9.782   2.002   7.003 -1.1995 -0.3603  0.4982
23403SOL    HW175056   9.793   2.078   7.060  0.0403 -0.6395  0.6432
23403SOL    HW275057   9.731   2.035   6.929  0.3481  0.9158 -0.0213
23404SOL     OW75058   9.076   9.498   5.578  0.0993  0.6719 -0.5550
23404SOL    HW175059   9.028   9.426   5.539  1.9566 -1.2259  0.5793
23404SOL    HW275060   9.166   9.486   5.549  0.5722  2.1109  0.2347
23405SOL     OW75061   8.595   1.568   6.255  0.1148 -0.4273  0.2718
23405SOL    HW175062   8.678   1.545   6.296  0.9174 -0.2854 -1.2455
23405SOL    HW275063   8.534   1.501   6.284  1.0007 -1.0802  0.6297
23406SOL     OW75064   0.128   0.555   7.419  0.2727 -0.1645 -0.3703
23406SOL    HW175065   0.151   0.517   7.334 -0.7768 -1.8106  0.0590
23406SOL    HW275066   0.038   0.586   7.408  1.1355  2.3758 -0.7425
23407SOL     OW75067   8.281   0.713   7.689  0.2047  0.1351 -0.0541
23407SOL    HW175068   8.214   0.661   7.644  0.8181  1.3280 -2.4421
23407SOL    HW275069   8.243   0.801   7.695  1.8702  1.0504 -2.2764
23408SOL     OW75070   6.182   1.782   8.120  0.1339 -0.0387 -0.3680
23408SOL    HW175071   6.152   1.693   8.100  0.1582  0.2330 -1.6293
23408SOL    HW275072   6.274   1.771   8.145  0.5254 -0.2185 -1.8417
23409SOL     OW75073   8.161   0.240   6.060 -0.1192 -0.4792 -0.2351
23409SOL    HW175074   8.167   0.328   6.023 -0.0170 -0.5859 -0.4656
23409SOL    HW275075   8.212   0.245   6.141  1.4558 -0.8538 -1.1984
23410SOL     OW75076   9.425   1.612   5.314  0.2393  0.5712  0.6032
23410SOL    HW175077   9.514   1.587   5.339  0.1698 -0.4680 -0.1955
23410SOL    HW275078   9.424   1.708   5.321  1.6147  0.6281 -0.0695
23411SOL     OW75079   9.580   8.122   5.586 -0.0306 -0.3348  0.7180
23411SOL    HW175080   9.630   8.202   5.571 -0.2240 -0.8215 -2.7930
23411SOL    HW275081   9.496   8.138   5.543 -0.5694 -1.9363  1.1406
23412SOL     OW75082   8.950   2.361   5.326  0.2836  0.6912 -0.1934
23412SOL    HW175083   9.032   2.409   5.336  0.1488  1.1187 -1.1008
23412SOL    HW275084   8.955   2.324   5.238 -0.9175  1.5266 -0.6261
23413SOL     OW75085   8.226   0.734   6.600 -0.4359 -0.1251  0.4623
23413SOL    HW175086   8.137   0.707   6.619 -0.4424 -0.5532 -0.1816
23413SOL    HW275087   8.224   0.762   6.509  0.1039 -0.1960  0.4262
23414SOL     OW75088   8.045   2.000   5.947  0.0122 -0.3305  0.2743
23414SOL    HW175089   7.978   1.954   5.897 -1.3594  1.8234  0.0463
23414SOL    HW275090   8.107   2.031   5.881 -0.0750 -0.2383  0.2358
23415SOL     OW75091   7.700   0.192   8.301 -0.4293  0.3610 -0.1922
23415SOL    HW175092   7.729   0.110   8.262 -0.0872 -1.3442  3.4359
23415SOL    HW275093   7.696   0.253   8.228  1.2717 -2.3319 -2.6538
23416SOL     OW75094   7.167   0.037   7.301  0.0413 -0.1636  0.4546
23416SOL    HW175095   7.107   0.109   7.281 -0.3461  0.0204  2.2285
23416SOL    HW275096   7.146  -0.030   7.236 -1.8231  0.0555  0.8126
23417SOL     OW75097   8.726   2.635   8.247 -0.3611 -0.0326  0.5478
23417SOL    HW175098   8.746   2.699   8.316 -0.8399  0.5811  0.1295
23417SOL    HW275099   8.808   2.625   8.199 -0.4719  0.8461  0.1546
23418SOL     OW75100   9.368   1.356   5.310 -0.1124 -0.2442 -0.1367
23418SOL    HW175101   9.415   1.342   5.228 -1.3275 -1.5964 -0.6151
23418SOL    HW275102   9.355   1.451   5.313 -0.3820 -0.2145 -1.6883
23419SOL     OW75103   8.024   0.967   7.175  0.1389 -0.2842 -0.1166
23419SOL    HW175104   7.959   0.947   7.243  0.7717 -0.2508  0.5003
23419SOL    HW275105   7.993   0.921   7.097 -1.3809  0.8431 -0.2137
23420SOL     OW75106   9.014   1.765   5.541  0.2133 -0.1261  0.1555
23420SOL    HW175107   8.971   1.794   5.622  0.0386  0.0123  0.0121
23420SOL    HW275108   9.027   1.671   5.554 -0.5256 -0.2496  0.0190
23421SOL     OW75109   8.779   1.444   6.071  0.0671 -0.0857  0.0609
23421SOL    HW175110   8.845   1.496   6.027  2.8609 -1.1822  2.7763
23421SOL    HW275111   8.734   1.505   6.129 -0.5295  0.4065 -0.8983
23422SOL     OW75112   8.338   1.572   5.932 -0.1128 -0.1715  0.5998
23422SOL    HW175113   8.390   1.527   5.865 -1.4770  0.7554 -1.1340
23422SOL    HW275114   8.398   1.637   5.969  0.3794 -0.0282 -0.4266
23423SOL     OW75115   8.485   1.741   6.083 -0.0985 -0.5518 -0.0053
23423SOL    HW175116   8.515   1.827   6.114 -0.3458 -0.2213 -0.6681
23423SOL    HW275117   8.527   1.678   6.141  1.4469 -0.0717 -0.5873
23424SOL     OW75118   7.680   0.399   4.949  0.2301  0.2076  0.4987
23424SOL    HW175119   7.615   0.465   4.974  2.3606  2.3876  0.4313
23424SOL    HW275120   7.711   0.363   5.032  0.0514  0.2427  0.5827
23425SOL     OW75121   8.271   1.200   7.715 -0.2131  0.2046 -0.3534
23425SOL    HW175122   8.272   1.148   7.795 -0.8069 -2.6837 -2.1134
23425SOL    HW275123   8.201   1.264   7.728  0.7997  0.8687  2.0424
23426SOL     OW75124   6.196   1.840   7.567 -0.0924 -0.2690 -0.5779
23426SOL    HW175125   6.206   1.776   7.637 -1.3139 -1.1975 -1.2324
23426SOL    HW275126   6.115   1.815   7.522 -1.8863  3.0661  0.5643
23427SOL     OW75127   7.733   0.513   5.498  0.0850  0.3283 -0.0900
23427SOL    HW175128   7.795   0.452   5.457 -0.4832 -0.0679 -0.3682
23427SOL    HW275129   7.776   0.539   5.579  0.1036 -0.8728  0.3026
23428SOL     OW75130   7.971   1.574   7.505 -0.0917 -0.1926  0.0846
23428SOL    HW175131   8.024   1.609   7.434 -2.6270  0.4477 -1.5610
23428SOL    HW275132   7.970   1.643   7.571 -0.7181  0.7274 -0.8686
23429SOL     OW75133   8.559   2.295   6.826  0.5730  0.1679 -0.3596
23429SOL    HW175134   8.530   2.377   6.865  2.8935  0.8278  0.0496
23429SOL    HW275135   8.584   2.319   6.736  0.7179 -0.2007 -0.4174
23430SOL     OW75136   7.691   1.313   4.901 -0.1219 -0.0421 -0.5362
23430SOL    HW175137   7.655   1.397   4.929 -1.0726 -0.9636  1.0988
23430SOL    HW275138   7.649   1.296   4.817  0.5130  1.3712 -1.1662
23431SOL     OW75139   8.492   1.990   6.744 -0.3846  0.7295 -0.2635
23431SOL    HW175140   8.561   2.018   6.805  0.5888 -1.3725 -0.3638
23431SOL    HW275141   8.532   2.000   6.658 -0.2930 -0.2780 -0.3349
23432SOL     OW75142   8.820   1.443   6.364  0.6021  0.5416  0.0610
23432SOL    HW175143   8.881   1.378   6.330 -0.8922 -0.4839 -0.6876
23432SOL    HW275144   8.810   1.421   6.456  1.3794  0.7375  0.1968
23433SOL     OW75145   9.287   9.955   5.765 -0.1607  0.0568 -0.5569
23433SOL    HW175146   9.234   9.896   5.712 -0.0896  1.2904 -2.0529
23433SOL    HW275147   9.324  10.017   5.702 -1.6840  2.8014  1.1198
23434SOL     OW75148   8.612   0.984   8.596 -0.2217  0.0729 -0.3202
23434SOL    HW175149   8.626   0.971   8.502 -0.2395 -0.1426 -0.2922
23434SOL    HW275150   8.699   1.004   8.631 -0.3439  0.9802 -0.5121
23435SOL     OW75151   8.446   0.776   5.550 -0.2010  0.4535 -0.1820
23435SOL    HW175152   8.483   0.796   5.636  0.4228  0.0765 -0.3554
23435SOL    HW275153   8.510   0.811   5.488  0.6093 -1.4823 -0.4825
23436SOL     OW75154   6.641   1.191   6.782 -0.5452 -0.2732  0.3199
23436SOL    HW175155   6.577   1.136   6.827  1.0895 -1.7153  0.9557
23436SOL    HW275156   6.699   1.222   6.851  0.7049 -0.7562 -0.4845
23437SOL     OW75157   9.842   9.720   5.022 -0.1447  0.0988  0.0197
23437SOL    HW175158   9.919   9.663   5.014 -0.9993 -1.1844  0.7071
23437SOL    HW275159   9.857   9.790   4.958  0.4966 -1.4030 -1.5213
23438SOL     OW75160   8.960   0.827   6.894 -0.1623 -0.2573  0.1457
23438SOL    HW175161   8.873   0.852   6.925  0.8126 -1.8085  4.6281
23438SOL    HW275162   8.949   0.740   6.856 -0.7993  0.0598 -0.3825
23439SOL     OW75163   8.180   0.294   7.898 -0.2718  0.6782 -0.1715
23439SOL    HW175164   8.130   0.267   7.975  0.5453 -2.7124 -0.7689
23439SOL    HW275165   8.250   0.349   7.933  0.2977 -1.1081  1.5575
23440SOL     OW75166   6.164   0.734   8.218  0.5562  0.5000 -0.4868
23440SOL    HW175167   6.168   0.689   8.134  0.4610  1.1037 -0.8208
23440SOL    HW275168   6.252   0.771   8.229  0.7419 -0.0710 -0.0422
23441SOL     OW75169   8.184   1.858   6.463  0.1104  0.1996 -0.0889
23441SOL    HW175170   8.140   1.816   6.389 -0.0345 -2.5328  1.4667
23441SOL    HW275171   8.274   1.825   6.460  0.4413  1.0611  0.2159
23442SOL     OW75172   6.841   1.937   6.324  0.2275  0.5523  0.0986
23442SOL    HW175173   6.928   1.896   6.324 -0.3155 -0.7708  3.1351
23442SOL    HW275174   6.857   2.028   6.345  0.9596  0.5566 -0.4499
23443SOL     OW75175   8.237   0.111   8.427 -0.6379 -0.2939 -0.4777
23443SOL    HW175176   8.271   0.149   8.347  0.6493  1.2651  0.7910
23443SOL    HW275177   8.151   0.075   8.402 -0.7032  1.0901 -2.2883
23444SOL     OW75178   8.757   0.954   8.380 -0.4092  0.0245  0.4130
23444SOL    HW175179   8.750   0.908   8.297  0.7872 -0.7595  0.7400
23444SOL    HW275180   8.793   1.040   8.357  0.1586 -0.2810  0.1440
23445SOL     OW75181   7.632   3.588   7.223 -0.0953  0.2754  0.5889
23445SOL    HW175182   7.550   3.552   7.256 -1.0135  0.7147 -1.1837
23445SOL    HW275183   7.623   3.683   7.234  0.6737  0.2558  1.4955
23446SOL     OW75184   9.331   0.322   8.545 -0.5247 -0.0546 -0.0660
23446SOL    HW175185   9.273   0.261   8.499 -0.7206 -1.0891  1.5134
23446SOL    HW275186   9.400   0.342   8.481 -0.8797 -1.3270 -0.8707
23447SOL     OW75187   9.352   1.046   6.162 -0.1971 -0.1664 -0.2530
23447SOL    HW175188   9.418   0.980   6.142  0.5322  0.0356  1.4621
23447SOL    HW275189   9.327   1.028   6.253 -2.3542 -0.1128 -0.8091
23448SOL     OW75190   7.579   0.402   7.494  0.2498  0.0196  0.1832
23448SOL    HW175191   7.653   0.461   7.481  0.5068 -0.5620 -1.0586
23448SOL    HW275192   7.587   0.372   7.585  0.3813  1.5205  0.6774
23449SOL     OW75193   8.254   0.678   8.893  0.1064 -0.2385  0.3209
23449SOL    HW175194   8.243   0.595   8.940  2.4822 -0.9100 -0.2597
23449SOL    HW275195   8.212   0.663   8.809  1.0735 -1.0991 -0.0293
23450SOL     OW75196   9.082   1.341   9.055  0.0768 -0.0377  0.7946
23450SOL    HW175197   9.054   1.249   9.050  0.8655 -0.2519  0.0893
23450SOL    HW275198   9.082   1.360   9.149 -0.2107 -0.7237  0.9422
23451SOL     OW75199   8.180   1.103   0.161 -1.2976  0.3597 -0.0131
23451SOL    HW175200   8.239   1.175   0.138  0.4014 -0.4228  1.7261
23451SOL    HW275201   8.094   1.144   0.168 -0.7239  1.8112 -1.1506
23452SOL     OW75202   7.725   0.769   0.334  0.0937 -0.4941  0.0999
23452SOL    HW175203   7.659   0.746   0.269 -0.2626 -0.6833  0.5229
23452SOL    HW275204   7.781   0.833   0.290  0.9155 -1.9456 -0.9933
23453SOL     OW75205   8.816   1.400   9.703  0.1345 -0.1877  0.1767
23453SOL    HW175206   8.846   1.373   9.790 -0.1325 -0.3534  0.2160
23453SOL    HW275207   8.820   1.496   9.705  0.5720 -0.2037  0.2142
23454SOL     OW75208   6.802   0.154   1.181 -0.0253  0.7212  0.1039
23454SOL    HW175209   6.879   0.210   1.192 -0.2069  0.9366  0.3061
23454SOL    HW275210   6.773   0.135   1.271  0.5151 -0.3752  0.0507
23455SOL     OW75211   8.691   9.915   7.533  0.3002 -0.4848 -0.0812
23455SOL    HW175212   8.654   9.982   7.590  3.0635  0.3738  0.8221
23455SOL    HW275213   8.724   9.963   7.458 -0.8505 -1.2805 -1.1033
23456SOL     OW75214   7.829   1.482   6.431 -0.2991 -0.3996 -1.0818
23456SOL    HW175215   7.916   1.506   6.461 -1.3494  2.0019  0.1908
23456SOL    HW275216   7.841   1.452   6.341  1.6383  1.2439 -1.3929
23457SOL     OW75217   8.510   1.235   0.325 -0.2697  0.9968  0.0055
23457SOL    HW175218   8.416   1.238   0.344 -0.4055 -0.2177 -0.4582
23457SOL    HW275219   8.546   1.175   0.391  0.1347  1.2210 -0.0105
23458SOL     OW75220   7.451   1.633   7.961  0.3373 -0.4596  0.4083
23458SOL    HW175221   7.377   1.658   7.906  1.1346  0.8032 -0.1227
23458SOL    HW275222   7.422   1.553   8.006 -1.9162  0.8407  1.3851
23459SOL     OW75223   8.359   1.867   8.710  0.1757 -0.1909 -0.2540
23459SOL    HW175224   8.371   1.943   8.767 -1.7409 -0.1718  0.1539
23459SOL    HW275225   8.444   1.855   8.668  0.9366  1.2354  0.8373
23460SOL     OW75226   8.533   2.041   7.615  0.0149  0.6450  0.1683
23460SOL    HW175227   8.518   2.095   7.538  1.4850  0.4065 -0.2949
23460SOL    HW275228   8.547   1.953   7.581  1.7704  0.7274  0.5856
23461SOL     OW75229   8.061   9.933   8.834  0.3012  0.0957  0.3462
23461SOL    HW175230   8.000   9.888   8.894 -2.6891  1.0942 -1.8220
23461SOL    HW275231   8.083   9.866   8.769 -1.7637  0.8609 -1.1772
23462SOL     OW75232   8.712   9.953   8.916 -0.2567 -0.0711  0.0865
23462SOL    HW175233   8.618   9.960   8.928  0.0525  0.2972  2.5980
23462SOL    HW275234   8.741  10.041   8.894 -0.3999 -0.0133  0.1317
23463SOL     OW75235   7.498   9.707   7.594  0.2181  0.1571 -0.6057
23463SOL    HW175236   7.551   9.699   7.674  0.1093  0.2239 -0.5265
23463SOL    HW275237   7.524   9.632   7.541  0.4035  0.1989 -0.5738
23464SOL     OW75238   8.829   2.668   7.062 -0.0699  0.0749 -0.1205
23464SOL    HW175239   8.887   2.662   7.138  1.7006 -0.9547 -1.5012
23464SOL    HW275240   8.857   2.748   7.017 -0.1540 -0.0723 -0.4385
23465SOL     OW75241   7.999   2.676   6.563  0.1709 -0.8420 -0.0715
23465SOL    HW175242   8.050   2.627   6.628 -0.3245 -0.8602  0.3099
23465SOL    HW275243   7.977   2.611   6.496 -0.9961 -1.3073  0.7335
23466SOL     OW75244   9.510   0.920   8.861 -0.1452 -0.3609 -0.2647
23466SOL    HW175245   9.591   0.970   8.869 -1.0996  1.0055  1.0533
23466SOL    HW275246   9.492   0.918   8.767  1.3852 -0.6637 -0.5673
23467SOL     OW75247   8.446   1.638   8.558  0.5352 -0.0427  0.4502
23467SOL    HW175248   8.537   1.608   8.551 -0.2331 -2.3272 -0.1650
23467SOL    HW275249   8.447   1.727   8.524  2.3671 -0.4029 -0.4738
23468SOL     OW75250   8.135   9.783   8.044 -0.2260  0.0405 -0.2703
23468SOL    HW175251   8.206   9.840   8.014 -0.2027 -0.3145 -0.9063
23468SOL    HW275252   8.087   9.836   8.108  0.1151  0.5796 -0.4584
23469SOL     OW75253   6.681   1.272   7.840  0.1973 -0.1277  0.5002
23469SOL    HW175254   6.624   1.284   7.764  1.1188  0.1418 -0.1616
23469SOL    HW275255   6.731   1.193   7.821  0.1446 -0.2877  1.0171
23470SOL     OW75256   7.918   1.615   9.178  0.0744 -0.2591 -0.4964
23470SOL    HW175257   7.912   1.708   9.200 -0.1095 -0.7496  1.6865
23470SOL    HW275258   7.828   1.588   9.160  0.2470  0.1904 -2.0343
23471SOL     OW75259   8.228   0.298   9.482  0.2229 -0.2347 -0.5062
23471SOL    HW175260   8.213   0.286   9.576  0.6743  0.2894 -0.3677
23471SOL    HW275261   8.244   0.210   9.449  1.8744 -0.2210  0.2187
23472SOL     OW75262   7.460   0.178   8.401  0.0510 -0.3510 -0.4647
23472SOL    HW175263   7.545   0.180   8.358  0.5058  1.3215  0.4438
23472SOL    HW275264   7.450   0.266   8.437 -1.1505 -1.1469  1.2026
23473SOL     OW75265   8.273   1.370   7.248  0.2759  0.9616  0.1310
23473SOL    HW175266   8.214   1.295   7.253 -0.7925  1.7367 -0.6316
23473SOL    HW275267   8.304   1.382   7.337  1.2244 -0.9805  0.0962
23474SOL     OW75268   9.271   2.373   9.547  0.0555 -0.5349 -0.3071
23474SOL    HW175269   9.316   2.425   9.614 -1.8610  0.5229  0.2124
23474SOL    HW275270   9.195   2.426   9.524 -0.5482 -1.9594 -1.6604
23475SOL     OW75271   8.293   0.045   9.397  0.0664  0.3290  0.4302
23475SOL    HW175272   8.303  -0.014   9.471  0.1325 -0.1816  0.0112
23475SOL    HW275273   8.217   0.013   9.350  0.3429  0.3384 -0.0243
23476SOL     OW75274   0.209   1.360   8.522 -0.2210 -0.1704 -0.6674
23476SOL    HW175275   0.132   1.311   8.548  1.4601 -2.3124  0.4265
23476SOL    HW275276   0.212   1.351   8.427  0.4355 -2.8239 -0.4271
23477SOL     OW75277   9.243   2.180   7.560  0.2223 -0.3148  0.2715
23477SOL    HW175278   9.173   2.210   7.502  0.9555 -0.1939 -0.5606
23477SOL    HW275279   9.264   2.092   7.528  0.7976 -0.1515  0.1933
23478SOL     OW75280   7.055   9.966   7.048 -0.7111 -0.3713 -0.6374
23478SOL    HW175281   7.032   9.874   7.065 -0.1940 -0.9844 -3.0465
23478SOL    HW275282   7.143   9.961   7.011 -0.9427  1.0576 -1.3894
23479SOL     OW75283   9.156   8.876   8.818  0.3392 -0.0113  0.2425
23479SOL    HW175284   9.182   8.792   8.855  0.2173 -0.0058  0.3389
23479SOL    HW275285   9.238   8.918   8.794  0.5279  0.6392  1.9263
23480SOL     OW75286   9.853   1.639   8.594  0.3450 -0.9267  1.1052
23480SOL    HW175287   9.912   1.696   8.543  0.4836  0.1107  2.4081
23480SOL    HW275288   9.766   1.658   8.560  0.2452  1.0236  2.3978
23481SOL     OW75289   8.438   9.728   9.095 -0.5091  0.4878  0.4692
23481SOL    HW175290   8.354   9.691   9.067 -0.8872  0.6951  1.3079
23481SOL    HW275291   8.448   9.807   9.042 -0.0289 -0.4319 -0.8353
23482SOL     OW75292   9.362   8.819   9.487 -0.3130  0.4486 -0.0013
23482SOL    HW175293   9.308   8.878   9.435 -0.1516  0.6605  0.0687
23482SOL    HW275294   9.322   8.819   9.573 -1.2905 -0.8358 -0.4371
23483SOL     OW75295   7.738   9.728   8.903  0.2988  0.6720  0.7424
23483SOL    HW175296   7.707   9.814   8.875 -0.0680  0.3857  0.2660
23483SOL    HW275297   7.815   9.746   8.957 -0.0247  1.3219  0.9895
23484SOL     OW75298   7.751   9.489   6.418  0.2450  0.0435  0.4721
23484SOL    HW175299   7.777   9.416   6.362 -0.8810  0.5140 -0.7042
23484SOL    HW275300   7.711   9.448   6.495 -2.5840 -0.5920 -1.2731
23485SOL     OW75301   6.789   0.046   7.167 -0.8487  0.2982 -0.0261
23485SOL    HW175302   6.874   0.003   7.161 -1.3057 -0.6359 -0.0817
23485SOL    HW275303   6.774   0.057   7.261 -0.5407  0.7093 -0.0292
23486SOL     OW75304   7.636   2.337   8.213  0.2359  0.3204  0.0866
23486SOL    HW175305   7.724   2.308   8.187 -0.1969 -0.3321 -0.6680
23486SOL    HW275306   7.641   2.344   8.309  1.0567  0.1090  0.0638
23487SOL     OW75307   9.469   0.252   8.297 -0.3360 -0.3574  0.1342
23487SOL    HW175308   9.446   0.230   8.206  2.3369  0.8160 -0.8915
23487SOL    HW275309   9.538   0.190   8.320 -0.8475 -0.4989  1.3123
23488SOL     OW75310   9.687   8.902   0.008  0.3714 -0.1594  0.0518
23488SOL    HW175311   9.717   8.953   0.083 -0.4048 -0.8341  0.8342
23488SOL    HW275312   9.660   8.818   0.045 -1.7885  0.1660 -0.7040
23489SOL     OW75313   7.993   2.039   7.170 -0.0056 -0.5270 -0.1629
23489SOL    HW175314   7.960   2.089   7.245 -0.7849 -1.1458 -0.0857
23489SOL    HW275315   8.069   2.089   7.139 -1.0042  0.9217 -0.3348
23490SOL     OW75316   7.819   0.483   9.613 -0.2376  0.1720  0.9441
23490SOL    HW175317   7.863   0.426   9.676 -1.3058  1.1645  2.6456
23490SOL    HW275318   7.762   0.424   9.563  0.9024 -0.6799  0.6135
23491SOL     OW75319   8.312   1.067   7.960  0.0246  0.1095 -0.5922
23491SOL    HW175320   8.340   0.976   7.966 -0.3961  0.0761  1.0971
23491SOL    HW275321   8.313   1.099   8.051  2.7006  2.5689 -1.4065
23492SOL     OW75322   8.043   1.611   7.975 -0.0479 -0.0074 -0.2122
23492SOL    HW175323   8.125   1.625   8.023  0.5713  1.2285 -1.6151
23492SOL    HW275324   8.008   1.528   8.010  0.5407  0.7087  2.1458
23493SOL     OW75325   8.632   0.876   7.911  0.7494 -0.3158  0.0379
23493SOL    HW175326   8.614   0.970   7.901 -0.4210 -0.3866  1.2980
23493SOL    HW275327   8.608   0.838   7.827 -0.0835  0.3422 -0.0348
23494SOL     OW75328   8.290   0.809   8.489  0.2294 -0.2631 -0.0143
23494SOL    HW175329   8.224   0.740   8.486  0.0112 -0.0207 -1.1920
23494SOL    HW275330   8.374   0.762   8.489  0.0758 -0.5385 -0.3594
23495SOL     OW75331   8.400   1.456   6.769 -0.7501 -0.5438 -0.7791
23495SOL    HW175332   8.377   1.518   6.700 -0.7652 -0.1942 -0.4595
23495SOL    HW275333   8.496   1.454   6.768 -0.7605 -1.0281 -1.2436
23496SOL     OW75334   9.261   0.625   8.569 -0.4533 -0.2539 -0.0109
23496SOL    HW175335   9.264   0.714   8.536  0.0582  0.1128  1.0162
23496SOL    HW275336   9.349   0.591   8.556  0.1303  0.3389  2.1529
23497SOL     OW75337   8.782   2.061   0.743 -0.2718 -0.3548 -0.2235
23497SOL    HW175338   8.827   2.022   0.818  0.8387  0.2551 -0.5711
23497SOL    HW275339   8.709   2.001   0.725  1.3432 -2.2079 -0.6914
23498SOL     OW75340   7.237   2.847   5.549 -0.5141 -0.4385  0.0789
23498SOL    HW175341   7.275   2.818   5.465 -2.1564 -0.6931 -0.5950
23498SOL    HW275342   7.186   2.772   5.579 -0.1998 -0.2258  1.1662
23499SOL     OW75343   8.345   0.089   7.698  0.4732 -0.6140 -0.3574
23499SOL    HW175344   8.390   0.157   7.647  0.2616 -0.5751 -0.4929
23499SOL    HW275345   8.337   0.016   7.636  0.8097 -0.8063 -0.1738
23500SOL     OW75346   7.037   0.745   9.425  1.2877  0.4951  0.2895
23500SOL    HW175347   7.005   0.782   9.343  1.5916  0.5070  0.1744
23500SOL    HW275348   7.111   0.801   9.449  1.2257  0.4636  0.5465
23501SOL     OW75349   7.442   1.467   7.027 -0.8407  0.4365 -0.8504
23501SOL    HW175350   7.513   1.445   7.087 -2.0810  1.4938  1.0532
23501SOL    HW275351   7.483   1.470   6.941  1.7164  2.4474  0.3956
23502SOL     OW75352   0.202   8.669   0.267  0.2575 -0.3269  0.1542
23502SOL    HW175353   0.281   8.656   0.213 -0.0340  1.5507 -0.7544
23502SOL    HW275354   0.184   8.763   0.261 -1.7198 -0.6448  0.8474
23503SOL     OW75355   7.027   0.155   1.412  0.2669  0.8756 -0.0746
23503SOL    HW175356   6.994   0.238   1.378  1.0768  1.1253 -0.2535
23503SOL    HW275357   7.121   0.169   1.423  0.3174  0.1645  0.4255
23504SOL     OW75358   8.150   0.364   0.010  0.3443  0.2791  0.2232
23504SOL    HW175359   8.183   0.411   0.086  2.2018  1.0786 -1.0325
23504SOL    HW275360   8.174   0.273   0.026  0.8661  0.4680  0.5237
23505SOL     OW75361   6.925   1.025   5.912  0.2813  0.1775 -0.1812
23505SOL    HW175362   6.872   1.096   5.948  0.5718 -0.0053  0.6191
23505SOL    HW275363   6.867   0.982   5.849 -0.5787 -0.0810  0.7528
23506SOL     OW75364   0.140   9.605   8.911 -0.3793  0.1706 -0.1652
23506SOL    HW175365   0.183   9.529   8.870  1.8922  0.4326  1.6424
23506SOL    HW275366   0.208   9.672   8.914 -2.4331  2.3826 -1.9075
23507SOL     OW75367   7.183   1.128   6.639 -0.2386  0.1449 -0.4170
23507SOL    HW175368   7.091   1.102   6.640 -0.7860  2.0029  0.3344
23507SOL    HW275369   7.223   1.074   6.571 -2.1556  0.2102 -1.6359
23508SOL     OW75370   6.234   0.741   8.796 -0.6257  0.7001  0.2346
23508SOL    HW175371   6.256   0.734   8.704  2.1768 -1.6288  1.0285
23508SOL    HW275372   6.139   0.729   8.799 -0.6711  0.2863 -2.3052
23509SOL     OW75373   8.997   0.542   9.905  0.2959  1.1534  0.5703
23509SOL    HW175374   9.037   0.536   9.991 -1.9663 -2.1538  1.4857
23509SOL    HW275375   8.913   0.586   9.920 -0.7314 -0.6490  0.3904
23510SOL     OW75376   9.228   0.287   6.770 -0.0198  0.0384 -0.7370
23510SOL    HW175377   9.187   0.207   6.802  1.1297  0.1824  1.1346
23510SOL    HW275378   9.322   0.275   6.785  0.2686  1.3169 -1.3922
23511SOL     OW75379   8.620   1.168   9.654  0.2451 -0.2069 -0.4423
23511SOL    HW175380   8.652   1.171   9.564 -0.8882 -1.6004 -0.9272
23511SOL    HW275381   8.691   1.206   9.706  1.4039 -0.4531 -1.7906
23512SOL     OW75382   7.785   1.612   6.753 -0.8163 -0.1934  0.3269
23512SOL    HW175383   7.829   1.558   6.818  0.3800 -0.2977 -0.5472
23512SOL    HW275384   7.775   1.556   6.677 -0.5855  0.4677 -0.2010
23513SOL     OW75385   6.922   8.195   7.887 -0.1317 -0.1022 -0.4835
23513SOL    HW175386   6.973   8.203   7.807  0.9642 -0.4306  0.1700
23513SOL    HW275387   6.839   8.240   7.868  1.1526  2.1693 -0.9074
23514SOL     OW75388   7.205   1.624   7.739  0.5129  0.3548 -0.0374
23514SOL    HW175389   7.211   1.530   7.721  0.7179  0.6752 -1.7531
23514SOL    HW275390   7.291   1.658   7.714  0.2901  1.0597  0.1528
23515SOL     OW75391   7.829   0.396   7.023  0.3569 -0.3078  0.5496
23515SOL    HW175392   7.745   0.426   6.989  0.0014  0.2301  1.8594
23515SOL    HW275393   7.889   0.468   7.005  0.4830 -0.5957 -0.1774
23516SOL     OW75394   8.166   0.315   7.620 -0.1641  0.4482  0.4246
23516SOL    HW175395   8.195   0.280   7.704 -0.7606 -1.8639 -0.2937
23516SOL    HW275396   8.237   0.293   7.559 -1.2451 -0.9670 -0.3595
23517SOL     OW75397   7.845   0.711   9.199 -0.0919 -0.3127 -0.0010
23517SOL    HW175398   7.913   0.666   9.249  1.1031 -0.5199 -1.7399
23517SOL    HW275399   7.867   0.692   9.107 -2.5154 -0.4061 -0.5954
23518SOL     OW75400   9.091   0.026   6.743  0.0105 -0.2773  0.2895
23518SOL    HW175401   9.162  -0.019   6.697 -0.0435 -0.1210  0.0547
23518SOL    HW275402   9.047   0.077   6.676  0.1909  0.2850  0.5924
23519SOL     OW75403   6.747   0.392   6.750  0.0057 -0.1121  0.0394
23519SOL    HW175404   6.769   0.435   6.832  0.5278  0.6822 -0.5112
23519SOL    HW275405   6.686   0.452   6.707  1.6770  0.6985 -1.2859
23520SOL     OW75406   8.804   1.054   7.638  0.1302  0.3291  0.1848
23520SOL    HW175407   8.778   1.105   7.715  0.8684  0.9547  0.0149
23520SOL    HW275408   8.721   1.035   7.593 -0.1780  1.0704  0.4349
23521SOL     OW75409   8.541   0.858   7.451 -0.1077 -0.8194  0.4995
23521SOL    HW175410   8.565   0.948   7.476  0.1085 -0.7822  0.1567
23521SOL    HW275411   8.472   0.869   7.386  1.6129 -0.8339 -1.3834
23522SOL     OW75412   7.375   9.209   7.804  0.0015 -0.1740  0.0774
23522SOL    HW175413   7.408   9.196   7.893  1.0045 -0.3515 -0.3074
23522SOL    HW275414   7.299   9.152   7.798 -0.8363  0.7894  1.2260
23523SOL     OW75415   7.194   9.096   8.480  0.3221 -0.2089 -0.1258
23523SOL    HW175416   7.235   9.018   8.441  0.7628 -0.2209  0.3551
23523SOL    HW275417   7.195   9.078   8.574 -1.0375 -0.3256 -0.1339
23524SOL     OW75418   7.767   9.147   8.531 -0.2500 -0.0401  0.6157
23524SOL    HW175419   7.785   9.232   8.492 -0.9640  0.0194  0.4048
23524SOL    HW275420   7.762   9.164   8.625  1.3977 -0.1704  0.7353
23525SOL     OW75421   7.604   1.779   6.866  0.0940 -0.9862  0.5198
23525SOL    HW175422   7.676   1.750   6.809  0.0273 -3.7051  1.7359
23525SOL    HW275423   7.646   1.796   6.950 -0.2540  0.2828  0.4444
23526SOL     OW75424   8.745   1.053   6.615 -0.6026  0.2120  0.0556
23526SOL    HW175425   8.665   1.015   6.651 -1.3836  0.4556 -1.3492
23526SOL    HW275426   8.719   1.142   6.588 -0.9560 -0.9848 -3.9314
23527SOL     OW75427   0.126   9.758   8.582  0.6175  0.5994  0.2465
23527SOL    HW175428   0.124   9.853   8.592  2.2234  0.8227 -1.4154
23527SOL    HW275429   0.216   9.734   8.602  0.7141 -0.3365 -1.2331
23528SOL     OW75430   8.835   1.695   7.758  0.2499  0.4888  0.4749
23528SOL    HW175431   8.805   1.604   7.766 -0.4654  0.5163 -1.5369
23528SOL    HW275432   8.761   1.741   7.720  0.6770  1.9039  1.3052
23529SOL     OW75433   0.122   0.611   8.918  0.4422  0.1963 -0.1181
23529SOL    HW175434   0.168   0.693   8.933  2.9470 -1.3767  1.1475
23529SOL    HW275435   0.155   0.579   8.835 -0.1022  0.1839 -0.3321
23530SOL     OW75436   8.903   0.691   6.274 -0.2630  0.4929  0.2164
23530SOL    HW175437   8.825   0.661   6.320 -0.9187  2.7792  0.6507
23530SOL    HW275438   8.968   0.705   6.343  0.3394 -0.8038 -0.0794
23531SOL     OW75439   6.565   1.104   7.415  0.8092 -0.1965 -0.0759
23531SOL    HW175440   6.635   1.095   7.479  0.1423 -0.4642  0.6169
23531SOL    HW275441   6.526   1.017   7.409  2.2152 -0.7198 -2.4321
23532SOL     OW75442   9.435   1.048   8.330 -0.4342  0.0101 -0.4256
23532SOL    HW175443   9.365   1.095   8.376 -0.4901 -0.9279  0.4653
23532SOL    HW275444   9.392   0.974   8.289  0.2912 -1.6598  1.7048
23533SOL     OW75445   9.294   0.418   9.092 -0.4259  0.3304 -0.1851
23533SOL    HW175446   9.274   0.408   8.999  0.7103 -2.5080 -0.1581
23533SOL    HW275447   9.330   0.507   9.099  0.8292  0.0659 -2.6990
23534SOL     OW75448   9.506   3.350   0.339  0.0708 -0.6459 -0.0028
23534SOL    HW175449   9.536   3.259   0.336 -0.1665 -0.6845 -1.7522
23534SOL    HW275450   9.430   3.351   0.282 -1.0568  0.2584  1.5036
23535SOL     OW75451   8.101   1.390   7.676 -0.4720  0.4086  0.1572
23535SOL    HW175452   8.169   1.456   7.686  0.8803 -0.9382  0.0809
23535SOL    HW275453   8.032   1.434   7.627  0.5882  1.6250 -0.2768
23536SOL     OW75454   0.195   0.673   7.999 -0.0477 -0.3508 -0.5138
23536SOL    HW175455   0.247   0.701   7.923 -0.7406  2.1093 -0.1243
23536SOL    HW275456   0.245   0.704   8.074  0.3594 -2.3123  0.0620
23537SOL     OW75457   8.943   8.934   8.988 -0.0875  0.2208  0.2189
23537SOL    HW175458   8.879   8.975   8.930  0.4837 -0.6549 -1.0508
23537SOL    HW275459   9.017   8.913   8.931 -0.0641 -1.8672  0.9827
23538SOL     OW75460   9.232   0.590   9.543  0.3967  0.4033  0.0347
23538SOL    HW175461   9.156   0.648   9.544  0.8193  0.9875 -0.7758
23538SOL    HW275462   9.266   0.597   9.453  1.1154 -0.2259  0.2523
23539SOL     OW75463   7.836   0.432   8.403 -0.0776 -0.3367 -0.2577
23539SOL    HW175464   7.811   0.443   8.495 -0.0855  0.5633 -0.3680
23539SOL    HW275465   7.803   0.345   8.380  0.9496 -1.0648  0.9183
23540SOL     OW75466   6.929   1.077   7.740  0.1340 -0.1118 -0.1739
23540SOL    HW175467   7.020   1.079   7.768  0.4655  0.8923 -1.3063
23540SOL    HW275468   6.883   1.036   7.813  1.0559  1.8701  1.5676
23541SOL     OW75469   9.883   0.776   7.954 -0.5076 -0.2295  0.1777
23541SOL    HW175470   9.846   0.697   7.994  1.5454 -0.5824  1.4151
23541SOL    HW275471   9.973   0.753   7.933 -0.4218  1.2136 -1.1432
23542SOL     OW75472   8.051   0.915   8.684 -0.7120 -0.0769  0.1527
23542SOL    HW175473   8.075   0.825   8.662  0.0210  0.2608 -0.4448
23542SOL    HW275474   8.103   0.936   8.761  0.5713  0.4925 -0.8612
23543SOL     OW75475   7.672   1.329   7.440  1.0405 -0.3362 -0.5870
23543SOL    HW175476   7.656   1.372   7.524 -1.0066  0.5918 -1.4082
23543SOL    HW275477   7.659   1.236   7.459  0.6844 -0.1459  0.1446
23544SOL     OW75478   6.884   0.397   8.093  1.2107 -0.0798 -0.2272
23544SOL    HW175479   6.872   0.390   8.187 -2.1060 -2.2458 -0.7239
23544SOL    HW275480   6.950   0.331   8.072  0.2547 -1.2294  0.3251
23545SOL     OW75481   7.392   1.137   9.506 -0.2973 -0.2360 -0.0118
23545SOL    HW175482   7.454   1.124   9.579 -1.4335  1.3458  1.2821
23545SOL    HW275483   7.357   1.050   9.489  0.5983 -0.7670  0.7733
23546SOL     OW75484   8.773   9.084   8.827  0.2049  0.0764 -0.3597
23546SOL    HW175485   8.737   9.173   8.826  0.1007  0.0368 -0.1710
23546SOL    HW275486   8.703   9.030   8.864 -0.0990 -0.2412 -1.3953
23547SOL     OW75487   6.477   0.942   9.397  0.8029 -0.3461 -0.2037
23547SOL    HW175488   6.526   0.893   9.463  0.1530 -1.9069 -0.8539
23547SOL    HW275489   6.480   0.886   9.319  1.6162  1.4813 -1.5306
23548SOL     OW75490   8.325   2.775   9.327 -0.5071 -0.4462 -0.2049
23548SOL    HW175491   8.262   2.710   9.357 -2.4199  1.6698  0.5770
23548SOL    HW275492   8.390   2.779   9.397 -0.3884 -1.5047 -0.2542
23549SOL     OW75493   8.874   0.090   7.116 -0.2173 -0.2927  0.1107
23549SOL    HW175494   8.952   0.039   7.093 -0.2902  0.0455 -0.9287
23549SOL    HW275495   8.904   0.181   7.114 -0.1385 -0.2783  1.7525
23550SOL     OW75496   0.390   9.147   8.034 -0.3664  0.0002 -0.6196
23550SOL    HW175497   0.336   9.074   8.006  0.7727 -0.5958 -1.3098
23550SOL    HW275498   0.470   9.106   8.067 -0.0124  0.9030 -0.3429
23551SOL     OW75499   7.906   1.299   7.886 -0.2043  0.4386  0.4652
23551SOL    HW175500   7.966   1.355   7.838  0.3522  0.3395  1.0397
23551SOL    HW275501   7.922   1.319   7.979 -0.3846 -0.2579  0.6561
23552SOL     OW75502   6.262   1.475   7.458 -0.0905 -0.0980 -0.4298
23552SOL    HW175503   6.205   1.415   7.504 -1.4624  1.5536  0.0730
23552SOL    HW275504   6.282   1.544   7.521  0.2485  0.7505 -1.4326
23553SOL     OW75505   7.687   0.607   8.819 -0.1358 -0.1346  0.3157
23553SOL    HW175506   7.591   0.606   8.819 -0.1372 -0.0145  0.3517
23553SOL    HW275507   7.712   0.529   8.770 -0.2571  0.0109  0.0173
23554SOL     OW75508   8.897   9.742   8.866 -0.5657  0.0129 -0.4491
23554SOL    HW175509   8.973   9.790   8.833  0.3485  0.0116  1.5520
23554SOL    HW275510   8.834   9.810   8.888 -0.2124  0.1693  0.1028
23555SOL     OW75511   6.868   1.005   8.265  0.5215 -0.3128 -0.0172
23555SOL    HW175512   6.856   0.924   8.216 -3.0316 -0.2690  0.6658
23555SOL    HW275513   6.928   0.982   8.336  0.0010 -2.1920 -0.1666
23556SOL     OW75514   9.062   1.396   8.326  0.1187  0.2665 -0.0431
23556SOL    HW175515   9.080   1.471   8.383 -1.7044  0.5283  0.2395
23556SOL    HW275516   9.133   1.395   8.263  0.8582  1.4562  0.7544
23557SOL     OW75517   9.548   9.658   8.218 -0.7466  0.3157  0.0394
23557SOL    HW175518   9.554   9.567   8.248  1.0358 -0.1078 -1.5370
23557SOL    HW275519   9.626   9.700   8.254  0.4195  0.2666 -2.3630
23558SOL     OW75520   7.041   1.507   9.119  0.4757  0.1346 -0.3691
23558SOL    HW175521   6.969   1.462   9.073 -0.1375 -0.2496  0.9391
23558SOL    HW275522   7.014   1.506   9.211  1.8778  0.5529  0.0458
23559SOL     OW75523   9.235   2.084   9.865  0.4037  0.0599  0.4156
23559SOL    HW175524   9.309   2.025   9.876  0.3670  0.2098  1.5978
23559SOL    HW275525   9.272   2.172   9.878 -0.0810  0.0937  1.6735
23560SOL     OW75526   9.046   0.454   9.277 -0.3948 -0.1699  0.1169
23560SOL    HW175527   9.029   0.543   9.309  2.9350 -0.5328  3.2212
23560SOL    HW275528   9.123   0.463   9.221 -2.2384 -0.6056 -2.5857
23561SOL     OW75529   8.328   2.486   7.244  0.0923  0.2447 -0.2024
23561SOL    HW175530   8.390   2.519   7.179 -0.3013  0.2529 -0.5737
23561SOL    HW275531   8.365   2.513   7.328  2.5907 -2.9169 -0.1586
23562SOL     OW75532   9.042   0.671   8.802  0.1855  0.2241  0.3918
23562SOL    HW175533   8.997   0.744   8.758  1.7257  1.2260  0.4559
23562SOL    HW275534   9.065   0.611   8.731 -1.9264 -0.7120  0.4363
23563SOL     OW75535   7.863   9.801   9.595 -0.4459  0.2655  0.4320
23563SOL    HW175536   7.861   9.801   9.690 -0.2543  2.1567  0.4486
23563SOL    HW275537   7.931   9.738   9.572 -0.1623  0.1566  1.5493
23564SOL     OW75538   8.609   0.721   7.220 -0.5399 -0.4507 -0.6514
23564SOL    HW175539   8.538   0.662   7.244 -0.5853 -0.6940 -1.3739
23564SOL    HW275540   8.629   0.768   7.301 -0.9653 -0.9652 -0.2416
23565SOL     OW75541   8.573   1.186   8.901 -0.0951 -0.1522 -0.3493
23565SOL    HW175542   8.542   1.199   8.812  1.9621 -0.1763 -1.1049
23565SOL    HW275543   8.668   1.202   8.896  0.2622 -1.4857  1.5435
23566SOL     OW75544   0.420   8.822   9.585  0.2455  0.0881  0.0594
23566SOL    HW175545   0.391   8.735   9.558  1.4371  0.0595 -1.1912
23566SOL    HW275546   0.384   8.833   9.673 -0.3102 -1.4783  0.0416
23567SOL     OW75547   8.119   1.901   8.987  0.0761  0.0171  0.0244
23567SOL    HW175548   8.090   1.970   9.046  2.1429  0.2343  0.8346
23567SOL    HW275549   8.041   1.877   8.937 -1.0255  1.8184  0.8507
23568SOL     OW75550   6.488   3.123   6.566 -0.1347  0.0071 -0.4568
23568SOL    HW175551   6.427   3.062   6.525  0.8535 -1.4770  0.1938
23568SOL    HW275552   6.509   3.186   6.497 -0.7955 -0.6818 -1.3054
23569SOL     OW75553   7.254   1.965   8.686 -0.8609  0.1651 -0.1482
23569SOL    HW175554   7.219   1.913   8.758 -2.3353  0.2815 -0.7594
23569SOL    HW275555   7.241   1.909   8.609  0.0057  0.3539 -0.4323
23570SOL     OW75556   7.026   1.095   8.040 -0.1105 -0.3797 -0.5212
23570SOL    HW175557   7.092   1.026   8.032 -1.4406 -1.9070  1.1092
23570SOL    HW275558   6.958   1.056   8.096 -0.3369  2.6774  1.4410
23571SOL     OW75559   6.738   0.947   7.910 -0.8494  0.1690  0.2733
23571SOL    HW175560   6.771   0.902   7.987  0.9984 -1.6117 -1.5054
23571SOL    HW275561   6.647   0.968   7.932 -1.3969 -3.2677  1.7311
23572SOL     OW75562   5.737   0.561   0.184 -0.1340 -0.4346  0.2051
23572SOL    HW175563   5.805   0.550   0.117  0.3248 -0.4699  0.6709
23572SOL    HW275564   5.671   0.495   0.161  0.3638 -0.9443  0.2056
23573SOL     OW75565   0.434   0.173   8.798 -0.2477  1.2352  0.6938
23573SOL    HW175566   0.377   0.239   8.758 -0.1456 -0.3784 -2.2717
23573SOL    HW275567   0.516   0.181   8.749  0.2932 -0.0082  1.3783
23574SOL     OW75568   6.968   0.224   7.281  0.2859 -0.0739  0.0040
23574SOL    HW175569   7.016   0.304   7.303  0.6726  0.4764 -2.6483
23574SOL    HW275570   6.888   0.255   7.237  0.6946 -1.1182 -1.5266
23575SOL     OW75571   8.325   1.162   8.247 -0.5449  0.2767  0.1974
23575SOL    HW175572   8.271   1.145   8.324 -1.5789 -0.6976 -0.7355
23575SOL    HW275573   8.401   1.209   8.282 -0.5129 -1.0299  1.9624
23576SOL     OW75574   5.992   1.527   9.291  0.2214 -0.4191  0.0355
23576SOL    HW175575   5.926   1.522   9.222 -0.1502 -1.8078  0.4773
23576SOL    HW275576   5.964   1.463   9.356  0.5547  0.8953  1.4967
23577SOL     OW75577   0.095   1.838   9.985  0.6346  0.0657 -0.0980
23577SOL    HW175578   0.083   1.920  10.032 -2.5221 -0.6777  0.5315
23577SOL    HW275579   0.039   1.775  10.032  2.4454 -2.2702 -0.9645
23578SOL     OW75580   7.462   1.177   8.136 -0.1016 -0.2126  0.0837
23578SOL    HW175581   7.489   1.267   8.154  0.4636 -0.7362  1.9344
23578SOL    HW275582   7.526   1.146   8.072 -0.3034  0.6975 -0.5706
23579SOL     OW75583   6.696   0.139   8.023  0.4735  0.4782  0.1328
23579SOL    HW175584   6.701   0.138   7.927 -0.0275  0.5790  0.1080
23579SOL    HW275585   6.788   0.142   8.051  0.6338  0.0554 -0.3353
23580SOL     OW75586   9.325   0.121   7.128 -0.1654  0.3833  0.1182
23580SOL    HW175587   9.322   0.196   7.186 -0.9531  1.6510 -1.5173
23580SOL    HW275588   9.236   0.084   7.130 -0.5500  1.1923 -1.2180
23581SOL     OW75589   6.678   1.792   7.826 -0.3662 -0.3645  0.1148
23581SOL    HW175590   6.772   1.775   7.833 -0.3348 -0.5437 -0.6551
23581SOL    HW275591   6.658   1.775   7.734 -1.1287 -0.1991  0.2486
23582SOL     OW75592   8.251   1.430   8.067  0.3143 -0.0666  0.2964
23582SOL    HW175593   8.335   1.385   8.059  1.0189  1.2065  0.3032
23582SOL    HW275594   8.208   1.387   8.140  1.5552  0.1452  1.1767
23583SOL     OW75595   9.707   1.562   9.090 -0.0542 -0.0281 -0.6950
23583SOL    HW175596   9.711   1.552   8.995 -2.9976 -1.4790 -0.7075
23583SOL    HW275597   9.738   1.651   9.106  1.5547 -0.1680 -2.9058
23584SOL     OW75598   6.494   1.463   7.290  0.6251  0.5352  0.4144
23584SOL    HW175599   6.564   1.436   7.349 -0.8036 -1.5312  1.2223
23584SOL    HW275600   6.420   1.484   7.347 -0.0415  0.7718 -0.5176
23585SOL     OW75601   8.203   0.420   9.006 -0.4147  0.7205  0.0363
23585SOL    HW175602   8.295   0.404   9.030  0.0447  0.7545 -1.5848
23585SOL    HW275603   8.154   0.403   9.086  1.0373  0.9832  1.0182
23586SOL     OW75604   1.236   0.187   8.618  0.0496 -0.0982  0.3532
23586SOL    HW175605   1.206   0.156   8.532  1.0573 -0.6144  0.1816
23586SOL    HW275606   1.273   0.109   8.660  0.9381  0.4764  0.6455
23587SOL     OW75607   9.288   3.060   7.109 -0.4176  0.5677 -0.1782
23587SOL    HW175608   9.361   3.024   7.060  1.2914  1.1537  1.8739
23587SOL    HW275609   9.244   2.983   7.146  1.5570  0.3634  1.8692
23588SOL     OW75610   8.256   0.565   0.215  0.2799 -0.0892  0.4776
23588SOL    HW175611   8.287   0.521   0.294 -0.3718 -1.3790  0.0118
23588SOL    HW275612   8.219   0.648   0.247  2.0986  0.4467  1.2786
23589SOL     OW75613   9.327   9.903   7.803 -0.6842 -0.3554 -0.2577
23589SOL    HW175614   9.270   9.980   7.804  3.8828  3.2227  0.4799
23589SOL    HW275615   9.334   9.877   7.895 -0.0944  0.0264 -0.1938
23590SOL     OW75616   8.238   0.968   7.571  0.3252  0.1039 -0.4844
23590SOL    HW175617   8.303   1.038   7.583  0.6861 -0.2360 -0.4306
23590SOL    HW275618   8.157   1.014   7.552 -0.3209  0.7272  3.3909
23591SOL     OW75619   9.085   0.073   5.157 -0.1090  0.2881  0.2241
23591SOL    HW175620   9.109  -0.005   5.206 -1.1602  0.5234  1.1339
23591SOL    HW275621   9.049   0.040   5.075 -2.6544 -0.2834  1.5280
23592SOL     OW75622   7.412   0.565   8.075 -0.1475 -0.0263  0.4067
23592SOL    HW175623   7.435   0.484   8.121  1.0947 -0.1529 -0.4353
23592SOL    HW275624   7.495   0.609   8.060 -0.5336  0.0177 -1.7225
23593SOL     OW75625   8.838   0.290   6.799  0.1682 -0.7353  0.0795
23593SOL    HW175626   8.792   0.353   6.744 -1.2367 -2.1587 -0.4183
23593SOL    HW275627   8.882   0.343   6.866 -2.2957  0.6702  0.6320
23594SOL     OW75628   7.315   9.463   7.300 -0.0828 -0.3318 -0.4940
23594SOL    HW175629   7.410   9.459   7.296  0.0388 -0.1280  1.5471
23594SOL    HW275630   7.285   9.418   7.220  1.7071 -0.1529 -1.2787
23595SOL     OW75631   7.218   0.501   7.695  0.0347  0.7200  0.3678
23595SOL    HW175632   7.176   0.484   7.779  1.8301 -1.5757  0.8737
23595SOL    HW275633   7.289   0.562   7.715  1.0934 -0.6026  0.7400
23596SOL     OW75634   9.081   1.452   6.620 -0.4622 -0.1948 -0.1911
23596SOL    HW175635   9.114   1.370   6.657 -0.5719 -0.9721 -1.7451
23596SOL    HW275636   9.146   1.477   6.554 -1.1480  0.2000 -0.7260
23597SOL     OW75637   7.992   0.622   8.257 -0.0009 -0.3521  0.1519
23597SOL    HW175638   8.021   0.611   8.348  0.6568 -0.7312 -0.0956
23597SOL    HW275639   7.902   0.590   8.256 -0.3503  0.6145  0.8920
23598SOL     OW75640   9.458   0.921   0.143 -0.5554 -0.4227 -1.0388
23598SOL    HW175641   9.371   0.923   0.184 -0.4100 -1.0282 -0.6884
23598SOL    HW275642   9.479   1.013   0.127  0.2910  0.0069  2.1928
23599SOL     OW75643   8.690   0.369   8.285 -0.1706 -0.1899 -0.3670
23599SOL    HW175644   8.780   0.360   8.254 -0.1082 -0.1261 -0.2071
23599SOL    HW275645   8.682   0.462   8.307 -0.3566 -0.1450 -0.6297
23600SOL     OW75646   8.757   0.248   8.554 -0.5745  0.2441  0.4949
23600SOL    HW175647   8.785   0.254   8.462  0.3381  0.5462  0.7871
23600SOL    HW275648   8.691   0.317   8.563  0.1918  1.0006  0.3673
23601SOL     OW75649   8.610   1.193   7.774 -0.0982 -0.7202 -0.2560
23601SOL    HW175650   8.530   1.166   7.730  0.2600 -3.5615  0.7172
23601SOL    HW275651   8.581   1.256   7.840 -1.5989 -2.0001  0.3389
23602SOL     OW75652   9.430   0.667   8.968 -0.4262 -0.3191  0.3521
23602SOL    HW175653   9.444   0.599   8.903 -0.3893  1.6621 -1.7812
23602SOL    HW275654   9.458   0.748   8.925 -3.3737  1.5084  1.6948
23603SOL     OW75655   0.340   0.521   8.390 -0.2307  0.6105  0.1694
23603SOL    HW175656   0.396   0.594   8.417  0.1719  0.9338 -1.4847
23603SOL    HW275657   0.273   0.561   8.334 -0.0362 -0.2700 -0.7135
23604SOL     OW75658   6.004   3.469   0.623 -0.4363  0.7940  0.4355
23604SOL    HW175659   6.058   3.390   0.632  0.2846  1.1835 -0.4332
23604SOL    HW275660   5.915   3.438   0.642 -0.3856 -0.5746 -1.3802
23605SOL     OW75661   7.849   1.296   6.699  0.0425  0.0424  0.4589
23605SOL    HW175662   7.877   1.225   6.641 -0.2777 -2.8754  3.7539
23605SOL    HW275663   7.931   1.336   6.728  0.4597 -1.9964  2.1930
23606SOL     OW75664   9.460   1.393   8.698 -0.2696  0.3261  0.3528
23606SOL    HW175665   9.505   1.309   8.689  0.9636  1.0101 -0.1043
23606SOL    HW275666   9.389   1.376   8.759 -1.1849 -1.4950 -1.1561
23607SOL     OW75667   5.131   0.334   7.025 -0.0252 -0.0051 -0.3812
23607SOL    HW175668   5.090   0.401   7.080  0.4387  0.7867 -0.9988
23607SOL    HW275669   5.200   0.296   7.080 -0.3374 -0.0390 -0.0078
23608SOL     OW75670   8.417   2.976   7.009 -0.2914 -0.0018 -0.2139
23608SOL    HW175671   8.372   3.061   7.007  0.5222  0.4402 -0.1487
23608SOL    HW275672   8.436   2.957   6.917 -1.3448 -0.5836 -0.3087
23609SOL     OW75673   7.750   0.918   9.932  0.4222 -0.9442  0.1460
23609SOL    HW175674   7.688   0.955   9.995  1.8172 -0.9452  1.5463
23609SOL    HW275675   7.781   0.837   9.973  0.8645 -1.2842 -0.8343
23610SOL     OW75676   8.800   1.357   8.030 -0.5939 -0.4482  0.4795
23610SOL    HW175677   8.848   1.340   7.949 -0.3165  0.3674  0.4631
23610SOL    HW275678   8.824   1.447   8.054 -0.2046 -0.8899  1.7857
23611SOL     OW75679   8.481   0.197   7.140  0.1659  0.5398  0.1677
23611SOL    HW175680   8.428   0.274   7.162  0.7400  1.3459 -1.2240
23611SOL    HW275681   8.458   0.176   7.049  0.4328 -0.5895  0.3478
23612SOL     OW75682   8.332   1.309   9.218  0.3426 -0.5267  0.4415
23612SOL    HW175683   8.248   1.340   9.183 -0.0930 -2.0913  0.0619
23612SOL    HW275684   8.343   1.358   9.300 -0.3423  0.5811 -0.1113
23613SOL     OW75685   6.632   0.546   9.284  0.1348  0.1909  0.1381
23613SOL    HW175686   6.558   0.494   9.253 -0.0755 -1.0728  2.6245
23613SOL    HW275687   6.608   0.637   9.263 -1.5056 -0.3191 -0.2751
23614SOL     OW75688   8.075   9.807   6.447  0.7375  0.2189 -0.2570
23614SOL    HW175689   8.132   9.760   6.508 -1.9978  1.6394  3.6244
23614SOL    HW275690   8.084   9.899   6.472 -1.4307  0.7078 -1.1071
23615SOL     OW75691   7.403   9.330   8.496 -0.6425  1.0102 -0.5112
23615SOL    HW175692   7.357   9.262   8.544  1.0925  1.3708  1.7222
23615SOL    HW275693   7.366   9.412   8.529  2.4313  1.3543  2.2880
23616SOL     OW75694   9.633   1.469   7.306 -0.4501  0.1939 -0.0955
23616SOL    HW175695   9.676   1.464   7.220  0.6843 -0.3554  0.4814
23616SOL    HW275696   9.701   1.503   7.364 -0.9100 -0.3312  0.7638
23617SOL     OW75697   8.175   1.041   8.925  0.3603 -0.0527 -0.0403
23617SOL    HW175698   8.224   1.114   8.888 -1.6281  2.2241  1.6550
23617SOL    HW275699   8.144   1.074   9.010  0.1219 -3.1686  1.1449
23618SOL     OW75700   8.550   0.735   7.695 -0.1876 -0.4087  0.2295
23618SOL    HW175701   8.456   0.729   7.680 -0.0008 -0.0405 -1.1886
23618SOL    HW275702   8.585   0.771   7.613  1.2753 -1.2716  0.4479
23619SOL     OW75703   9.049   0.252   6.130 -0.5082 -0.5933  0.0233
23619SOL    HW175704   9.035   0.163   6.099 -1.5435 -1.1478  2.0395
23619SOL    HW275705   8.962   0.284   6.152 -0.1493  0.9370 -0.6914
23620SOL     OW75706   8.486   2.480   9.509  0.0275 -0.1182  0.3204
23620SOL    HW175707   8.424   2.540   9.550  0.7211 -0.8036  2.4505
23620SOL    HW275708   8.565   2.486   9.563  0.6454 -1.7537 -0.3583
23621SOL     OW75709   7.347   0.974   8.288  0.0071 -0.6030  1.0236
23621SOL    HW175710   7.383   1.035   8.224 -0.2048 -0.2999  1.1888
23621SOL    HW275711   7.307   1.030   8.355 -0.9768 -0.9334  0.7305
23622SOL     OW75712   8.553   0.807   5.838  0.8627 -0.1177 -0.6096
23622SOL    HW175713   8.539   0.712   5.830  0.4253 -0.0977 -0.0839
23622SOL    HW275714   8.524   0.828   5.926  0.3635  0.6156 -0.9442
23623SOL     OW75715   8.829   1.202   8.279 -0.6647 -0.3565 -0.6754
23623SOL    HW175716   8.890   1.273   8.263 -1.3097  0.6013  0.9914
23623SOL    HW275717   8.789   1.185   8.194 -0.4381  1.2115 -1.1022
23624SOL     OW75718   7.598   1.080   9.679  0.3464  0.1076 -0.1271
23624SOL    HW175719   7.680   1.076   9.728  0.8160  2.0837 -0.7146
23624SOL    HW275720   7.623   1.060   9.588 -0.1747 -1.3593  0.0279
23625SOL     OW75721   8.922   0.749   7.306 -0.2811  0.0944  0.4241
23625SOL    HW175722   8.864   0.821   7.287 -1.1906 -1.2134 -1.9457
23625SOL    HW275723   8.922   0.695   7.227  2.7416 -0.8990  0.9959
23626SOL     OW75724   7.248   0.506   0.146  0.1875 -0.7363  0.0113
23626SOL    HW175725   7.312   0.471   0.208  0.4998 -0.0896  0.0531
23626SOL    HW275726   7.165   0.464   0.171  0.5271 -1.3264  0.1572
23627SOL     OW75727   0.607   0.243   7.636 -0.8241 -0.0112  0.4848
23627SOL    HW175728   0.600   0.338   7.641 -1.1315 -0.0510  0.7873
23627SOL    HW275729   0.632   0.225   7.545 -0.9472  0.3435  0.3825
23628SOL     OW75730   7.348   9.606   8.439  0.5009 -0.1762 -0.3316
23628SOL    HW175731   7.290   9.617   8.514 -1.5129 -0.2606 -1.8447
23628SOL    HW275732   7.382   9.694   8.422  0.0840  0.0492 -0.0143
23629SOL     OW75733   8.144   3.097   8.209 -0.3344  0.5917 -0.0061
23629SOL    HW175734   8.238   3.106   8.226 -0.4226 -0.2493  0.9788
23629SOL    HW275735   8.135   3.013   8.165 -0.8727 -0.4286  1.9939
23630SOL     OW75736   6.766   0.797   0.765 -0.0039  0.0481  0.0717
23630SOL    HW175737   6.789   0.889   0.750  1.5785 -0.6149 -1.6145
23630SOL    HW275738   6.787   0.782   0.857  0.9037  1.0350  0.0353
23631SOL     OW75739   9.443   0.459   7.994 -0.0507 -0.1791  0.0893
23631SOL    HW175740   9.485   0.536   7.956 -0.3032  0.3657  0.8961
23631SOL    HW275741   9.502   0.386   7.974  0.8687  0.4407  0.4886
23632SOL     OW75742   8.552   8.370   9.137 -0.1660 -0.4421 -0.9724
23632SOL    HW175743   8.534   8.279   9.113 -1.7140 -0.4943  0.2905
23632SOL    HW275744   8.484   8.420   9.093  0.5402  0.0806 -1.4728
23633SOL     OW75745   8.300   0.877   7.312  0.2269 -0.9081 -0.2884
23633SOL    HW175746   8.281   0.883   7.405  0.0162 -2.0539 -0.2468
23633SOL    HW275747   8.249   0.948   7.272 -0.9416 -1.4163  0.2793
23634SOL     OW75748   9.346   0.996   7.697  0.1674  0.3281 -0.6952
23634SOL    HW175749   9.266   0.947   7.679  0.7397 -0.9883  0.2186
23634SOL    HW275750   9.330   1.083   7.661 -0.9688 -0.4514 -2.1331
23635SOL     OW75751   0.021   9.937   8.301  0.5093  0.1910  0.3291
23635SOL    HW175752   0.089   9.931   8.234 -0.4947 -0.5711 -0.6447
23635SOL    HW275753   0.009  10.031   8.315 -0.5849  0.4394 -1.9694
23636SOL     OW75754   9.879   9.074   8.119 -0.2308 -0.6777  0.4054
23636SOL    HW175755   9.880   9.022   8.038 -0.3037 -0.2220  0.1075
23636SOL    HW275756   9.787   9.099   8.129  0.4769  3.3423 -2.0261
23637SOL     OW75757   9.067   9.321   0.493  0.0791  0.3163  0.4762
23637SOL    HW175758   9.128   9.247   0.486  1.3394  1.3690 -0.0225
23637SOL    HW275759   9.121   9.398   0.471 -1.2254  1.3678  0.9029
23638SOL     OW75760   6.242   0.926   9.098  0.2922 -0.6352 -0.1596
23638SOL    HW175761   6.326   0.933   9.052  0.3881  1.0711  0.2382
23638SOL    HW275762   6.265   0.937   9.190 -0.0022 -3.2163  0.2484
23639SOL     OW75763   7.428   0.097   7.437  0.2045  0.7251  0.3170
23639SOL    HW175764   7.368   0.062   7.371  0.9726  0.9891 -0.5276
23639SOL    HW275765   7.442   0.188   7.411  1.8772  0.3537 -0.1569
23640SOL     OW75766   8.191   1.611   1.473  0.3382  0.6843  0.8389
23640SOL    HW175767   8.141   1.641   1.549 -0.3114 -0.2177  0.7694
23640SOL    HW275768   8.224   1.525   1.498  3.0491  1.8246  1.4166
23641SOL     OW75769   8.704   9.277   0.699  0.3963 -0.2946  0.5859
23641SOL    HW175770   8.754   9.359   0.702  1.1919 -0.6708 -1.3321
23641SOL    HW275771   8.660   9.280   0.614  0.2235 -1.7468  0.6132
23642SOL     OW75772   8.223   2.631   0.472  0.3405 -0.1134 -0.1784
23642SOL    HW175773   8.296   2.571   0.454  2.1794  1.8555  0.4567
23642SOL    HW275774   8.226   2.694   0.400 -0.7037  0.0133 -0.1109
23643SOL     OW75775   8.423   0.444   8.059 -0.1599  0.1817  0.5326
23643SOL    HW175776   8.466   0.486   8.134 -0.5349  1.5445  0.0098
23643SOL    HW275777   8.477   0.467   7.984  1.3375 -2.8579  0.6144
23644SOL     OW75778   6.883   1.095   0.832 -0.1329  0.4000  0.7634
23644SOL    HW175779   6.793   1.110   0.861 -0.7779 -2.2451  0.2397
23644SOL    HW275780   6.911   1.018   0.882  1.6630  0.8843  0.5198
23645SOL     OW75781   8.094   1.224   9.881 -0.1790  0.1731 -0.4999
23645SOL    HW175782   8.065   1.135   9.901  0.2012  0.1002 -0.2673
23645SOL    HW275783   8.027   1.280   9.919 -0.1621 -0.0031 -0.2055
23646SOL     OW75784   6.951   1.358   8.329  0.7417  0.0889  0.3584
23646SOL    HW175785   7.022   1.393   8.276  0.9960 -1.5730 -0.4366
23646SOL    HW275786   6.912   1.289   8.275 -0.5136 -0.0321  1.3795
23647SOL     OW75787   7.841   0.123   0.263  0.0908 -0.0131  0.0882
23647SOL    HW175788   7.858   0.120   0.357  0.3508  3.2389  0.1922
23647SOL    HW275789   7.746   0.114   0.256 -0.1895  2.0662  0.8588
23648SOL     OW75790   9.468   9.185   9.599  0.3412 -0.0110 -0.0971
23648SOL    HW175791   9.397   9.244   9.575  0.1789  0.3345  1.1621
23648SOL    HW275792   9.431   9.098   9.589  0.8757  0.0633 -2.8546
23649SOL     OW75793   0.055   9.639   9.360 -0.2554  0.0728 -0.4392
23649SOL    HW175794   0.019   9.726   9.341  1.2568  0.4775 -1.5390
23649SOL    HW275795   0.008   9.610   9.438  0.0874  2.4023  0.6703
23650SOL     OW75796   9.412   2.965   0.301 -0.1365 -0.6430 -0.6478
23650SOL    HW175797   9.444   2.929   0.383  0.9678 -1.6329 -1.4997
23650SOL    HW275798   9.372   2.891   0.256 -0.4824 -0.1691 -1.1347
23651SOL     OW75799   9.231   0.936   8.183 -0.6563  0.3248  0.0065
23651SOL    HW175800   9.206   0.858   8.133  0.0481 -0.4622  0.8465
23651SOL    HW275801   9.231   1.007   8.119 -2.7001 -0.0858 -0.4896
23652SOL     OW75802   7.043   0.567   1.507  0.3097  0.3364 -0.5296
23652SOL    HW175803   7.104   0.552   1.578 -0.1461 -2.1555 -0.6252
23652SOL    HW275804   7.098   0.581   1.430  0.7815 -0.1659 -0.2854
23653SOL     OW75805   7.930   9.635   9.258 -0.0462  0.3471  0.2786
23653SOL    HW175806   7.879   9.624   9.339  1.1685  0.2790  1.0422
23653SOL    HW275807   7.977   9.553   9.248 -1.5114 -0.3089 -1.4570
23654SOL     OW75808   7.226   0.889   8.054  0.0245  0.0972  0.0971
23654SOL    HW175809   7.237   0.795   8.041 -2.3131 -0.4119  1.5391
23654SOL    HW275810   7.244   0.903   8.147 -3.0671  0.4685  0.6962
23655SOL     OW75811   8.195   0.861   9.177  0.2992 -0.0604 -0.0585
23655SOL    HW175812   8.189   0.812   9.259 -1.4473  1.5793  0.8361
23655SOL    HW275813   8.206   0.952   9.205 -0.5495  0.5375 -1.6493
23656SOL     OW75814   9.948   3.015   0.416 -0.3671  0.1557  0.0074
23656SOL    HW175815   9.984   3.096   0.452  0.8674 -0.1039 -0.6202
23656SOL    HW275816   9.947   2.954   0.490  1.0816 -0.0294 -0.1189
23657SOL     OW75817   8.062   1.188   9.184 -0.0929  0.4178 -0.5098
23657SOL    HW175818   8.013   1.186   9.267  1.6821 -1.8409  0.5497
23657SOL    HW275819   8.003   1.232   9.123 -1.7281  1.5524  1.7690
23658SOL     OW75820   7.596   0.157   0.149 -0.1632 -0.1004 -0.3445
23658SOL    HW175821   7.590   0.099   0.072  0.3664  0.7571 -1.0478
23658SOL    HW275822   7.506   0.176   0.172 -0.3219  1.2269 -1.9872
23659SOL     OW75823   8.494   9.494   0.293  0.0268 -0.9890  0.1373
23659SOL    HW175824   8.527   9.565   0.348 -0.4657 -1.4077  0.9862
23659SOL    HW275825   8.487   9.532   0.206  1.0503 -0.3864  0.3124
23660SOL     OW75826   7.473   0.922   8.671 -0.3457  0.2203 -0.1228
23660SOL    HW175827   7.543   0.966   8.720 -1.2285  1.6614 -0.1447
23660SOL    HW275828   7.466   0.836   8.712  0.4527  0.5994  0.8236
23661SOL     OW75829   9.936   9.024   8.576  0.2972 -0.2459 -0.6166
23661SOL    HW175830   9.965   8.944   8.530  0.0824 -2.4387  2.8739
23661SOL    HW275831   9.841   9.014   8.583  0.3920 -0.2072  0.7428
23662SOL     OW75832   6.589   1.799   0.971  0.4096  0.3396 -0.3286
23662SOL    HW175833   6.513   1.789   1.029  0.1744  0.6112 -0.5913
23662SOL    HW275834   6.657   1.835   1.028  0.3429  0.1024 -0.0940
23663SOL     OW75835   6.925   8.902   7.804 -0.3351 -0.1567  0.4990
23663SOL    HW175836   6.947   8.873   7.892  3.1951 -2.2489 -0.9494
23663SOL    HW275837   6.966   8.989   7.797 -0.2652 -0.1660  0.7904
23664SOL     OW75838   8.866   9.864   1.712 -0.7856  0.6693 -0.2778
23664SOL    HW175839   8.938   9.881   1.652  0.3992  0.4601  1.0507
23664SOL    HW275840   8.878   9.773   1.740 -1.5318  0.6434 -0.0152
23665SOL     OW75841   7.687   9.032   9.108  0.4123 -0.2497 -0.2814
23665SOL    HW175842   7.625   9.100   9.079  0.8333  0.3764  0.2622
23665SOL    HW275843   7.755   9.081   9.155  0.8358 -1.0325 -0.0809
23666SOL     OW75844   8.983   9.852   0.323  0.1821  0.2274 -0.2016
23666SOL    HW175845   9.058   9.911   0.318  0.1136  0.3910  0.6874
23666SOL    HW275846   8.907   9.910   0.318  0.1145  0.2447  1.0230
23667SOL     OW75847   9.783   9.021   0.251 -0.8695 -0.3297 -0.1241
23667SOL    HW175848   9.833   9.066   0.182 -1.0440 -1.1874 -0.8193
23667SOL    HW275849   9.799   9.073   0.330  1.4753 -0.8219 -0.2339
23668SOL     OW75850   8.363   1.473   9.835  0.3522 -0.1392  0.2298
23668SOL    HW175851   8.391   1.493   9.746 -0.9013  1.9047  0.2473
23668SOL    HW275852   8.274   1.509   9.840  0.6561  0.3615  2.4986
23669SOL     OW75853   7.700   1.414   9.759 -0.3477 -0.5098  0.1312
23669SOL    HW175854   7.670   1.432   9.670 -0.6816  0.9947  0.5196
23669SOL    HW275855   7.761   1.341   9.751 -1.5431 -1.3746 -1.1301
23670SOL     OW75856   8.576   9.919   9.473  0.2102 -0.3190  0.3391
23670SOL    HW175857   8.509   9.928   9.541  1.0921  2.9339  0.8394
23670SOL    HW275858   8.649   9.875   9.516  0.1853  0.3610  1.0699
23671SOL     OW75859   0.345   0.757   0.381  0.3093 -0.2138  0.7384
23671SOL    HW175860   0.258   0.765   0.342  0.6321  0.1166  0.0731
23671SOL    HW275861   0.376   0.848   0.390  0.0494 -0.2570  2.2101
23672SOL     OW75862   7.332   1.667   9.514 -0.2012  0.0548  0.0669
23672SOL    HW175863   7.257   1.703   9.466 -0.2049  0.0840  0.0945
23672SOL    HW275864   7.332   1.574   9.493 -1.0634 -0.2049  1.1680
23673SOL     OW75865   8.806   2.076   7.432  0.0857 -0.0363  0.2684
23673SOL    HW175866   8.823   2.002   7.374  0.2775  0.4399 -0.2831
23673SOL    HW275867   8.719   2.106   7.408  0.1658  0.1630  0.2305
23674SOL     OW75868   8.073   0.051   8.186  0.4316 -0.4165 -0.0449
23674SOL    HW175869   7.978   0.063   8.187  0.4971  0.1093 -0.2272
23674SOL    HW275870   8.109   0.139   8.179  0.9246 -0.6512 -0.5434
23675SOL     OW75871   8.335   9.365   9.342 -0.2050  0.0738  0.5458
23675SOL    HW175872   8.249   9.369   9.302 -0.3611 -3.3143  0.4224
23675SOL    HW275873   8.320   9.326   9.428  1.4030 -2.7601 -0.3779
23676SOL     OW75874   7.200   0.942   0.861 -0.1431 -0.1596 -0.3195
23676SOL    HW175875   7.277   0.998   0.855  0.5430 -1.0927 -0.3305
23676SOL    HW275876   7.196   0.917   0.954 -0.8229  0.4182 -0.1848
23677SOL     OW75877   9.445   0.403   0.353 -0.1321  0.4252  0.3336
23677SOL    HW175878   9.503   0.380   0.426 -2.5567 -0.6175  1.9919
23677SOL    HW275879   9.452   0.498   0.345  0.4686  0.4918  1.6444
23678SOL     OW75880   0.654   8.572   9.586  0.6239  0.0796 -0.2976
23678SOL    HW175881   0.672   8.621   9.506 -0.2481  3.5298  1.5038
23678SOL    HW275882   0.558   8.571   9.592  0.6890  2.8696  2.3768
23679SOL     OW75883   8.908   9.447   9.284 -0.7024 -0.0245 -0.9941
23679SOL    HW175884   8.945   9.530   9.255 -2.4711  1.3828  0.7069
23679SOL    HW275885   8.914   9.449   9.379 -2.3965 -1.0507 -0.8373
23680SOL     OW75886   6.356   0.404   1.048  0.3850  0.4183 -0.1682
23680SOL    HW175887   6.272   0.396   1.094  1.4564  3.3943  2.4899
23680SOL    HW275888   6.337   0.463   0.975 -0.4233 -1.2101 -1.3243
23681SOL     OW75889   1.304   0.091   0.562 -0.8562  0.0826  0.9049
23681SOL    HW175890   1.289   0.026   0.493  0.5741  0.6791  0.0159
23681SOL    HW275891   1.398   0.086   0.580 -0.5713  2.5051  0.2185
23682SOL     OW75892   9.709   0.485   0.262  0.5098  0.2161 -0.4814
23682SOL    HW175893   9.692   0.468   0.170 -0.8769 -1.0311 -0.0087
23682SOL    HW275894   9.638   0.542   0.290 -1.0543 -2.1925  0.6406
23683SOL     OW75895   7.790   0.642   0.004 -0.6951 -0.6890  0.3734
23683SOL    HW175896   7.865   0.606  -0.044 -0.1867 -1.1999  1.5376
23683SOL    HW275897   7.744   0.565   0.037 -0.9183 -0.3273  0.8961
23684SOL     OW75898   8.352   9.956   8.950  0.2352  0.8223 -0.0622
23684SOL    HW175899   8.285   9.948   8.883  1.3660  1.3267 -1.2761
23684SOL    HW275900   8.317  10.022   9.011 -2.2844 -2.0271  1.7270
23685SOL     OW75901   7.402   1.560   9.975 -0.5368 -0.1001 -0.3249
23685SOL    HW175902   7.340   1.529   9.910 -0.8701  0.6712 -0.3827
23685SOL    HW275903   7.349   1.577  10.053 -0.2829 -0.1404 -0.1415
23686SOL     OW75904   8.623   2.936   8.687  0.3594 -0.5579  0.2346
23686SOL    HW175905   8.675   3.013   8.709  1.1309 -0.0308 -3.0813
23686SOL    HW275906   8.532   2.961   8.706  0.6912  0.8879 -0.0870
23687SOL     OW75907   9.985   8.198   0.296 -0.4951 -0.3583  0.3599
23687SOL    HW175908  10.019   8.281   0.265 -1.7510  0.3489  0.8137
23687SOL    HW275909  10.062   8.142   0.308  0.5118  1.2944  1.7161
23688SOL     OW75910   9.039   0.459   8.490  0.4666  0.6066 -0.5177
23688SOL    HW175911   9.047   0.379   8.541 -1.6314 -0.6397 -2.0691
23688SOL    HW275912   9.114   0.513   8.517  1.8706 -1.8328  0.5643
23689SOL     OW75913   8.865   1.700   9.567  0.3741 -0.0379  0.4528
23689SOL    HW175914   8.811   1.645   9.511  1.3737 -2.2213  1.5999
23689SOL    HW275915   8.802   1.755   9.614 -0.6138 -0.0137 -0.8734
23690SOL     OW75916   9.428   1.121   9.316  0.3134  0.3639  0.5034
23690SOL    HW175917   9.335   1.116   9.339 -0.0558  1.9607 -0.5288
23690SOL    HW275918   9.434   1.081   9.230  0.5135  0.5472  0.4293
23691SOL     OW75919   8.110   1.510   9.851 -0.4691 -0.7105  0.2340
23691SOL    HW175920   8.060   1.463   9.785 -0.5688  1.0866 -1.0156
23691SOL    HW275921   8.056   1.507   9.930 -1.5374 -0.6962 -0.4880
23692SOL     OW75922   6.978   1.048   9.420 -0.3483  0.0960  0.0186
23692SOL    HW175923   7.000   1.142   9.415 -0.5494  0.1179 -0.4794
23692SOL    HW275924   6.989   1.026   9.513  1.5224  0.1748 -0.1692
23693SOL     OW75925   0.403   0.732   1.319  0.2816 -0.3897  0.0531
23693SOL    HW175926   0.407   0.647   1.363  0.8897 -0.4042 -0.0366
23693SOL    HW275927   0.354   0.788   1.380  1.8380 -0.1757  1.1358
23694SOL     OW75928   8.101   0.220   1.013 -0.1274 -0.3579 -0.0075
23694SOL    HW175929   8.104   0.162   1.090  0.0215 -0.3663 -0.0194
23694SOL    HW275930   8.185   0.206   0.970 -0.0167  0.0008  0.0866
23695SOL     OW75931   6.297   3.009   0.696 -0.3398  0.0351 -0.4067
23695SOL    HW175932   6.350   3.080   0.661  0.2408 -1.3972 -2.5679
23695SOL    HW275933   6.301   2.941   0.629 -3.5645 -0.7581  0.1142
23696SOL     OW75934   5.767   2.070   9.349  0.1111 -0.3163 -0.0743
23696SOL    HW175935   5.775   1.977   9.371  2.0896 -0.2162 -0.3110
23696SOL    HW275936   5.852   2.094   9.313 -0.6570  1.3931 -0.8040
23697SOL     OW75937   5.760   0.750   0.580 -0.0114 -0.7921 -0.4609
23697SOL    HW175938   5.756   0.843   0.556  2.3162  0.1223  2.4135
23697SOL    HW275939   5.696   0.741   0.651  0.4192 -1.1534 -0.1154
23698SOL     OW75940   8.074   0.573   7.582 -0.1385  0.2152 -0.4514
23698SOL    HW175941   8.137   0.501   7.582 -1.4845 -0.9735 -0.6314
23698SOL    HW275942   8.000   0.541   7.632  0.6841  2.8133  2.6046
23699SOL     OW75943   8.703   8.617   9.025  0.3980  0.5352  0.3354
23699SOL    HW175944   8.775   8.598   8.964 -1.1965 -3.7158 -0.4203
23699SOL    HW275945   8.670   8.530   9.051 -2.8243  2.3283  2.6378
23700SOL     OW75946   0.311   8.251   0.160 -0.6124  0.4541  0.3106
23700SOL    HW175947   0.236   8.310   0.166 -0.9077  0.2832 -1.4358
23700SOL    HW275948   0.305   8.214   0.072  1.6452  0.6041  0.0681
23701SOL     OW75949   8.302   1.642   8.866 -0.8774  0.3410 -0.7433
23701SOL    HW175950   8.342   1.721   8.830  0.3081  0.5045  0.8926
23701SOL    HW275951   8.369   1.574   8.856 -0.5947  0.3455  0.9373
23702SOL     OW75952   9.542   9.905   8.960  0.0825  0.3988  0.7289
23702SOL    HW175953   9.537   9.833   9.023 -0.5106 -0.0124  0.2229
23702SOL    HW275954   9.629   9.895   8.921 -1.0031 -1.7954 -1.3342
23703SOL     OW75955   8.021   1.128   2.382 -0.4312  0.1145  0.5257
23703SOL    HW175956   8.095   1.182   2.412 -0.4312  0.4702 -0.0951
23703SOL    HW275957   8.026   1.049   2.435  2.3418 -1.2997 -1.7139
23704SOL     OW75958   7.715   1.024   0.783  0.2494  0.5071 -0.2020
23704SOL    HW175959   7.778   1.061   0.845  3.8336 -2.4206 -1.9074
23704SOL    HW275960   7.710   0.932   0.807 -1.4269  0.1711 -1.7700
23705SOL     OW75961   0.936   0.048   9.802 -0.3311 -0.1660  0.3879
23705SOL    HW175962   0.968   0.108   9.869 -0.6148  1.0107 -0.5072
23705SOL    HW275963   0.849   0.079   9.781 -0.3415 -0.6709 -0.3537
23706SOL     OW75964   7.954   1.585   0.600 -0.5053 -0.7957 -0.1376
23706SOL    HW175965   7.921   1.599   0.689 -1.2525  0.2804 -0.5841
23706SOL    HW275966   8.038   1.631   0.598  0.5567 -2.6160  0.6552
23707SOL     OW75967   6.972   3.813   9.679  0.0043  0.4353  0.1431
23707SOL    HW175968   6.980   3.760   9.600 -2.2350  1.3548 -0.7336
23707SOL    HW275969   6.932   3.754   9.743 -1.1033  0.6286 -0.3717
23708SOL     OW75970   8.772   2.084   1.180  0.0822 -0.3083  0.2532
23708SOL    HW175971   8.832   2.139   1.130  0.2283 -1.7573 -1.1873
23708SOL    HW275972   8.827   2.015   1.216 -0.5980 -1.2604 -0.5038
23709SOL     OW75973   7.198   2.409   0.804 -0.0522 -0.2262  0.4118
23709SOL    HW175974   7.116   2.359   0.802 -1.2026  1.5600  0.9327
23709SOL    HW275975   7.189   2.473   0.734  0.8707  0.0206  0.5095
23710SOL     OW75976   8.325   3.642   1.452  0.5088 -0.3938  0.0729
23710SOL    HW175977   8.333   3.568   1.392 -1.9750 -0.2760 -0.4770
23710SOL    HW275978   8.365   3.611   1.533  1.3425 -1.5955 -0.7707
23711SOL     OW75979   7.186   1.785   1.323 -0.1778  0.5835  0.0640
23711SOL    HW175980   7.128   1.854   1.355 -3.2661 -1.7595 -0.2386
23711SOL    HW275981   7.180   1.791   1.227 -1.4193 -0.8081  0.0315
23712SOL     OW75982   8.585   3.191   1.871  0.2688  0.4310  0.3036
23712SOL    HW175983   8.680   3.204   1.869  0.5882 -1.7965 -0.3504
23712SOL    HW275984   8.557   3.206   1.780  0.4753 -2.0180 -0.2004
23713SOL     OW75985   9.420   2.365   2.315  0.2764 -0.4277 -0.0547
23713SOL    HW175986   9.352   2.321   2.263  0.1263  0.8501 -0.9558
23713SOL    HW275987   9.489   2.384   2.251  0.2235  0.8802  0.2662
23714SOL     OW75988   7.749   2.768   0.349 -0.1393  0.6751 -0.2391
23714SOL    HW175989   7.777   2.753   0.439 -0.5306 -0.3792 -0.2903
23714SOL    HW275990   7.831   2.780   0.300  0.1350 -0.0449  0.0318
23715SOL     OW75991   7.388   5.053   9.558 -0.4360 -0.2405  0.3327
23715SOL    HW175992   7.407   5.124   9.497 -1.6087 -0.8867 -0.8059
23715SOL    HW275993   7.473   5.028   9.594  0.0962  1.0288 -0.0502
23716SOL     OW75994   9.186   3.457   1.884 -0.0401 -0.5575 -0.1805
23716SOL    HW175995   9.273   3.492   1.867  0.1207 -1.7462 -1.8636
23716SOL    HW275996   9.202   3.369   1.917 -0.5835 -0.4827  0.2914
23717SOL     OW75997   8.585   1.996   0.993 -0.1938 -0.2649 -0.0534
23717SOL    HW175998   8.660   1.991   1.053  1.3732 -1.3804 -2.0032
23717SOL    HW275999   8.590   1.914   0.943 -2.0949  0.1527 -0.9599
23718SOL     OW76000   9.219   2.786   0.155 -0.2541  0.4462 -0.2222
23718SOL    HW176001   9.157   2.853   0.186 -0.7143  0.6179 -1.4784
23718SOL    HW276002   9.209   2.786   0.060 -0.6136 -1.7612 -0.2109
23719SOL     OW76003   8.854   3.094   2.136 -0.3199 -0.8473  0.0787
23719SOL    HW176004   8.761   3.083   2.156 -0.0920 -2.7025  0.1711
23719SOL    HW276005   8.891   3.006   2.144  1.8749  0.1956  2.1829
23720SOL     OW76006   9.174   4.551   1.897  0.0549  0.5478  0.1213
23720SOL    HW176007   9.162   4.471   1.846  3.3752  0.1876 -0.1888
23720SOL    HW276008   9.153   4.621   1.835 -0.4249  0.0151 -0.3340
23721SOL     OW76009   8.447   3.316   0.815  0.1378 -0.0812  0.0347
23721SOL    HW176010   8.452   3.386   0.880  0.6129 -0.5516  0.5113
23721SOL    HW276011   8.399   3.246   0.858 -0.0499 -0.1751 -0.3252
23722SOL     OW76012   5.560   2.961   1.086  0.5004  0.0627 -0.0914
23722SOL    HW176013   5.585   2.990   1.173  3.3987  0.9729 -1.1949
23722SOL    HW276014   5.617   2.887   1.068 -2.2045 -2.1238 -0.0355
23723SOL     OW76015   7.799   2.331   0.509  1.0782 -0.2156 -1.0991
23723SOL    HW176016   7.850   2.300   0.583  1.4944  1.4334 -0.6653
23723SOL    HW276017   7.862   2.376   0.453  0.8260 -1.7488 -2.6397
23724SOL     OW76018   8.445   1.844   2.373  0.2076 -0.0137 -0.6360
23724SOL    HW176019   8.396   1.853   2.292 -0.8469  1.2779  0.1298
23724SOL    HW276020   8.525   1.893   2.358 -0.5836  1.3589 -0.4279
23725SOL     OW76021   9.445   4.300   1.014  0.1199 -0.0367 -0.1008
23725SOL    HW176022   9.526   4.295   0.962  1.0407 -1.4526  1.4011
23725SOL    HW276023   9.461   4.371   1.076 -0.0930  0.2009 -0.3213
23726SOL     OW76024   9.548   2.293   1.606 -0.2641  0.1056  0.0771
23726SOL    HW176025   9.494   2.219   1.579  0.9999 -1.2139  1.1003
23726SOL    HW276026   9.542   2.355   1.533 -0.2779 -1.5711 -1.3704
23727SOL     OW76027   8.260   2.657   1.209 -0.2090 -0.6193 -0.1317
23727SOL    HW176028   8.224   2.736   1.168 -0.1453 -0.9791 -0.8786
23727SOL    HW276029   8.208   2.586   1.172  0.4702 -1.0298 -0.2880
23728SOL     OW76030   7.993   2.202   0.953 -1.0773 -0.0638  0.7959
23728SOL    HW176031   8.044   2.136   1.000  0.4102  0.0942 -0.5565
23728SOL    HW276032   7.958   2.156   0.877  0.6526  0.8976 -0.6007
23729SOL     OW76033   9.155   4.628   1.009  0.5637 -0.4503 -0.3142
23729SOL    HW176034   9.171   4.603   1.100 -0.5777  0.0019  0.0136
23729SOL    HW276035   9.104   4.555   0.973  2.3573 -1.3745 -1.0522
23730SOL     OW76036   0.010   2.653   9.848 -0.2635 -0.1849 -1.0118
23730SOL    HW176037   0.020   2.642   9.753 -0.2482  1.0953 -1.1695
23730SOL    HW276038  -0.042   2.733   9.857  1.3425  0.7764  0.0802
23731SOL     OW76039   0.274   0.827   1.610 -0.2028  0.3920  0.3744
23731SOL    HW176040   0.326   0.829   1.691  0.6138  0.7708 -0.1553
23731SOL    HW276041   0.270   0.734   1.587 -0.7413  0.2425  1.0369
23732SOL     OW76042   7.521   3.297   1.085 -0.5010  0.2337 -0.6101
23732SOL    HW176043   7.464   3.228   1.119  0.1355 -0.4908 -0.9702
23732SOL    HW276044   7.484   3.320   1.000 -1.6905  1.5491  0.2518
23733SOL     OW76045   8.158   3.010   9.497 -0.5130 -0.4116  0.3098
23733SOL    HW176046   8.246   3.021   9.531 -1.0553  2.6635  0.8556
23733SOL    HW276047   8.163   2.933   9.439  2.2928 -0.7392  0.9555
23734SOL     OW76048   9.102   4.373   9.087  0.1900  0.4208  0.3597
23734SOL    HW176049   9.044   4.337   9.019  1.8016  0.0692 -0.8508
23734SOL    HW276050   9.153   4.440   9.041  0.4691  0.9971  1.5144
23735SOL     OW76051   9.105   1.920   1.733  0.5380 -0.3284 -0.5141
23735SOL    HW176052   9.109   2.015   1.746 -0.3102 -0.2052 -1.0772
23735SOL    HW276053   9.071   1.885   1.815 -0.1280 -0.0401 -0.6634
23736SOL     OW76054   7.476   2.951   0.058 -0.3904  0.3336  0.5178
23736SOL    HW176055   7.398   2.997   0.027 -0.5668  1.5380  2.6562
23736SOL    HW276056   7.531   3.019   0.096  0.4010 -0.8826  1.5941
23737SOL     OW76057   0.173   1.925   1.806 -0.2760  0.5448 -0.0106
23737SOL    HW176058   0.118   1.863   1.854  1.6567  0.0143  1.5739
23737SOL    HW276059   0.139   2.011   1.830 -0.3344  0.2219  1.1091
23738SOL     OW76060   0.040   3.634   0.356  0.4519 -0.5135  0.0027
23738SOL    HW176061   0.001   3.689   0.424  0.2064 -0.4919 -0.1533
23738SOL    HW276062   0.007   3.671   0.274 -0.1417 -1.2046 -0.0816
23739SOL     OW76063   9.519   1.747   1.873 -0.0503  0.6766  0.2868
23739SOL    HW176064   9.517   1.657   1.840 -1.0312  0.5417  0.7325
23739SOL    HW276065   9.451   1.751   1.939  1.0251  1.3284  1.3742
23740SOL     OW76066   9.224   3.169   0.973 -0.6285 -0.0914 -0.8829
23740SOL    HW176067   9.280   3.239   0.940  0.4029 -0.9318 -0.9358
23740SOL    HW276068   9.267   3.088   0.945 -2.0552 -0.7575 -1.2346
23741SOL     OW76069   9.241   3.798   1.526 -0.6436  0.1871  0.2494
23741SOL    HW176070   9.161   3.803   1.473  0.8094  1.2739 -1.9428
23741SOL    HW276071   9.228   3.862   1.596 -1.7073  0.3410 -0.0823
23742SOL     OW76072   8.902   3.504   1.281  0.2480  0.2337 -0.0014
23742SOL    HW176073   8.868   3.592   1.267 -0.2950 -0.1453 -1.0869
23742SOL    HW276074   8.952   3.484   1.202 -1.4296 -1.2659 -0.7119
23743SOL     OW76075   7.501   1.825   9.200 -0.0591  0.4110  0.6353
23743SOL    HW176076   7.582   1.860   9.236  0.8005 -0.5264 -0.3354
23743SOL    HW276077   7.445   1.901   9.188  0.6556  1.0604  1.3772
23744SOL     OW76078   7.713   2.693   0.642  0.0595 -0.0979 -0.4622
23744SOL    HW176079   7.781   2.673   0.706 -0.5338  1.6072  0.7399
23744SOL    HW276080   7.637   2.642   0.672  0.2320 -0.4855 -0.6829
23745SOL     OW76081   8.513   2.851   1.530 -0.3083 -0.1584 -0.4337
23745SOL    HW176082   8.425   2.814   1.539 -0.4554 -0.2748 -2.2592
23745SOL    HW276083   8.501   2.928   1.474  0.7740 -0.2677 -0.8155
23746SOL     OW76084   8.887   2.828   8.909 -0.1230  0.4702 -0.0570
23746SOL    HW176085   8.816   2.767   8.925 -0.6173  1.0011 -0.1933
23746SOL    HW276086   8.852   2.888   8.843 -0.2301  1.8670  1.2345
23747SOL     OW76087   0.380   3.371   1.745 -0.0980 -0.9818 -0.0930
23747SOL    HW176088   0.408   3.280   1.737 -0.5846 -1.1351 -0.0840
23747SOL    HW276089   0.420   3.403   1.826  3.2629 -0.0172 -2.0420
23748SOL     OW76090   9.297   3.705   0.786 -0.4749 -0.5114 -0.1392
23748SOL    HW176091   9.261   3.618   0.765  0.4736 -0.5757 -1.5677
23748SOL    HW276092   9.350   3.691   0.865  0.6111 -1.4773 -1.0281
23749SOL     OW76093   8.256   1.929   9.891  0.0155  0.4588  0.1820
23749SOL    HW176094   8.318   1.960   9.825 -0.5327 -1.4189 -1.2506
23749SOL    HW276095   8.309   1.879   9.953  0.4282  1.6903  0.8461
23750SOL     OW76096   8.163   3.103   0.152 -0.6436  0.4357 -0.9131
23750SOL    HW176097   8.115   3.142   0.225  0.9885  0.8108 -0.0141
23750SOL    HW276098   8.201   3.178   0.106 -0.9435  0.1469 -1.6196
23751SOL     OW76099   6.118   5.252   1.489  0.2623  0.3595 -0.3856
23751SOL    HW176100   6.124   5.164   1.452  0.2463  0.0745  0.2715
23751SOL    HW276101   6.143   5.310   1.418 -0.3402 -0.1419 -1.0072
23752SOL     OW76102   8.364   3.446   1.862 -0.2129 -0.2804 -0.1904
23752SOL    HW176103   8.327   3.382   1.802 -0.0554  1.2551 -1.9573
23752SOL    HW276104   8.430   3.398   1.912  0.4808 -1.2765 -2.0609
23753SOL     OW76105   9.045   2.469   2.662 -0.0303 -0.0105  0.3583
23753SOL    HW176106   9.076   2.413   2.733  2.0238  0.7791  0.1010
23753SOL    HW276107   8.995   2.538   2.706 -0.3980 -0.6031  0.8763
23754SOL     OW76108   7.661   2.992   0.550 -0.3668  0.5809 -0.2917
23754SOL    HW176109   7.716   3.010   0.474  0.0937  0.3641 -0.0181
23754SOL    HW276110   7.681   2.902   0.574 -0.5321  0.6335  0.0635
23755SOL     OW76111   9.291   3.176   2.540  0.8117  0.3909  0.2563
23755SOL    HW176112   9.240   3.257   2.542  1.0128  0.5004  1.0644
23755SOL    HW276113   9.378   3.202   2.510  0.4397  0.2260 -0.9852
23756SOL     OW76114   6.602   4.247   1.719  0.1866 -0.0963  0.2438
23756SOL    HW176115   6.613   4.180   1.652 -0.7278 -1.2093  1.1821
23756SOL    HW276116   6.624   4.203   1.801 -1.7112  0.3410  1.0233
23757SOL     OW76117   8.011   1.516   0.260  0.3742  0.6335  0.1737
23757SOL    HW176118   7.985   1.459   0.333  0.6360  0.8537  0.4396
23757SOL    HW276119   8.002   1.461   0.182  1.7209 -0.1412  0.5425
23758SOL     OW76120   9.592   1.958   9.997 -0.1000  0.2489 -0.2665
23758SOL    HW176121   9.665   1.908  10.035 -0.5446  0.7442  1.2844
23758SOL    HW276122   9.541   1.893   9.950  0.9721 -0.2264 -0.7943
23759SOL     OW76123   8.565   4.033   0.735  0.2536 -0.2819 -0.0606
23759SOL    HW176124   8.613   3.962   0.776  0.9608  0.4203  0.3500
23759SOL    HW276125   8.552   4.006   0.644 -1.7888 -2.1020  0.7320
23760SOL     OW76126   8.292   2.668   9.595 -0.1206  0.3515 -0.1479
23760SOL    HW176127   8.224   2.679   9.661 -1.0088  2.0815 -1.3361
23760SOL    HW276128   8.357   2.735   9.615  0.4835 -0.2784  0.0362
23761SOL     OW76129   7.684   3.307   1.336 -0.1818 -0.0746  0.1119
23761SOL    HW176130   7.588   3.309   1.345 -0.1907  0.4851 -0.0940
23761SOL    HW276131   7.716   3.355   1.412 -0.1418  1.6166 -0.9503
23762SOL     OW76132   7.654   4.972   9.648  0.4769  0.0069 -0.4077
23762SOL    HW176133   7.710   5.006   9.578 -1.5675 -0.8422 -2.4892
23762SOL    HW276134   7.716   4.950   9.719  2.4811  1.6793 -1.5873
23763SOL     OW76135   8.202   2.164   0.735  0.1018 -0.0096 -0.1992
23763SOL    HW176136   8.142   2.237   0.750 -0.0171 -0.1428 -0.0266
23763SOL    HW276137   8.228   2.136   0.823 -0.4244 -0.6491 -0.2374
23764SOL     OW76138   0.376   2.144   1.740 -0.1204  0.1672 -0.9972
23764SOL    HW176139   0.379   2.141   1.644  1.8053  0.2355 -0.9641
23764SOL    HW276140   0.377   2.238   1.760  2.6680  0.1706 -0.8898
23765SOL     OW76141   7.824   2.221   0.228 -0.7934  0.2606  0.1804
23765SOL    HW176142   7.877   2.298   0.249 -1.3052  0.7732 -0.3910
23765SOL    HW276143   7.738   2.241   0.264 -0.8946 -0.1044  0.1436
23766SOL     OW76144   8.526   2.786   2.306  0.1166 -0.7891 -0.0677
23766SOL    HW176145   8.597   2.737   2.263  0.1936 -1.5183  0.8694
23766SOL    HW276146   8.454   2.781   2.243  1.7560  2.4425 -2.3243
23767SOL     OW76147   9.467   3.689   1.676 -0.3386 -0.2155  0.3660
23767SOL    HW176148   9.379   3.653   1.667 -0.4273  0.5911 -2.0677
23767SOL    HW276149   9.491   3.720   1.589  0.1224  4.8171  2.1292
23768SOL     OW76150   8.142   2.865   0.600 -0.1966  0.1043 -0.6675
23768SOL    HW176151   8.048   2.850   0.587 -0.0282  0.9251 -3.0751
23768SOL    HW276152   8.183   2.781   0.576 -0.4095 -0.8181  2.0761
23769SOL     OW76153   8.668   3.080   0.438 -0.5652  0.7390 -0.0327
23769SOL    HW176154   8.731   3.009   0.424 -1.3311  0.0287  0.1067
23769SOL    HW276155   8.583   3.036   0.445 -0.9114  1.5671  1.1516
23770SOL     OW76156   7.358   1.195   0.329 -0.6029 -1.4458 -0.0362
23770SOL    HW176157   7.323   1.206   0.241 -1.7105  0.0508  0.5776
23770SOL    HW276158   7.446   1.160   0.315  0.0177  0.7092 -1.8348
23771SOL     OW76159   8.935   2.549   9.393  0.0584 -0.7345 -0.1780
23771SOL    HW176160   8.943   2.488   9.467 -0.5917 -1.8144 -0.9759
23771SOL    HW276161   8.866   2.511   9.339  0.0243  0.4456 -0.9616
23772SOL     OW76162   8.882   2.286   0.607  0.5081  0.0847  0.7728
23772SOL    HW176163   8.880   2.360   0.667  0.4566  0.3201  0.4809
23772SOL    HW276164   8.829   2.219   0.650  1.1344 -0.0323  1.3659
23773SOL     OW76165   8.835   3.770   1.169  0.4114  0.1340 -0.0391
23773SOL    HW176166   8.756   3.814   1.137 -0.1649 -1.7821 -1.2919
23773SOL    HW276167   8.903   3.794   1.105  0.2372 -0.3177 -0.3948
23774SOL     OW76168   6.769   3.534   0.225 -0.0604 -0.5237  0.4393
23774SOL    HW176169   6.705   3.464   0.214  0.2862 -0.8170  0.2779
23774SOL    HW276170   6.802   3.522   0.314  0.1957 -0.7371  0.3184
23775SOL     OW76171   9.454   0.047   0.904  0.0287  0.0905  0.3268
23775SOL    HW176172   9.463   0.105   0.828  0.2333  0.7996  0.8900
23775SOL    HW276173   9.457   0.106   0.979 -0.0701 -0.6254  0.8912
23776SOL     OW76174   8.683   3.391   0.468 -0.7446 -0.2261 -0.3072
23776SOL    HW176175   8.674   3.324   0.536 -1.2321  0.6443  0.5046
23776SOL    HW276176   8.678   3.342   0.386 -2.3088 -1.0720  0.2532
23777SOL     OW76177   8.448   3.716   0.043 -0.2856  0.5491 -0.4990
23777SOL    HW176178   8.541   3.715   0.066 -0.2028 -0.0670 -0.8488
23777SOL    HW276179   8.420   3.805   0.064 -0.1208  0.1558  1.5916
23778SOL     OW76180   8.895   2.508   1.063  0.3307 -0.1109  0.5394
23778SOL    HW176181   8.906   2.565   1.139  2.5519 -0.1910  0.3286
23778SOL    HW276182   8.824   2.548   1.013  0.5804  1.4013  1.3600
23779SOL     OW76183   8.358   2.605   1.813  0.4440 -0.6117 -0.4553
23779SOL    HW176184   8.312   2.665   1.872  2.1046 -0.7615  1.0380
23779SOL    HW276185   8.343   2.642   1.726 -2.6504 -0.7856 -0.0762
23780SOL     OW76186   9.855   0.612   1.290  0.0184  0.5386 -1.1240
23780SOL    HW176187   9.789   0.557   1.333 -1.0431  1.8457 -1.0406
23780SOL    HW276188   9.934   0.601   1.343 -1.0296  1.4295  0.6441
23781SOL     OW76189   8.666   2.685   1.383 -0.1616  0.2535  0.6964
23781SOL    HW176190   8.623   2.698   1.298 -3.1629 -1.2281  1.9061
23781SOL    HW276191   8.614   2.738   1.443 -1.0903 -2.5764  2.4368
23782SOL     OW76192   9.040   3.039   0.242 -0.7089  0.4791 -0.5512
23782SOL    HW176193   9.011   3.026   0.332  0.5061  0.4521 -0.1613
23782SOL    HW276194   9.112   3.102   0.248 -0.5911  0.4503 -1.4994
23783SOL     OW76195   7.566   0.608   0.589 -0.3160 -0.1680 -0.2503
23783SOL    HW176196   7.527   0.564   0.664 -0.5070  1.7649  0.8099
23783SOL    HW276197   7.657   0.622   0.615 -0.0910 -0.5032 -0.8499
23784SOL     OW76198   8.010   1.323   0.480 -0.0763 -0.0323  0.1807
23784SOL    HW176199   7.933   1.268   0.464  1.1051 -1.1964 -1.8223
23784SOL    HW276200   7.975   1.405   0.516 -2.2661 -0.4256 -0.9808
23785SOL     OW76201   8.835   3.362   2.115  0.1586  0.1013  0.2600
23785SOL    HW176202   8.910   3.393   2.166  0.9977 -1.7261  0.2081
23785SOL    HW276203   8.836   3.267   2.128 -1.4057 -0.0716 -0.7628
23786SOL     OW76204   0.198   5.613   3.072 -0.5757  0.3004 -0.2338
23786SOL    HW176205   0.174   5.705   3.081  0.1771  0.4969 -0.1871
23786SOL    HW276206   0.257   5.610   2.997 -1.3541 -0.2918 -0.8204
23787SOL     OW76207   8.027   1.995   9.760 -0.0134 -0.4585  0.5340
23787SOL    HW176208   8.093   1.964   9.823  1.0983  0.5906 -0.1011
23787SOL    HW276209   7.969   2.052   9.811  1.0937  0.6714  0.5479
23788SOL     OW76210   8.814   3.277   1.089 -0.1186 -0.1889  0.2893
23788SOL    HW176211   8.845   3.197   1.045 -1.8252 -0.3209 -0.7258
23788SOL    HW276212   8.865   3.347   1.049 -1.4332 -0.3416 -1.7379
23789SOL     OW76213   9.254   3.203   0.301 -0.0028  0.1446 -0.1684
23789SOL    HW176214   9.319   3.139   0.328 -0.8813 -0.4360  0.6076
23789SOL    HW276215   9.244   3.261   0.376 -0.2765  0.3202 -0.3390
23790SOL     OW76216   8.462   2.923   0.422 -0.4073 -0.3157  0.0277
23790SOL    HW176217   8.371   2.920   0.391 -1.5420  3.3282  2.6236
23790SOL    HW276218   8.463   2.866   0.498 -0.9369  0.7646  0.8611
23791SOL     OW76219   7.540   2.288   0.316  0.4773  0.2413  0.5869
23791SOL    HW176220   7.555   2.212   0.260 -1.2379 -0.3640  0.9294
23791SOL    HW276221   7.514   2.358   0.256  2.4775  0.7057  0.2241
23792SOL     OW76222   9.425   2.556   1.808 -0.2644  0.8180  0.4035
23792SOL    HW176223   9.506   2.578   1.762  0.5420 -0.8658  0.9845
23792SOL    HW276224   9.442   2.470   1.847 -2.0660  0.7871  1.1655
23793SOL     OW76225   8.654   4.364   1.384 -0.1662 -0.2383 -0.1892
23793SOL    HW176226   8.726   4.425   1.368 -0.3130 -0.3788 -1.3798
23793SOL    HW276227   8.697   4.278   1.393 -0.1704 -0.2910 -0.6910
23794SOL     OW76228   8.051   3.452   0.152  0.0983 -0.4729  0.0586
23794SOL    HW176229   8.134   3.442   0.105  0.5766 -1.5312  1.0889
23794SOL    HW276230   8.069   3.416   0.239 -1.2374 -0.0363  0.5199
23795SOL     OW76231   7.870   1.954   0.292  0.1282 -0.1095  0.0189
23795SOL    HW176232   7.944   1.938   0.233  1.2945 -1.5621  1.8214
23795SOL    HW276233   7.874   2.048   0.310  2.7810 -0.4492  1.6032
23796SOL     OW76234   0.948   1.550   9.649 -0.1654  0.0339 -0.0966
23796SOL    HW176235   0.975   1.458   9.642 -1.3466 -0.2707 -0.9124
23796SOL    HW276236   0.896   1.554   9.729 -0.0961 -0.0014 -0.0497
23797SOL     OW76237   9.339   2.988   2.114 -0.6459  0.3338  0.4449
23797SOL    HW176238   9.335   2.898   2.080  0.3830 -0.1830  1.6733
23797SOL    HW276239   9.432   3.004   2.131 -0.8241  1.6250  0.2653
23798SOL     OW76240   8.426   2.494   2.147  0.5290 -0.7267 -0.2038
23798SOL    HW176241   8.520   2.489   2.166  0.8939  1.1480 -1.3838
23798SOL    HW276242   8.414   2.582   2.112 -1.4519 -1.4063 -1.2733
23799SOL     OW76243   8.621   1.122   0.547  0.2591  0.2607 -0.1994
23799SOL    HW176244   8.667   1.165   0.619  0.1644 -0.9027  0.5782
23799SOL    HW276245   8.614   1.030   0.574 -3.6734  0.5972  0.3472
23800SOL     OW76246   8.473   2.082   1.694 -0.3485 -0.2136 -0.0774
23800SOL    HW176247   8.452   2.037   1.613  0.5324  1.0233 -1.0157
23800SOL    HW276248   8.422   2.163   1.692 -1.2693 -0.7434  1.1865
23801SOL     OW76249   8.851   2.655   2.076 -0.3568  0.1471  0.2210
23801SOL    HW176250   8.924   2.703   2.115 -0.8302  0.5219  0.6493
23801SOL    HW276251   8.810   2.610   2.150 -1.1765  0.7574  0.1345
23802SOL     OW76252   7.728   3.987   0.480  0.0675 -0.2139 -0.2113
23802SOL    HW176253   7.820   4.002   0.458  0.2096  0.9123  1.0488
23802SOL    HW276254   7.729   3.904   0.528  0.4046 -0.2964 -0.3544
23803SOL     OW76255   8.132   2.619   1.458 -0.2640  0.2436  0.2483
23803SOL    HW176256   8.158   2.702   1.498 -0.9666  0.7842 -0.3988
23803SOL    HW276257   8.196   2.605   1.388  1.2577 -0.9482  1.8301
23804SOL     OW76258   8.025   1.024   1.284 -0.2571  0.0697 -0.5923
23804SOL    HW176259   8.046   1.053   1.373  0.8238  2.2390 -1.5125
23804SOL    HW276260   7.956   1.084   1.255 -0.5278 -0.5553 -1.2498
23805SOL     OW76261   7.558   4.483   9.711 -0.2266  0.1011  0.2400
23805SOL    HW176262   7.540   4.424   9.639  1.3318  0.3262 -0.3383
23805SOL    HW276263   7.530   4.435   9.789  0.0396 -0.9579 -0.3162
23806SOL     OW76264   8.205   2.674   0.877  0.0794 -0.2926  0.0754
23806SOL    HW176265   8.191   2.706   0.967  1.4606 -1.6515  0.7948
23806SOL    HW276266   8.250   2.746   0.833 -1.6148  0.8221  0.1418
23807SOL     OW76267   9.422   2.923   1.293 -0.1486  0.5431  0.7363
23807SOL    HW176268   9.365   2.902   1.220 -0.6189  1.4050  0.8499
23807SOL    HW276269   9.423   2.843   1.346  1.7065 -0.7430 -1.1642
23808SOL     OW76270   7.419   1.733   1.003 -0.1297  0.2054  0.0190
23808SOL    HW176271   7.446   1.643   1.022  0.6235  0.4375  0.0742
23808SOL    HW276272   7.420   1.738   0.907 -0.3327  0.1035  0.0125
23809SOL     OW76273   9.886   9.461   9.930 -0.3154 -0.7943 -0.1737
23809SOL    HW176274   9.867   9.396   9.863  1.6185  0.0069 -1.5491
23809SOL    HW276275   9.945   9.524   9.887  0.3595  0.1451  2.0341
23810SOL     OW76276   9.680   2.853   1.531  0.3749  0.2190  0.4162
23810SOL    HW176277   9.772   2.852   1.557 -0.0565 -0.0371  1.9683
23810SOL    HW276278   9.669   2.938   1.487  1.6598 -0.3110 -0.9913
23811SOL     OW76279   8.475   3.840   1.984 -0.2012  0.5199 -0.1467
23811SOL    HW176280   8.545   3.778   2.005 -0.9457  0.3398  1.9743
23811SOL    HW276281   8.395   3.787   1.983 -0.4240  0.8689 -1.6975
23812SOL     OW76282   9.405   3.914   2.655 -0.0861 -0.3917  0.0176
23812SOL    HW176283   9.411   3.871   2.570  0.9749 -0.7083  0.2481
23812SOL    HW276284   9.496   3.929   2.681 -0.4119  1.2320  0.3200
23813SOL     OW76285   8.793   1.791   1.976 -0.4102 -0.3070 -0.0787
23813SOL    HW176286   8.872   1.843   1.987  0.2800 -1.3610 -0.0232
23813SOL    HW276287   8.806   1.744   1.894 -1.5930  0.5874 -0.7996
23814SOL     OW76288   8.997   3.040   0.966  0.1096  0.0950 -0.6654
23814SOL    HW176289   9.077   3.091   0.960 -0.7017  1.4544 -0.2767
23814SOL    HW276290   9.018   2.970   1.028  1.2022  0.0172 -1.1141
23815SOL     OW76291   7.577   4.208   0.574 -0.2467  1.2021  0.5653
23815SOL    HW176292   7.489   4.177   0.593 -0.7617  2.5067  0.3761
23815SOL    HW276293   7.630   4.129   0.568 -1.3845  0.4166  0.7925
23816SOL     OW76294   6.888   2.531   0.633  0.1638 -0.0158  0.0067
23816SOL    HW176295   6.977   2.551   0.602  0.8031  0.0868  1.8349
23816SOL    HW276296   6.832   2.545   0.556  1.7217 -0.0476 -1.1581
23817SOL     OW76297   6.489   2.345   0.274 -0.0483 -0.8479  0.1120
23817SOL    HW176298   6.467   2.329   0.366  0.3130 -1.7779  0.0401
23817SOL    HW276299   6.512   2.438   0.271 -0.5592 -0.6903  0.8615
23818SOL     OW76300   9.532   2.184   3.750  0.1366  0.1281  0.1436
23818SOL    HW176301   9.484   2.123   3.807 -0.6990 -2.1982 -2.9376
23818SOL    HW276302   9.624   2.163   3.764 -0.0598 -0.3700  0.6882
23819SOL     OW76303   7.380   0.824   1.714 -0.7050  0.3512 -0.2904
23819SOL    HW176304   7.304   0.811   1.772  0.8340 -0.9443  1.5013
23819SOL    HW276305   7.417   0.908   1.741 -1.5550  1.0380 -1.2424
23820SOL     OW76306   7.657   5.295   9.585 -0.4999  0.1455  0.4432
23820SOL    HW176307   7.631   5.256   9.502  0.9955 -1.2732  0.6144
23820SOL    HW276308   7.614   5.381   9.586  0.5838  0.7744 -2.3978
23821SOL     OW76309   8.668   3.982   0.151 -0.0306 -0.4337 -0.1096
23821SOL    HW176310   8.678   3.890   0.124 -2.7003 -0.2434 -1.8950
23821SOL    HW276311   8.671   3.979   0.246  1.4697 -2.1596 -0.1667
23822SOL     OW76312   7.692   4.902   2.002  0.6040 -0.8555 -0.1879
23822SOL    HW176313   7.702   4.921   2.095  1.1741  0.4819 -0.5020
23822SOL    HW276314   7.725   4.813   1.991 -0.8826 -1.5953  1.1354
23823SOL     OW76315   7.103   0.677   0.780  0.1149  0.8886  0.1430
23823SOL    HW176316   7.011   0.670   0.806  0.5656  3.2262  2.5916
23823SOL    HW276317   7.129   0.765   0.808  3.3005  0.0098  0.1460
23824SOL     OW76318   6.561   2.760   1.780  0.4071  0.0114  0.4651
23824SOL    HW176319   6.555   2.697   1.709  1.0463  1.1832 -0.6570
23824SOL    HW276320   6.515   2.838   1.748  0.2404  0.3743  1.5359
23825SOL     OW76321   9.446   1.866   0.714  0.0046 -0.0133 -0.1739
23825SOL    HW176322   9.519   1.856   0.774  0.7250  2.1312 -0.6673
23825SOL    HW276323   9.387   1.928   0.757 -0.3418  0.1595 -0.8881
23826SOL     OW76324   8.650   2.591   0.539  0.4861 -0.4560  0.3297
23826SOL    HW176325   8.701   2.538   0.601  0.1301 -0.6123  0.4915
23826SOL    HW276326   8.635   2.673   0.586  0.3078 -0.5335  0.4087
23827SOL     OW76327   7.966   3.183   0.577  0.3947 -0.3570  0.2597
23827SOL    HW176328   7.965   3.114   0.644  0.4899 -1.2248 -0.6284
23827SOL    HW276329   7.937   3.139   0.497 -0.3365  0.8336 -0.1296
23828SOL     OW76330   7.216   3.425   1.598 -0.0290 -0.3060 -0.3218
23828SOL    HW176331   7.309   3.442   1.611  0.0749 -0.2308 -1.1840
23828SOL    HW276332   7.191   3.479   1.523 -1.0115  0.4958  0.5536
23829SOL     OW76333   8.306   1.364   1.581 -0.2263  0.2659  0.0148
23829SOL    HW176334   8.282   1.320   1.663  0.9611  0.4123  0.4433
23829SOL    HW276335   8.388   1.324   1.555 -0.6556  0.1350 -1.1859
23830SOL     OW76336   6.756   2.027   9.464 -0.1435 -0.4485  0.0296
23830SOL    HW176337   6.799   2.091   9.521  1.1274 -1.0100 -0.2859
23830SOL    HW276338   6.812   1.950   9.468  0.2425 -0.3352 -2.3784
23831SOL     OW76339   7.253   2.677   0.336 -0.2670  0.3360 -0.1330
23831SOL    HW176340   7.218   2.717   0.256 -0.1956  0.1765 -0.2430
23831SOL    HW276341   7.348   2.683   0.327 -0.2682  0.7804  0.1731
23832SOL     OW76342   7.928   4.280   0.147  0.2250  0.0032 -0.8012
23832SOL    HW176343   8.002   4.322   0.104 -0.4385  0.3880 -1.5706
23832SOL    HW276344   7.892   4.348   0.204  2.4549 -1.1537  2.1015
23833SOL     OW76345   8.033   2.398   0.664 -0.1638 -0.2722 -0.7473
23833SOL    HW176346   7.986   2.403   0.747 -0.2032 -0.8711 -0.7305
23833SOL    HW276347   8.049   2.489   0.639 -1.7667 -0.0392 -1.0006
23834SOL     OW76348   8.809   2.503   0.764  0.2762 -0.4414  0.2307
23834SOL    HW176349   8.865   2.580   0.753  0.3781 -0.6797 -0.9499
23834SOL    HW276350   8.731   2.537   0.807  0.4621  0.2643  0.0293
23835SOL     OW76351   0.492   4.607   2.588  0.4367 -0.0241 -0.0461
23835SOL    HW176352   0.561   4.606   2.523 -0.2813  0.8721 -0.8336
23835SOL    HW276353   0.427   4.670   2.555  0.1910  0.6670  1.6526
23836SOL     OW76354   9.339   4.764   9.308  0.0843  0.2081  0.4149
23836SOL    HW176355   9.310   4.829   9.244 -1.3165  0.0350  0.8582
23836SOL    HW276356   9.287   4.782   9.386  0.9032 -0.3677  1.1018
23837SOL     OW76357   7.875   2.906   1.419 -0.0192  0.5475 -0.9338
23837SOL    HW176358   7.840   2.847   1.486 -0.9738  2.3141  0.1663
23837SOL    HW276359   7.806   2.911   1.353 -1.8361  3.8200  1.1051
23838SOL     OW76360   7.777   4.779   1.507 -0.3483  0.0354  0.5152
23838SOL    HW176361   7.832   4.773   1.585  2.6763 -3.0680 -1.7280
23838SOL    HW276362   7.695   4.736   1.533  0.5545 -0.8156  2.0551
23839SOL     OW76363   7.808   1.904   9.911 -0.6455 -0.4579 -0.7779
23839SOL    HW176364   7.851   1.988   9.928  0.0249 -0.7806 -0.8559
23839SOL    HW276365   7.824   1.886   9.819 -0.5659 -0.7968 -0.6990
23840SOL     OW76366   8.418   1.924   0.685  0.6797 -0.0963 -0.0947
23840SOL    HW176367   8.362   1.866   0.736 -0.2222 -0.1910 -1.1945
23840SOL    HW276368   8.482   1.865   0.644  0.1331 -0.2574 -0.7273
23841SOL     OW76369   7.693   3.743   0.713 -0.2437 -0.2906  0.1002
23841SOL    HW176370   7.619   3.784   0.757 -1.2611  0.0404 -1.8866
23841SOL    HW276371   7.657   3.664   0.672  0.7543 -0.7757  0.1180
23842SOL     OW76372   9.341   2.177   0.905 -0.0656  0.3954  0.7989
23842SOL    HW176373   9.421   2.160   0.955 -0.3181 -0.8578  0.7956
23842SOL    HW276374   9.352   2.266   0.870  1.2830  0.2608  0.8737
23843SOL     OW76375   7.831   3.075   0.334 -0.0006  0.2525  0.1874
23843SOL    HW176376   7.874   3.001   0.290  1.4778  0.3479  1.4210
23843SOL    HW276377   7.768   3.108   0.271 -0.5473 -1.9589 -0.4574
23844SOL     OW76378   8.186   2.917   2.496 -0.1617  0.2482  0.2445
23844SOL    HW176379   8.280   2.932   2.504 -0.4082  2.7065 -1.0439
23844SOL    HW276380   8.179   2.830   2.456  1.5897  0.4955 -0.6576
23845SOL     OW76381   0.448   2.239   2.144  0.5184 -0.7625  0.0105
23845SOL    HW176382   0.537   2.205   2.144  0.7263 -0.2318 -0.6482
23845SOL    HW276383   0.393   2.163   2.127  0.9648 -0.8404 -1.1911
23846SOL     OW76384   6.612   2.877   0.881  0.3322 -0.5768  0.0882
23846SOL    HW176385   6.650   2.886   0.793  0.1781 -1.6871 -0.1006
23846SOL    HW276386   6.528   2.833   0.866 -0.3240  0.4722  0.6578
23847SOL     OW76387   9.016   2.255   1.052  0.0012  0.0257  0.2118
23847SOL    HW176388   9.075   2.262   0.977 -0.0590 -0.0554  0.1566
23847SOL    HW276389   8.989   2.345   1.070 -1.3264 -0.1292 -0.9405
23848SOL     OW76390   9.220   0.973   0.257  0.7769  0.4778  0.2098
23848SOL    HW176391   9.184   1.020   0.332 -0.4017  0.1196 -0.1264
23848SOL    HW276392   9.145   0.932   0.216  1.6249 -0.5952 -0.2890
23849SOL     OW76393   8.595   3.212   2.732  0.5159  0.0986 -0.2743
23849SOL    HW176394   8.678   3.166   2.719  0.0599 -1.1229  0.9899
23849SOL    HW276395   8.613   3.274   2.803  0.6869  0.7546 -0.8832
23850SOL     OW76396   0.358   3.017   2.527  0.3895  0.4993 -0.0790
23850SOL    HW176397   0.382   2.994   2.616  1.2785 -0.2589 -0.4965
23850SOL    HW276398   0.406   2.954   2.472 -0.8460  0.3781 -1.0444
23851SOL     OW76399   8.580   2.474   0.048  0.2686 -0.2741  0.4010
23851SOL    HW176400   8.618   2.550   0.004  0.7131 -0.0066  1.2378
23851SOL    HW276401   8.509   2.447  -0.010  0.4889  0.4114 -0.2063
23852SOL     OW76402   0.363   2.594   2.206  0.2452 -0.2883  0.7749
23852SOL    HW176403   0.383   2.675   2.253 -2.2099  0.5055  0.5043
23852SOL    HW276404   0.350   2.622   2.115  0.0030 -1.0755  0.5620
23853SOL     OW76405   7.926   2.643   0.810  0.0239  0.2166  0.5256
23853SOL    HW176406   8.012   2.671   0.840 -0.7509  1.5842  1.5595
23853SOL    HW276407   7.905   2.566   0.864  0.4729  0.0499  0.4612
23854SOL     OW76408   8.444   1.752   1.018 -0.0130 -0.2156  0.2299
23854SOL    HW176409   8.378   1.762   0.950  0.0466 -1.0135  0.0543
23854SOL    HW276410   8.394   1.735   1.098 -0.0474 -0.1364  0.2251
23855SOL     OW76411   8.547   2.224   2.388 -0.1470  0.6121 -0.0485
23855SOL    HW176412   8.544   2.203   2.482 -1.1110 -0.6029 -0.3225
23855SOL    HW276413   8.630   2.188   2.358  0.2197  1.1137  0.3740
23856SOL     OW76414   7.599   2.687   1.219  0.2045  0.3294 -0.2516
23856SOL    HW176415   7.533   2.731   1.272 -1.9760 -0.4798 -2.2110
23856SOL    HW276416   7.623   2.752   1.152 -0.2910 -0.1271 -0.8873
23857SOL     OW76417   8.377   3.214   9.232  0.3780 -0.3513 -0.2403
23857SOL    HW176418   8.416   3.299   9.214  1.1500 -0.9933 -1.6791
23857SOL    HW276419   8.451   3.155   9.245 -0.1413 -0.8810  0.3934
23858SOL     OW76420   8.528   3.209   1.599 -0.3864 -0.3318  0.3668
23858SOL    HW176421   8.506   3.159   1.520 -2.5286  0.6072  0.3246
23858SOL    HW276422   8.622   3.223   1.594 -0.1770 -2.0659 -0.9624
23859SOL     OW76423   7.150   2.529   0.559  0.1631 -0.2309 -0.5328
23859SOL    HW176424   7.158   2.439   0.528 -0.3797 -0.2792 -0.5359
23859SOL    HW276425   7.181   2.583   0.486  0.7962 -0.4244 -0.4128
23860SOL     OW76426   8.833   2.890   0.117  0.3622 -0.0742 -0.0742
23860SOL    HW176427   8.778   2.899   0.195  1.0025  1.8945  0.1890
23860SOL    HW276428   8.920   2.918   0.146  1.2982 -2.1058 -0.7611
23861SOL     OW76429   7.953   3.359   1.768  0.0234  0.4033 -0.3708
23861SOL    HW176430   7.930   3.452   1.770 -3.9156 -0.4755 -0.3561
23861SOL    HW276431   7.916   3.324   1.849  1.8666 -1.1343 -0.1662
23862SOL     OW76432   9.940   1.023   2.025  0.3230  0.0866 -0.3395
23862SOL    HW176433   9.991   1.078   1.967  1.3120 -0.0838  0.3614
23862SOL    HW276434   9.964   0.933   2.002 -0.0717 -0.0126 -0.3796
23863SOL     OW76435   7.332   3.737   1.995 -0.4122  0.9669  0.3828
23863SOL    HW176436   7.394   3.749   1.924 -1.2538 -1.1663 -0.7602
23863SOL    HW276437   7.261   3.685   1.957 -0.7754 -0.4287  2.8054
23864SOL     OW76438   9.645   3.747   2.899  0.0261 -0.3143  0.3905
23864SOL    HW176439   9.718   3.782   2.950  1.4859 -0.5932 -1.4600
23864SOL    HW276440   9.640   3.804   2.822 -1.9834 -0.0450  0.7061
23865SOL     OW76441   8.393   2.457   0.691 -0.6984 -0.0693  0.2550
23865SOL    HW176442   8.459   2.450   0.759  0.3914  2.0274 -0.5588
23865SOL    HW276443   8.356   2.545   0.702 -1.8174 -0.4148 -0.6639
23866SOL     OW76444   6.947   1.474   1.384 -0.3794  0.1085 -0.0310
23866SOL    HW176445   6.984   1.461   1.471 -1.7895 -1.5177  0.3563
23866SOL    HW276446   7.021   1.462   1.325  0.1986 -0.7666  0.8381
23867SOL     OW76447   8.130   0.818   0.197 -0.0151  0.5655  0.9930
23867SOL    HW176448   8.052   0.814   0.252 -0.3437 -0.5060  0.4618
23867SOL    HW276449   8.137   0.910   0.171 -0.5608  0.8427  1.8020
23868SOL     OW76450   9.992   2.846   1.490  0.1113  1.1282 -0.0562
23868SOL    HW176451  10.025   2.856   1.401 -0.9448  0.2784 -0.5681
23868SOL    HW276452   9.970   2.753   1.497  0.5995  1.0941  1.2452
23869SOL     OW76453   9.660   3.345   1.260  0.1536 -0.4442 -0.0856
23869SOL    HW176454   9.752   3.338   1.234  0.1309  1.0908 -0.5901
23869SOL    HW276455   9.657   3.419   1.320 -1.0229  0.5359 -1.3169
23870SOL     OW76456   9.116   3.695   1.129 -0.3446 -0.0726  0.4796
23870SOL    HW176457   9.075   3.616   1.092  0.6605 -0.4756  0.2019
23870SOL    HW276458   9.085   3.766   1.074 -0.6695 -0.3671  0.2750
23871SOL     OW76459   9.425   3.432   1.107  0.2691  0.6602 -0.0790
23871SOL    HW176460   9.487   3.382   1.160 -0.7061  0.6514  1.0636
23871SOL    HW276461   9.353   3.453   1.166 -0.1460  1.9333 -1.0149
23872SOL     OW76462   7.329   3.234   9.111 -0.5963  0.4485 -0.2458
23872SOL    HW176463   7.259   3.295   9.132 -0.3377  1.1614 -1.4431
23872SOL    HW276464   7.320   3.163   9.176 -1.6190  1.1630  0.3958
23873SOL     OW76465   8.172   3.392   2.110 -0.3806  0.0141 -0.7034
23873SOL    HW176466   8.081   3.403   2.081 -0.6528  2.5945  0.9706
23873SOL    HW276467   8.223   3.439   2.044 -0.4644  0.4153 -0.4866
23874SOL     OW76468   7.410   3.116   0.319 -0.6461  0.0398 -0.0109
23874SOL    HW176469   7.390   3.205   0.291  1.8935  0.0297 -1.9859
23874SOL    HW276470   7.485   3.090   0.266 -0.9505 -3.0607  0.9780
23875SOL     OW76471   6.473   3.263   1.543 -0.0449  0.1065 -0.1981
23875SOL    HW176472   6.495   3.240   1.452  0.2665  2.7798 -0.8390
23875SOL    HW276473   6.529   3.338   1.563 -0.0626 -0.4959  2.2594
23876SOL     OW76474   9.560   2.568   0.323  0.7092  0.0034  0.2252
23876SOL    HW176475   9.467   2.555   0.307  0.7718 -0.8207  0.5167
23876SOL    HW276476   9.566   2.659   0.353  0.0123  0.0911  0.1110
23877SOL     OW76477   8.443   2.533   0.322  0.2903  0.3149 -0.1582
23877SOL    HW176478   8.478   2.478   0.251  1.1474 -2.0487  2.0015
23877SOL    HW276479   8.521   2.576   0.358 -0.4218  3.3414 -2.0715
23878SOL     OW76480   8.691   4.119   2.005  0.0740 -0.3640 -0.4575
23878SOL    HW176481   8.711   4.109   2.098  0.7740  0.1495 -0.5486
23878SOL    HW276482   8.653   4.207   1.999 -1.1246 -0.8732 -0.4696
23879SOL     OW76483   8.088   3.071   2.725  0.1184 -0.4911  0.4219
23879SOL    HW176484   8.168   3.122   2.734 -1.2579  2.2183 -1.6724
23879SOL    HW276485   8.105   3.012   2.651 -0.0462  0.5979 -0.4981
23880SOL     OW76486   7.895   2.702   1.120 -0.1807 -0.6680 -0.2833
23880SOL    HW176487   7.973   2.756   1.133 -1.3137  0.7151  0.9685
23880SOL    HW276488   7.834   2.759   1.074 -0.9575 -1.3156 -0.0610
23881SOL     OW76489   9.111   0.328   9.714 -0.2375 -0.0152  0.0723
23881SOL    HW176490   9.072   0.395   9.770 -0.4666 -0.5547  0.5570
23881SOL    HW276491   9.133   0.256   9.774 -1.5700 -1.0879 -0.7045
23882SOL     OW76492   7.954   1.626   0.895  0.2158 -0.2755 -0.3102
23882SOL    HW176493   8.014   1.695   0.867 -0.0201  0.3833  0.7398
23882SOL    HW276494   7.930   1.651   0.985 -2.3345 -0.0182 -1.0193
23883SOL     OW76495   8.337   2.676   0.072  0.0725  0.9919 -0.3132
23883SOL    HW176496   8.385   2.679  -0.011 -1.1448  1.5810 -1.0150
23883SOL    HW276497   8.291   2.592   0.070  0.0849  0.9833 -0.2185
23884SOL     OW76498   8.005   2.680   1.740 -1.0887 -0.0525  0.0509
23884SOL    HW176499   8.056   2.662   1.661 -1.3717  0.4080 -0.2331
23884SOL    HW276500   8.071   2.707   1.805 -1.0796  1.6574 -0.6425
23885SOL     OW76501   8.344   2.498   8.687 -0.6829 -0.5843 -0.4801
23885SOL    HW176502   8.307   2.422   8.641 -1.6744 -1.0523  1.0696
23885SOL    HW276503   8.318   2.486   8.778  3.0260 -0.7380  0.6423
23886SOL     OW76504   8.789   2.850   0.408  0.7314 -0.6563 -0.9732
23886SOL    HW176505   8.858   2.787   0.430 -0.0306 -1.4001 -0.6993
23886SOL    HW276506   8.721   2.797   0.367  1.1818  0.3799 -3.1292
23887SOL     OW76507   8.620   2.803   0.685  0.6699  0.4771 -0.6036
23887SOL    HW176508   8.573   2.854   0.752  0.5006  1.9346 -1.8000
23887SOL    HW276509   8.712   2.827   0.697  0.9091 -1.0035  0.5744
23888SOL     OW76510   7.162   3.007   0.416  0.8106  0.8550  0.6923
23888SOL    HW176511   7.114   2.962   0.346  2.7820 -0.7727  0.3340
23888SOL    HW276512   7.249   3.022   0.380  1.2699  1.7166  2.1215
23889SOL     OW76513   8.478   4.772   0.923  0.5077  0.0987 -0.5878
23889SOL    HW176514   8.473   4.697   0.864  2.0133  0.4751 -1.2399
23889SOL    HW276515   8.565   4.766   0.963  1.0537  2.0064 -1.4049
23890SOL     OW76516   9.327   1.836   1.061  0.0925 -0.6439 -0.2915
23890SOL    HW176517   9.290   1.870   0.979 -0.3697 -0.6062 -0.0661
23890SOL    HW276518   9.276   1.878   1.130  0.3822 -0.7958  0.0126
23891SOL     OW76519   8.460   1.040   3.264  0.3125  0.3929 -0.9689
23891SOL    HW176520   8.380   1.049   3.316  0.6795  0.9976 -0.4991
23891SOL    HW276521   8.503   0.962   3.299 -0.4099 -0.3422 -1.6934
23892SOL     OW76522   7.309   2.187   3.618 -0.7507  0.6990 -0.3230
23892SOL    HW176523   7.387   2.233   3.587  0.0008 -0.0357  0.4620
23892SOL    HW276524   7.303   2.110   3.561 -0.3824  0.2784  0.2069
23893SOL     OW76525   9.307   4.316   2.532  0.2081 -0.1549 -0.2738
23893SOL    HW176526   9.401   4.331   2.523 -0.0649  2.0787  0.2661
23893SOL    HW276527   9.273   4.325   2.443  0.7538 -3.3063 -0.8803
23894SOL     OW76528   9.111   3.125   3.170 -0.2344  0.6864  0.2559
23894SOL    HW176529   9.123   3.153   3.261  0.9183  1.3207 -0.0760
23894SOL    HW276530   9.017   3.123   3.157 -0.3921  1.2035  1.2890
23895SOL     OW76531   9.525   2.965   2.995  1.2208  0.3492  0.0443
23895SOL    HW176532   9.459   2.895   2.984  1.4919  0.3294 -1.5571
23895SOL    HW276533   9.479   3.033   3.043 -0.6699  1.2137 -2.8521
23896SOL     OW76534   8.128   1.753   2.857  0.1467  0.1238 -0.7196
23896SOL    HW176535   8.201   1.735   2.799  0.2265 -1.1047 -0.2492
23896SOL    HW276536   8.053   1.768   2.799  0.5529  0.4434 -1.1664
23897SOL     OW76537   7.795   2.708   4.696 -0.1394 -0.4413  0.2653
23897SOL    HW176538   7.830   2.623   4.722 -0.1524 -0.4050  0.4034
23897SOL    HW276539   7.709   2.713   4.737 -1.5590 -1.7560 -2.4952
23898SOL     OW76540   9.194   3.638   2.478 -0.2382 -0.5488 -0.2543
23898SOL    HW176541   9.178   3.571   2.544 -0.7515 -0.1098  0.0700
23898SOL    HW276542   9.290   3.647   2.477 -0.2767  0.2262  1.2312
23899SOL     OW76543   0.269   4.158   3.357  0.3949  0.3155  0.6943
23899SOL    HW176544   0.193   4.182   3.411 -0.8195 -4.5242  1.3740
23899SOL    HW276545   0.344   4.173   3.414 -0.3463  1.6805  1.3329
23900SOL     OW76546   8.497   3.743   3.976  0.0337 -0.0700  0.0449
23900SOL    HW176547   8.451   3.766   3.895 -1.0408 -0.2132  0.6006
23900SOL    HW276548   8.554   3.670   3.952 -1.0857 -0.8285 -0.3460
23901SOL     OW76549   9.448   2.820   3.842 -0.0695 -0.4413  0.0715
23901SOL    HW176550   9.479   2.895   3.892 -0.2118 -0.2710 -0.0991
23901SOL    HW276551   9.424   2.855   3.756  1.3293 -0.9211 -0.5482
23902SOL     OW76552   8.825   2.534   2.938 -0.0768  0.1179 -0.6338
23902SOL    HW176553   8.897   2.593   2.962  0.1799  0.3239 -1.8971
23902SOL    HW276554   8.748   2.573   2.980  0.6546 -0.5476  1.4106
23903SOL     OW76555   7.691   2.700   2.448 -0.3903  0.1490  0.2330
23903SOL    HW176556   7.692   2.630   2.383  0.6201  0.0287  0.3762
23903SOL    HW276557   7.728   2.660   2.527 -2.0522  0.1447  1.0546
23904SOL     OW76558   9.192   2.747   3.927 -0.3006  0.3174  0.2605
23904SOL    HW176559   9.247   2.813   3.884 -1.0597  0.7900 -0.0079
23904SOL    HW276560   9.192   2.771   4.019  1.0386 -0.4838  0.4788
23905SOL     OW76561   7.870   3.719   3.877  0.1368 -0.1191 -0.4161
23905SOL    HW176562   7.891   3.764   3.795  1.8236  1.1378  0.6578
23905SOL    HW276563   7.911   3.632   3.867  0.0174 -0.1054 -1.0518
23906SOL     OW76564   8.361   3.868   3.761  0.6561 -0.1102 -0.0205
23906SOL    HW176565   8.310   3.940   3.799  1.3698  0.0429  0.6666
23906SOL    HW276566   8.310   3.840   3.685  1.6657  2.8431 -1.8734
23907SOL     OW76567   7.452   4.417   2.077 -0.2799 -0.2184 -0.0957
23907SOL    HW176568   7.483   4.474   2.148 -1.5740 -0.2308  0.5066
23907SOL    HW276569   7.516   4.428   2.007  0.9174 -0.0497  1.0039
23908SOL     OW76570   8.962   1.281   3.097 -0.0050  0.5346 -0.9084
23908SOL    HW176571   9.030   1.310   3.158  0.2583  0.6111 -1.2406
23908SOL    HW276572   8.962   1.186   3.104  0.2665  0.5239 -1.0500
23909SOL     OW76573   7.257   2.024   1.645  0.4081 -0.0485  0.4040
23909SOL    HW176574   7.193   1.957   1.669  0.2473  0.5998  1.8156
23909SOL    HW276575   7.260   2.020   1.549 -1.9503  0.0781  0.2784
23910SOL     OW76576   9.346   3.714   2.951  0.5588 -0.3520  0.3742
23910SOL    HW176577   9.432   3.744   2.920  0.3877  0.3750  0.5870
23910SOL    HW276578   9.285   3.744   2.884  0.1105  1.7572  1.6693
23911SOL     OW76579   6.432   4.379   3.609 -0.1523 -0.9447 -0.1737
23911SOL    HW176580   6.392   4.318   3.671 -2.8447  0.6050 -0.3014
23911SOL    HW276581   6.481   4.441   3.664  0.3313 -1.5954  0.1383
23912SOL     OW76582   0.033   1.865   1.564  0.5990  0.0405  0.2285
23912SOL    HW176583  -0.004   1.779   1.583 -0.5102  0.2316 -0.9997
23912SOL    HW276584   0.083   1.888   1.643 -1.2235 -0.5936  1.5948
23913SOL     OW76585   7.873   4.450   2.311 -0.1770  0.5706 -0.3727
23913SOL    HW176586   7.965   4.447   2.337 -0.2492  1.3477  0.0089
23913SOL    HW276587   7.873   4.430   2.218  0.3877  0.6334 -0.3869
23914SOL     OW76588   9.286   2.683   3.622  0.3421  0.5747 -0.2496
23914SOL    HW176589   9.292   2.778   3.615 -0.9787  0.6138 -1.1079
23914SOL    HW276590   9.238   2.657   3.543  2.1962 -0.9642 -0.8926
23915SOL     OW76591   9.442   2.020   3.967 -0.0146  0.6219 -0.0356
23915SOL    HW176592   9.511   2.046   4.029 -0.0633 -1.7700  1.0452
23915SOL    HW276593   9.479   1.945   3.920 -0.9688  0.8322 -1.1424
23916SOL     OW76594   9.034   1.141   2.417 -0.3294 -0.3406 -0.5257
23916SOL    HW176595   8.946   1.172   2.434 -0.5968 -0.9063 -0.8769
23916SOL    HW276596   9.077   1.141   2.503 -1.9503 -4.0487  0.3813
23917SOL     OW76597   5.740   3.854   3.275 -0.0374  0.3302 -0.1724
23917SOL    HW176598   5.809   3.812   3.327  0.1134  1.9443  0.9647
23917SOL    HW276599   5.708   3.926   3.330 -2.1965  0.0091 -0.9540
23918SOL     OW76600   8.752   3.535   2.363 -0.6581  0.0548 -0.3422
23918SOL    HW176601   8.790   3.595   2.428  0.9611 -1.3817  0.0783
23918SOL    HW276602   8.668   3.574   2.341  0.3151  2.4324 -0.0092
23919SOL     OW76603   8.529   1.906   3.980 -0.0269 -0.3518 -0.0533
23919SOL    HW176604   8.553   1.994   4.006 -1.5523  0.9437 -2.7264
23919SOL    HW276605   8.556   1.900   3.888  1.2452 -3.1405  0.4481
23920SOL     OW76606   8.811   2.680   2.372 -0.4155 -1.3417 -0.0309
23920SOL    HW176607   8.800   2.742   2.444 -1.3598  1.7469 -2.7508
23920SOL    HW276608   8.762   2.602   2.400 -1.8626  0.2662  2.0725
23921SOL     OW76609   8.005   4.502   0.661  0.7209 -0.0764  0.1797
23921SOL    HW176610   7.914   4.478   0.644  0.4424  1.7693 -1.1010
23921SOL    HW276611   8.006   4.531   0.752  0.8130 -3.5759  1.3519
23922SOL     OW76612   7.954   3.184   3.158 -0.1649 -0.6534 -0.1155
23922SOL    HW176613   7.930   3.162   3.068  0.6401 -2.0828 -0.0040
23922SOL    HW276614   8.029   3.244   3.149  0.2962 -1.2629 -0.4040
23923SOL     OW76615   8.174   2.491   2.045 -0.4245  0.3924  0.4707
23923SOL    HW176616   8.163   2.580   2.011  0.8289  0.4613  0.2424
23923SOL    HW276617   8.265   2.487   2.074 -0.4192 -0.8830  0.2998
23924SOL     OW76618   8.134   3.646   3.071  1.1308 -0.8144  0.1283
23924SOL    HW176619   8.091   3.569   3.033 -2.3655  0.5937  1.0132
23924SOL    HW276620   8.193   3.677   3.002 -0.9327 -1.5547 -2.0623
23925SOL     OW76621   8.435   3.690   2.642  0.2793 -0.2153  0.7290
23925SOL    HW176622   8.530   3.691   2.626  0.5628 -1.0660  2.2845
23925SOL    HW276623   8.425   3.734   2.727 -0.6470 -0.7706  0.9084
23926SOL     OW76624   8.829   3.280   4.359 -0.0993 -0.3570 -0.0066
23926SOL    HW176625   8.844   3.281   4.454 -0.4556  1.2053  0.0573
23926SOL    HW276626   8.748   3.230   4.348 -0.4402  0.0473  0.5965
23927SOL     OW76627   8.442   1.680   3.724 -0.0945  0.1829 -0.1258
23927SOL    HW176628   8.448   1.674   3.820 -0.1756  0.2482 -0.1162
23927SOL    HW276629   8.458   1.772   3.705  0.4030  0.0787 -0.2122
23928SOL     OW76630   8.402   2.276   1.387  0.1372  0.0079  0.3138
23928SOL    HW176631   8.452   2.257   1.308 -0.5484 -2.1192  0.3560
23928SOL    HW276632   8.465   2.316   1.447  1.4394 -1.2983 -0.1504
23929SOL     OW76633   7.687   2.411   2.402  0.5397 -0.2583  0.2505
23929SOL    HW176634   7.632   2.356   2.347 -0.4507  0.3209  0.6478
23929SOL    HW276635   7.722   2.351   2.468  0.9012 -0.7510 -0.3810
23930SOL     OW76636   6.697   4.126   3.744  0.0216  0.4571  0.0612
23930SOL    HW176637   6.726   4.192   3.806 -0.1970 -0.5260  1.2127
23930SOL    HW276638   6.612   4.097   3.776  0.8558 -1.5903  0.5205
23931SOL     OW76639   9.641   0.702   3.194  0.0661  0.0485  0.0638
23931SOL    HW176640   9.550   0.676   3.175 -0.3924  0.0946  2.1441
23931SOL    HW276641   9.692   0.624   3.173 -0.6714 -0.6244  0.7067
23932SOL     OW76642   9.400   3.684   3.779 -0.3408 -0.1684 -0.9755
23932SOL    HW176643   9.474   3.745   3.782  1.2655 -2.0829 -0.5413
23932SOL    HW276644   9.357   3.702   3.695 -1.1279  2.9051  0.0201
23933SOL     OW76645   8.500   4.245   3.247 -0.0804 -0.5457  0.5461
23933SOL    HW176646   8.524   4.167   3.296  1.1718 -1.1145 -0.9445
23933SOL    HW276647   8.412   4.226   3.214  0.2077 -1.3036  0.2148
23934SOL     OW76648   6.781   2.769   3.273  0.1707  0.4117  0.2398
23934SOL    HW176649   6.734   2.686   3.282  0.4391  0.0558 -1.5840
23934SOL    HW276650   6.730   2.819   3.209  0.9304  1.0081  0.0920
23935SOL     OW76651   8.733   2.044   2.908  0.7470 -0.3327  0.4411
23935SOL    HW176652   8.813   2.031   2.959  0.8841  0.2161  0.3714
23935SOL    HW276653   8.762   2.036   2.817  0.7353 -0.0554  0.4138
23936SOL     OW76654   5.837   2.793   2.934  0.2871 -0.3496  0.0992
23936SOL    HW176655   5.827   2.817   2.842  1.9053  2.5424  0.6401
23936SOL    HW276656   5.819   2.873   2.983  0.1656 -1.6647  2.2792
23937SOL     OW76657   9.604   2.540   3.760 -0.0089 -0.4299 -0.0248
23937SOL    HW176658   9.637   2.564   3.847 -0.8084  0.8899 -0.0820
23937SOL    HW276659   9.677   2.492   3.720  0.4284 -0.9009  1.3037
23938SOL     OW76660   9.582   1.802   5.012 -0.0739 -0.4039  0.2596
23938SOL    HW176661   9.505   1.857   4.998  1.5400  2.0558  0.7083
23938SOL    HW276662   9.631   1.807   4.930  0.4430 -0.5856  0.5525
23939SOL     OW76663   9.093   1.639   0.970  0.0716  0.7089  0.7453
23939SOL    HW176664   9.100   1.645   0.874 -0.6489 -1.1511  0.5602
23939SOL    HW276665   9.183   1.644   1.001  0.4214 -0.1477 -0.1259
23940SOL     OW76666   9.319   1.526   3.455  0.4128 -0.1598  0.0962
23940SOL    HW176667   9.398   1.540   3.402  0.8094 -0.4269  0.6082
23940SOL    HW276668   9.304   1.432   3.450  1.2760 -0.3905  1.6076
23941SOL     OW76669   7.082   2.842   3.883 -0.3505 -0.3194 -0.2107
23941SOL    HW176670   7.144   2.772   3.861 -0.1460 -0.3666  0.5160
23941SOL    HW276671   6.997   2.798   3.885 -0.7011  0.1031 -3.1255
23942SOL     OW76672   8.011   4.144   2.049 -0.1666 -0.2755  0.4894
23942SOL    HW176673   8.042   4.056   2.026  0.5410 -0.2477  1.2839
23942SOL    HW276674   8.073   4.174   2.116  0.2665  1.2977 -0.5901
23943SOL     OW76675   7.919   2.630   3.587  0.1860  0.3614 -0.2933
23943SOL    HW176676   7.885   2.602   3.502 -0.5542  2.0713 -0.5717
23943SOL    HW276677   8.011   2.601   3.587  0.1333  0.1935 -1.5852
23944SOL     OW76678   9.039   3.018   1.843 -0.1169  0.0491 -0.0167
23944SOL    HW176679   9.062   3.028   1.751  1.1112 -0.7702  0.1782
23944SOL    HW276680   9.073   2.931   1.866 -1.7033 -0.3643  0.8261
23945SOL     OW76681   7.702   2.326   3.106 -0.4116  0.6430  0.2874
23945SOL    HW176682   7.756   2.247   3.097 -0.2615  0.5453  1.9625
23945SOL    HW276683   7.614   2.297   3.082 -0.4685 -0.1867  1.4509
23946SOL     OW76684   8.219   1.469   2.240 -0.0664 -0.2030  0.4019
23946SOL    HW176685   8.306   1.434   2.258 -0.4913 -1.1454  0.6497
23946SOL    HW276686   8.211   1.466   2.144  0.6427  1.0315  0.3037
23947SOL     OW76687   7.589   2.664   4.165 -0.0793  0.3923  0.5289
23947SOL    HW176688   7.634   2.598   4.112  0.1633 -0.5231  1.8462
23947SOL    HW276689   7.655   2.693   4.229 -0.8051  0.3865  1.2893
23948SOL     OW76690   8.737   3.848   2.293  0.0621  0.7593 -0.0903
23948SOL    HW176691   8.674   3.777   2.281 -0.2422  1.0639 -0.3287
23948SOL    HW276692   8.780   3.828   2.376 -0.0961  0.3523 -0.1053
23949SOL     OW76693   8.909   1.252   4.211  0.2137  0.0756 -0.4242
23949SOL    HW176694   8.943   1.323   4.155  0.7648 -0.8373 -1.2721
23949SOL    HW276695   8.985   1.222   4.260 -0.0162  0.0501 -0.0833
23950SOL     OW76696   0.225   3.297   4.028 -0.1216  0.5141 -0.5131
23950SOL    HW176697   0.140   3.340   4.031 -0.0346  0.6555 -0.0544
23950SOL    HW276698   0.273   3.333   4.103 -0.7353 -1.8169  1.0550
23951SOL     OW76699   8.762   2.076   2.653 -0.1774  0.2276  0.7398
23951SOL    HW176700   8.780   2.168   2.674 -1.7611  0.4845  0.9966
23951SOL    HW276701   8.791   2.065   2.563 -0.6516  1.1700  0.4708
23952SOL     OW76702   8.974   3.562   3.966 -0.2659  0.2510  0.2203
23952SOL    HW176703   8.917   3.548   4.042 -1.6417 -0.0190 -0.8312
23952SOL    HW276704   8.988   3.475   3.930 -1.5059  0.5882 -1.1448
23953SOL     OW76705   7.976   1.386   2.869 -0.0475 -0.3787  0.1825
23953SOL    HW176706   7.955   1.404   2.778  0.6272  1.9114  0.4473
23953SOL    HW276707   8.053   1.329   2.866  0.0743 -0.1679 -0.6697
23954SOL     OW76708   9.826   3.463   2.625 -0.4057 -0.4883  0.0229
23954SOL    HW176709   9.841   3.472   2.531 -2.1042  1.4709 -0.0969
23954SOL    HW276710   9.891   3.520   2.666 -1.3738  0.7284 -0.1016
23955SOL     OW76711   9.029   1.899   3.418  0.2549  0.2449  0.0916
23955SOL    HW176712   8.976   1.820   3.406  1.4771 -0.8116  1.5473
23955SOL    HW276713   9.074   1.911   3.334  1.7878 -1.9032  0.5753
23956SOL     OW76714   8.901   2.859   0.695  0.1201  0.3422  0.3155
23956SOL    HW176715   8.976   2.889   0.748  0.6165  1.9220 -1.2663
23956SOL    HW276716   8.941   2.810   0.623 -0.5115 -0.8956  0.7874
23957SOL     OW76717   8.345   3.346   2.415 -0.4857 -0.2531  0.1572
23957SOL    HW176718   8.405   3.411   2.378  1.4182 -0.6323  2.3775
23957SOL    HW276719   8.268   3.396   2.440  0.3362  0.9080  0.4363
23958SOL     OW76720   8.682   1.212   3.614  0.1410  0.1623 -0.2493
23958SOL    HW176721   8.620   1.285   3.624  2.3138  2.1317 -0.6557
23958SOL    HW276722   8.768   1.254   3.614  1.4340 -2.4131 -0.7015
23959SOL     OW76723   7.188   2.607   0.044 -0.3835  0.4410  0.0916
23959SOL    HW176724   7.258   2.577  -0.013 -0.8894  0.1761 -0.3863
23959SOL    HW276725   7.114   2.622  -0.014 -1.1048 -0.4700  0.7599
23960SOL     OW76726   9.158   2.493   2.059  0.5147  0.6131 -0.0361
23960SOL    HW176727   9.198   2.411   2.089  0.4122  0.5000 -0.2062
23960SOL    HW276728   9.127   2.535   2.139 -0.3374  0.0058 -0.0425
23961SOL     OW76729   8.618   3.270   2.381 -0.1352  0.3297 -0.5439
23961SOL    HW176730   8.553   3.271   2.451 -0.8777  0.9478 -1.2363
23961SOL    HW276731   8.612   3.356   2.341  1.6967  0.6884 -0.0901
23962SOL     OW76732   8.742   2.846   2.974  0.1185 -0.0038 -0.6154
23962SOL    HW176733   8.689   2.792   3.032 -1.3395  3.0216  0.9660
23962SOL    HW276734   8.711   2.825   2.886 -2.0727 -0.0106  0.1323
23963SOL     OW76735   9.184   2.127   3.838  0.0106  0.4297  0.1761
23963SOL    HW176736   9.195   2.065   3.765  0.7839  0.9567 -0.1633
23963SOL    HW276737   9.225   2.082   3.913  1.9685  1.1637 -0.4245
23964SOL     OW76738   9.145   2.293   0.682 -0.4023 -0.2390  0.1177
23964SOL    HW176739   9.188   2.220   0.637  1.0139  0.2616  0.6146
23964SOL    HW276740   9.054   2.289   0.654  0.0933 -0.9869 -1.4151
23965SOL     OW76741   7.848   1.857   4.099 -0.1617  0.0745 -0.5705
23965SOL    HW176742   7.906   1.784   4.079 -2.1640 -1.7491  0.1488
23965SOL    HW276743   7.861   1.873   4.193  1.2648  1.5599 -0.9980
23966SOL     OW76744   7.686   2.020   4.350  0.3809 -0.6677 -0.9510
23966SOL    HW176745   7.776   2.024   4.382  0.4720 -1.4638 -1.0890
23966SOL    HW276746   7.657   1.932   4.373 -0.2209 -0.5552 -1.2832
23967SOL     OW76747   9.281   2.879   3.279 -0.1114  0.0517  0.1498
23967SOL    HW176748   9.186   2.879   3.294  0.2455  0.8116  2.8114
23967SOL    HW276749   9.312   2.959   3.323  1.8926 -0.7980  0.3523
23968SOL     OW76750   8.402   3.100   2.550  0.3005 -0.1907  0.0547
23968SOL    HW176751   8.361   3.181   2.520 -2.1407 -1.1682  0.5819
23968SOL    HW276752   8.448   3.124   2.630 -0.2497  0.7188  0.0991
23969SOL     OW76753   7.854   3.955   2.323  0.0491 -0.3161  0.2651
23969SOL    HW176754   7.800   3.881   2.350 -0.1489  0.1617  1.2234
23969SOL    HW276755   7.849   4.016   2.397 -0.7221  1.1566 -0.9698
23970SOL     OW76756   7.181   9.160   2.118  0.4629  0.0502 -0.2232
23970SOL    HW176757   7.270   9.134   2.143  0.2889  0.0949  0.4518
23970SOL    HW276758   7.192   9.245   2.076  0.8588 -0.4077 -1.0779
23971SOL     OW76759   9.586   2.395   2.112  0.2338  0.0792  0.4549
23971SOL    HW176760   9.560   2.331   2.045 -0.0380 -2.3390  2.7689
23971SOL    HW276761   9.682   2.396   2.108  0.1822  0.6005 -0.5734
23972SOL     OW76762   8.197   3.237   1.760 -0.6166 -0.2016 -0.0225
23972SOL    HW176763   8.198   3.143   1.742 -0.6580  0.0654 -1.4732
23972SOL    HW276764   8.110   3.266   1.731 -0.1291  0.5071 -0.8100
23973SOL     OW76765   0.996   2.983   3.413 -0.0563  0.3037  0.2286
23973SOL    HW176766   0.966   3.005   3.325  1.9238 -1.0643 -0.8321
23973SOL    HW276767   0.917   2.988   3.467 -1.7036 -0.7005 -1.9899
23974SOL     OW76768   9.623   4.032   1.729  0.1751  0.6830 -0.2403
23974SOL    HW176769   9.627   4.127   1.723  1.6697  0.6113 -0.5233
23974SOL    HW276770   9.654   4.001   1.644 -1.6441 -0.0532 -0.6538
23975SOL     OW76771   0.316   2.925   2.046  0.1933 -1.1345 -0.0227
23975SOL    HW176772   0.270   2.887   2.121  0.5551 -2.5273 -0.4779
23975SOL    HW276773   0.248   2.939   1.980 -0.0276 -0.4862  0.3415
23976SOL     OW76774   8.122   3.518   2.384  0.4870 -0.4593 -0.4812
23976SOL    HW176775   8.120   3.590   2.447  0.3119 -0.9110  0.0374
23976SOL    HW276776   8.187   3.545   2.319 -1.0122  1.0648 -1.3971
23977SOL     OW76777   9.566   3.376   3.990  0.4280 -0.1683 -0.0008
23977SOL    HW176778   9.482   3.331   3.997 -0.9347  2.1300 -1.2631
23977SOL    HW276779   9.610   3.332   3.917 -0.2838 -0.4142 -0.2865
23978SOL     OW76780   8.963   1.796   4.668  0.1396 -0.1539  0.4624
23978SOL    HW176781   9.009   1.858   4.612 -1.3954 -0.0712 -0.7395
23978SOL    HW276782   9.032   1.749   4.715  1.3947  0.4520 -0.7602
23979SOL     OW76783   7.765   9.187   2.314  0.0685 -0.3538  0.2069
23979SOL    HW176784   7.789   9.133   2.389  0.7541 -0.8198 -0.3463
23979SOL    HW276785   7.767   9.277   2.348 -1.6520 -0.6945  1.2805
23980SOL     OW76786   6.491   1.983   2.668  0.0523 -0.1620  0.1833
23980SOL    HW176787   6.425   1.976   2.737  0.1600 -2.7959  0.0751
23980SOL    HW276788   6.557   1.918   2.692  0.3457 -0.7539 -2.1462
23981SOL     OW76789   6.141   2.805   3.709 -0.3320  0.0368  0.5312
23981SOL    HW176790   6.233   2.781   3.700 -0.2119  0.2730  1.0537
23981SOL    HW276791   6.116   2.769   3.795 -0.9178 -0.6268  0.0842
23982SOL     OW76792   7.237   2.138   4.153 -0.3600  0.0779 -0.1055
23982SOL    HW176793   7.203   2.066   4.206  1.9552 -0.6407  0.4450
23982SOL    HW276794   7.238   2.213   4.212 -3.1066  0.7126 -0.7771
23983SOL     OW76795   7.738   3.379   3.198 -0.2028 -0.4188 -0.7291
23983SOL    HW176796   7.795   3.408   3.270  0.6065  1.1321 -1.9705
23983SOL    HW276797   7.796   3.332   3.139 -0.2799  0.7979 -1.7875
23984SOL     OW76798   8.963   1.467   2.168  0.1275  0.8179  0.3460
23984SOL    HW176799   8.967   1.407   2.093 -2.2312  0.6013  0.3782
23984SOL    HW276800   9.042   1.447   2.218 -0.0829 -1.5482 -0.1885
23985SOL     OW76801   8.643   1.025   4.112  0.5194 -0.1189  0.4763
23985SOL    HW176802   8.589   0.946   4.110 -0.3268  0.3876  2.5109
23985SOL    HW276803   8.623   1.070   4.030 -1.9169 -0.1127  1.0471
23986SOL     OW76804   8.190   2.128   2.808  0.0594  0.1823 -0.2631
23986SOL    HW176805   8.265   2.160   2.757 -0.0907  0.7979 -0.1063
23986SOL    HW276806   8.221   2.127   2.898 -0.3092  1.0135 -0.1241
23987SOL     OW76807   7.751   3.919   1.037  0.6079  0.3873  0.2627
23987SOL    HW176808   7.815   3.898   1.104 -0.4794  1.2335  1.5872
23987SOL    HW276809   7.666   3.899   1.076 -0.0154  0.3720 -1.0498
23988SOL     OW76810   8.417   2.730   3.294 -0.9999 -0.2274  0.1677
23988SOL    HW176811   8.448   2.674   3.365 -1.4983 -0.2983  0.3295
23988SOL    HW276812   8.412   2.818   3.332 -1.7981 -0.3612  0.3811
23989SOL     OW76813   8.506   1.903   2.677  0.0889  0.4365  0.1890
23989SOL    HW176814   8.547   1.827   2.719  0.4884  1.1613  1.1050
23989SOL    HW276815   8.578   1.965   2.665 -0.5237  1.2562  0.7587
23990SOL     OW76816   8.861   0.742   2.384  0.4190 -0.0828  0.3927
23990SOL    HW176817   8.812   0.742   2.301 -0.1484 -1.8458  0.7010
23990SOL    HW276818   8.936   0.799   2.367  0.4085 -0.5659 -1.3994
23991SOL     OW76819   7.173   2.906   3.555 -0.0370  0.1517 -0.0900
23991SOL    HW176820   7.266   2.891   3.569 -0.0797  2.1112  2.6204
23991SOL    HW276821   7.169   2.977   3.492  0.3345  0.8802  0.6980
23992SOL     OW76822   9.104   2.651   3.416 -0.6077 -0.8299  0.4948
23992SOL    HW176823   9.086   2.701   3.337 -1.4466 -2.3152 -0.2647
23992SOL    HW276824   9.047   2.689   3.483 -0.8460 -0.4279  0.0585
23993SOL     OW76825   9.144   2.572   2.331  0.3087  0.6583 -0.2255
23993SOL    HW176826   9.093   2.636   2.381 -0.4552 -0.3886  0.3732
23993SOL    HW276827   9.221   2.620   2.300 -0.4970  1.9781 -0.2030
23994SOL     OW76828   8.363   0.852   1.790  0.5855  0.1396 -0.5712
23994SOL    HW176829   8.364   0.947   1.777 -0.1729  0.0666 -1.1450
23994SOL    HW276830   8.279   0.834   1.832  0.8612 -0.2515 -0.1694
23995SOL     OW76831   6.585   2.208   3.505 -0.0762 -0.0441 -0.2426
23995SOL    HW176832   6.582   2.251   3.420 -0.3071  0.0473 -0.1905
23995SOL    HW276833   6.675   2.177   3.514  0.1035  0.4720 -0.2582
23996SOL     OW76834   5.430   4.263   2.998 -0.2946 -0.4093 -0.0508
23996SOL    HW176835   5.418   4.219   2.913  0.8204 -1.4416  0.3107
23996SOL    HW276836   5.444   4.191   3.060 -0.8951  0.3492  0.9799
23997SOL     OW76837   8.496   3.129   3.102  0.5877  0.4957 -0.0905
23997SOL    HW176838   8.441   3.207   3.111 -1.8856 -1.2620  0.2054
23997SOL    HW276839   8.578   3.163   3.066 -0.2849  3.3007  0.4189
23998SOL     OW76840   9.124   3.264   5.003  0.6731 -0.2172 -0.0610
23998SOL    HW176841   9.218   3.250   5.013  0.5751 -1.3236 -0.6458
23998SOL    HW276842   9.085   3.179   5.023 -0.1688  0.1050 -0.3279
23999SOL     OW76843   8.209   1.547   3.027  0.3843 -0.2504 -0.1380
23999SOL    HW176844   8.178   1.619   2.972  0.7755  1.7197  2.1421
23999SOL    HW276845   8.171   1.469   2.987 -1.3333  1.3587 -1.7857
24000SOL     OW76846   9.139   3.398   3.011 -0.2211  0.4270  0.5801
24000SOL    HW176847   9.229   3.425   3.028  0.6381 -1.5159 -0.6874
24000SOL    HW276848   9.102   3.381   3.097  0.3330  2.0982  1.1625
24001SOL     OW76849   6.398   2.092   3.925 -0.1166 -0.5913  0.6179
24001SOL    HW176850   6.354   2.108   4.008 -1.2792  1.0848 -0.3075
24001SOL    HW276851   6.491   2.091   3.947 -0.2655  2.3063  1.5805
24002SOL     OW76852   0.295   1.017   0.962  0.3158  0.4774  0.0651
24002SOL    HW176853   0.353   0.941   0.962  0.3693  0.5177  0.0326
24002SOL    HW276854   0.355   1.092   0.960  0.2846  0.5374  1.3646
24003SOL     OW76855   9.144   2.328   2.880 -0.0498 -0.4570 -0.5496
24003SOL    HW176856   9.223   2.381   2.893 -0.7726  0.5544 -0.2090
24003SOL    HW276857   9.112   2.310   2.968 -0.1766 -0.9026 -0.6855
24004SOL     OW76858   6.325   2.275   2.062  0.2509  0.0311  0.4472
24004SOL    HW176859   6.311   2.207   1.997  1.9917  1.1234 -1.1328
24004SOL    HW276860   6.237   2.307   2.083 -0.4666 -1.6966  0.1572
24005SOL     OW76861   8.430   0.344   3.944 -0.2677  0.1996 -0.0773
24005SOL    HW176862   8.483   0.352   4.023 -1.2554  0.3878  0.5714
24005SOL    HW276863   8.492   0.359   3.872  0.6526 -0.0712  0.6449
24006SOL     OW76864   8.980   2.434   3.555 -0.5161 -0.3207 -0.5229
24006SOL    HW176865   9.013   2.344   3.549  1.4948  0.3462  0.1150
24006SOL    HW276866   9.047   2.487   3.512 -0.1581  1.1949  1.8019
24007SOL     OW76867   8.497   1.450   2.721  0.1326  0.5959 -0.0781
24007SOL    HW176868   8.474   1.514   2.654  2.6598  0.4151 -1.1994
24007SOL    HW276869   8.482   1.365   2.679  1.9742  0.4828 -0.5555
24008SOL     OW76870   8.148   2.296   1.298  0.0977 -0.1127 -0.1777
24008SOL    HW176871   8.133   2.375   1.245  2.9624  0.0767 -0.7905
24008SOL    HW276872   8.226   2.317   1.349  0.6525 -2.4081 -0.0439
24009SOL     OW76873   7.994   2.434   3.395 -0.3790  0.2710  0.7061
24009SOL    HW176874   8.078   2.390   3.401  0.3982  1.9228  2.9554
24009SOL    HW276875   8.008   2.507   3.335  0.0730  1.0572  1.7434
24010SOL     OW76876   8.500   3.523   2.256 -0.0470 -0.6141  0.2909
24010SOL    HW176877   8.435   3.593   2.249  0.7469  0.1284  0.2003
24010SOL    HW276878   8.547   3.525   2.172  1.1694 -0.0457  0.9613
24011SOL     OW76879   7.934   1.817   2.667 -0.1186  0.5001 -0.0345
24011SOL    HW176880   7.876   1.772   2.606 -0.5877  1.1682 -0.0735
24011SOL    HW276881   7.955   1.900   2.625  1.0580  0.1757 -0.1338
24012SOL     OW76882   7.638   5.141   1.817  0.2948  0.7044  0.4834
24012SOL    HW176883   7.666   5.060   1.859 -0.7622 -0.4670 -0.9828
24012SOL    HW276884   7.550   5.157   1.852  0.1182  0.6778  0.0611
24013SOL     OW76885   9.395   2.537   4.054 -0.0406  0.4714 -0.3893
24013SOL    HW176886   9.395   2.600   4.125  2.2315  0.8079 -0.6261
24013SOL    HW276887   9.433   2.458   4.093  0.9213  0.5590 -1.1253
24014SOL     OW76888   9.068   2.958   3.476 -0.1470  0.2464 -0.0362
24014SOL    HW176889   9.143   2.946   3.533  0.2954  0.1824 -0.6293
24014SOL    HW276890   9.057   3.053   3.469  0.4395  0.2689 -0.6770
24015SOL     OW76891   8.585   1.634   3.449  0.7321 -0.5727  0.7851
24015SOL    HW176892   8.570   1.554   3.399 -1.1274 -0.4236  1.0794
24015SOL    HW276893   8.529   1.625   3.526 -1.7583  2.3112 -0.6072
24016SOL     OW76894   0.105   4.247   3.595  0.4214 -0.1281  0.3333
24016SOL    HW176895   0.117   4.157   3.626 -0.6808 -0.5872 -0.5310
24016SOL    HW276896   0.106   4.300   3.675 -0.6237 -1.0951  1.0119
24017SOL     OW76897   6.572   4.876   1.949  0.1632  0.6430  0.1333
24017SOL    HW176898   6.637   4.832   2.004  2.3898  1.3318 -1.8695
24017SOL    HW276899   6.493   4.823   1.959  0.7771  0.2196  3.2151
24018SOL     OW76900   8.760   2.790   4.017  0.0899  0.6182 -0.2368
24018SOL    HW176901   8.841   2.750   3.987 -0.1503 -1.4336  1.7441
24018SOL    HW276902   8.785   2.876   4.050  1.2336  0.5220 -0.8527
24019SOL     OW76903   9.680   2.413   3.057  0.1604 -0.0709  0.2228
24019SOL    HW176904   9.763   2.460   3.047 -0.3157  0.9333  0.9376
24019SOL    HW276905   9.705   2.329   3.096  1.1078 -0.7685 -1.7918
24020SOL     OW76906   8.676   1.373   4.843  0.2422  0.5253 -0.3474
24020SOL    HW176907   8.671   1.466   4.820  0.6249  0.7671  0.5045
24020SOL    HW276908   8.625   1.366   4.924 -0.0436 -0.0632 -0.5798
24021SOL     OW76909   8.656   2.851   3.654  0.0302 -0.9256  0.8700
24021SOL    HW176910   8.654   2.843   3.750 -0.3877  0.3307  0.9744
24021SOL    HW276911   8.590   2.788   3.624 -1.2580  0.0715  1.5251
24022SOL     OW76912   8.617   2.537   2.546 -0.0933  0.0610 -0.4881
24022SOL    HW176913   8.661   2.454   2.563  0.2784  0.6051  1.4280
24022SOL    HW276914   8.525   2.514   2.536 -0.1533 -0.4841  1.1290
24023SOL     OW76915   9.764   3.850   3.945  0.9606  0.0474 -0.3544
24023SOL    HW176916   9.853   3.879   3.928  1.1966 -0.2565  0.3298
24023SOL    HW276917   9.773   3.779   4.009  0.4309 -1.7921 -2.2362
24024SOL     OW76918   5.005   2.155   3.404 -0.4486  0.1793  0.9028
24024SOL    HW176919   5.066   2.082   3.392 -0.9384 -0.0543 -0.2029
24024SOL    HW276920   4.975   2.147   3.495 -1.0901 -1.4540  0.5628
24025SOL     OW76921   7.001   4.276   4.352 -0.5653 -0.3242  0.6184
24025SOL    HW176922   6.973   4.342   4.287  0.2866 -0.1674  0.4091
24025SOL    HW276923   7.090   4.253   4.326 -0.6296 -1.0963  1.0735
24026SOL     OW76924   9.052   1.858   2.002  0.5349  0.0473 -0.2520
24026SOL    HW176925   9.131   1.805   1.993  0.3805 -0.3693  0.8239
24026SOL    HW276926   9.082   1.937   2.047  0.0421 -0.8331  1.6613
24027SOL     OW76927   8.687   1.895   2.254 -0.1976 -0.2420  0.0606
24027SOL    HW176928   8.739   1.966   2.292  1.1799 -0.6992 -0.9370
24027SOL    HW276929   8.641   1.935   2.180 -0.3346 -0.1134  0.2156
24028SOL     OW76930   6.189   1.951   3.139 -0.8459  0.1503  0.2824
24028SOL    HW176931   6.118   1.962   3.201 -0.5030  1.1591  0.5134
24028SOL    HW276932   6.262   1.999   3.178 -0.3615  0.0320 -0.4681
24029SOL     OW76933   0.290   2.566   2.570  0.1855  0.2685 -0.4573
24029SOL    HW176934   0.211   2.524   2.605 -0.0485  0.0689 -1.2174
24029SOL    HW276935   0.299   2.647   2.620  0.4863 -0.5433  0.8443
24030SOL     OW76936   8.103   2.237   2.457 -0.3030  0.4639 -0.6918
24030SOL    HW176937   8.076   2.328   2.451 -0.4606  0.4786  0.1359
24030SOL    HW276938   8.172   2.228   2.392 -1.3889  0.7570 -1.9226
24031SOL     OW76939   9.451   4.034   2.397  0.0356  0.3134 -0.2597
24031SOL    HW176940   9.439   4.126   2.420 -2.1766 -0.1730  0.6724
24031SOL    HW276941   9.539   4.013   2.427  0.1122  1.8043  0.6259
24032SOL     OW76942   9.961   3.367   4.091 -0.0692  0.0122 -0.0003
24032SOL    HW176943   9.992   3.409   4.171  0.3585 -0.0431 -0.1351
24032SOL    HW276944   9.944   3.277   4.115 -3.1994  0.7921  0.8514
24033SOL     OW76945   7.770   1.616   3.030  0.2747  0.2847  0.5219
24033SOL    HW176946   7.862   1.623   3.003 -0.1131  0.5491 -0.7544
24033SOL    HW276947   7.772   1.557   3.105  1.0133 -3.2889 -2.1560
24034SOL     OW76948   7.646   2.941   3.374 -0.6108 -0.8002  0.7619
24034SOL    HW176949   7.732   2.967   3.406  0.1086 -0.0223 -1.6227
24034SOL    HW276950   7.609   3.022   3.337 -2.2147 -1.2111  1.4001
24035SOL     OW76951   8.646   2.419   1.887 -0.8275 -0.0272  0.2697
24035SOL    HW176952   8.589   2.496   1.888 -0.0048  0.6276 -0.9473
24035SOL    HW276953   8.731   2.453   1.858 -1.0072 -1.7208 -2.4180
24036SOL     OW76954   9.791   3.001   3.596 -0.1484 -0.1796  0.0894
24036SOL    HW176955   9.733   3.012   3.520 -0.6278  3.3129  0.8552
24036SOL    HW276956   9.730   2.990   3.670  0.2715 -1.5095  0.2366
24037SOL     OW76957   8.610   4.775   2.017 -0.8462 -0.8152  0.5037
24037SOL    HW176958   8.610   4.833   1.940  0.2972 -0.7059  0.5853
24037SOL    HW276959   8.702   4.752   2.030 -1.2275 -2.1964  0.8273
24038SOL     OW76960   8.167   2.385   3.078  0.0693  0.0367  0.7421
24038SOL    HW176961   8.201   2.430   3.155  0.9952  0.0139  0.3536
24038SOL    HW276962   8.223   2.308   3.069 -0.1952 -0.0951  0.1967
24039SOL     OW76963   0.675   1.925   1.182  0.8609 -0.8038 -0.0344
24039SOL    HW176964   0.714   1.921   1.095  1.4299 -1.6876  0.2488
24039SOL    HW276965   0.744   1.892   1.241 -0.4297 -2.8123  0.4217
24040SOL     OW76966   9.110   2.935   2.941  0.0184 -0.5032  1.1527
24040SOL    HW176967   9.158   2.986   2.876  0.1199 -1.7629  0.2057
24040SOL    HW276968   9.070   3.000   2.999 -1.7096  0.7135 -1.3370
24041SOL     OW76969   8.827   3.384   3.503 -0.3365 -0.9396  0.0042
24041SOL    HW176970   8.839   3.322   3.431 -0.1022 -0.8886 -0.0011
24041SOL    HW276971   8.908   3.377   3.553  0.9913  1.6262 -1.7101
24042SOL     OW76972   8.259   4.033   2.075  0.2052 -0.1225  0.5973
24042SOL    HW176973   8.338   3.988   2.107 -0.0428  0.0605  1.4861
24042SOL    HW276974   8.276   4.049   1.982  1.4209  0.3492  0.8946
24043SOL     OW76975   0.159   2.717   3.628  0.5182  0.1379  0.0112
24043SOL    HW176976   0.184   2.635   3.585  1.5605  1.5895 -2.2439
24043SOL    HW276977   0.205   2.714   3.712  0.7470 -1.4622 -0.1417
24044SOL     OW76978   6.377   4.996   1.774 -0.3474 -0.5606  0.0962
24044SOL    HW176979   6.432   4.967   1.847 -0.5214 -0.5275  0.2413
24044SOL    HW276980   6.344   4.915   1.735  0.3640 -0.6083 -0.4298
24045SOL     OW76981   7.445   1.691   5.312 -0.0221  0.9489  0.6621
24045SOL    HW176982   7.378   1.672   5.378 -0.8998  0.6303 -0.3034
24045SOL    HW276983   7.505   1.616   5.316 -1.1312 -0.0102 -0.2025
24046SOL     OW76984   8.806   1.488   2.988 -0.3940 -0.1739  0.1615
24046SOL    HW176985   8.828   1.503   2.896  0.6709  0.3861  0.4971
24046SOL    HW276986   8.861   1.414   3.014  0.1241  0.3741  0.6444
24047SOL     OW76987   7.156   2.516   1.826 -0.2860  0.0879  0.0186
24047SOL    HW176988   7.174   2.500   1.733 -2.0085 -1.1892 -0.1214
24047SOL    HW276989   7.122   2.606   1.829  1.5824  0.8166 -0.3192
24048SOL     OW76990   9.461   1.432   4.170  0.3147 -0.2756  0.1662
24048SOL    HW176991   9.532   1.444   4.233 -0.5260  2.6063  0.6392
24048SOL    HW276992   9.471   1.504   4.108 -1.1959 -0.8291 -0.7570
24049SOL     OW76993   8.435   1.014   0.844  0.1690  0.2002  0.1070
24049SOL    HW176994   8.377   1.063   0.786 -0.5647  0.5956  1.1547
24049SOL    HW276995   8.459   0.936   0.794  1.0294  1.4215 -1.4295
24050SOL     OW76996   5.430   2.943   5.175  0.4534 -0.3472  0.2378
24050SOL    HW176997   5.464   2.992   5.250 -0.1342 -1.1772  1.0577
24050SOL    HW276998   5.494   2.874   5.161  0.5530 -0.2031 -0.0095
24051SOL     OW76999   9.100   3.405   2.557 -0.0556  0.1699  0.0010
24051SOL    HW177000   9.046   3.351   2.499  0.1650 -0.8743  0.7409
24051SOL    HW277001   9.089   3.366   2.644  0.4927  1.0299  0.4700
24052SOL     OW77002   8.422   1.588   3.191 -0.3856  0.0877  0.1191
24052SOL    HW177003   8.490   1.649   3.165 -1.4846  1.1711 -0.2406
24052SOL    HW277004   8.357   1.593   3.121  0.2701 -2.7185 -0.7485
24053SOL     OW77005   9.266   2.255   4.394  0.0217 -0.8233 -0.3612
24053SOL    HW177006   9.318   2.324   4.435  2.2181 -2.5440 -0.1855
24053SOL    HW277007   9.214   2.218   4.465 -0.5055  0.0428 -0.2858
24054SOL     OW77008   6.395   3.009   3.783  0.2331 -0.1765  0.1227
24054SOL    HW177009   6.345   2.946   3.834  0.7585 -0.8673 -0.2019
24054SOL    HW277010   6.330   3.059   3.735 -0.1566 -0.9432 -0.1521
24055SOL     OW77011   9.960   2.121   4.040  0.6312  0.7737  0.1757
24055SOL    HW177012   9.965   2.030   4.011 -0.7344 -0.0338  2.3431
24055SOL    HW277013   9.981   2.118   4.133 -0.9543  2.4352  0.6234
24056SOL     OW77014   9.312   2.364   3.770 -1.0967  0.1951 -0.3097
24056SOL    HW177015   9.385   2.307   3.745 -1.2811 -0.5210  0.7581
24056SOL    HW277016   9.247   2.304   3.807 -1.7343  0.9735 -0.1530
24057SOL     OW77017   0.218   2.257   5.114 -0.1630  0.1717 -0.2246
24057SOL    HW177018   0.281   2.328   5.100 -0.5333  0.2103 -1.7604
24057SOL    HW277019   0.268   2.190   5.160  1.0472  0.1568 -1.5098
24058SOL     OW77020   9.479   1.791   4.659  0.0531 -1.0909  0.5597
24058SOL    HW177021   9.421   1.835   4.721 -0.9150 -1.2860 -0.1840
24058SOL    HW277022   9.545   1.748   4.713  0.6950  0.8071  1.3334
24059SOL     OW77023   9.407   2.899   1.654  0.0678 -0.0510 -0.5926
24059SOL    HW177024   9.472   2.889   1.585  0.2737  0.9716 -0.5509
24059SOL    HW277025   9.458   2.915   1.734 -0.2334  1.8962 -0.7529
24060SOL     OW77026   5.726   1.755   0.868  0.4141 -0.5952  0.0780
24060SOL    HW177027   5.670   1.711   0.804  0.5594 -0.9993  0.2233
24060SOL    HW277028   5.805   1.700   0.871  2.0515  1.4942 -2.2517
24061SOL     OW77029   8.925   2.260   1.998 -0.1192 -0.0800 -0.1890
24061SOL    HW177030   8.848   2.228   2.046  0.1674  0.5110  0.6680
24061SOL    HW277031   9.000   2.224   2.046  0.1423 -0.9246 -1.2105
24062SOL     OW77032   8.506   2.738   1.172  0.3513  0.2578 -0.3482
24062SOL    HW177033   8.521   2.831   1.190  0.9216  0.2054 -0.5311
24062SOL    HW277034   8.412   2.726   1.180  0.2879  0.8402 -0.2499
24063SOL     OW77035   7.688   3.886   4.828  0.0321 -0.3191 -0.2805
24063SOL    HW177036   7.703   3.846   4.914 -1.3836 -0.6863 -0.1938
24063SOL    HW277037   7.764   3.858   4.776 -0.1019 -1.7601  0.2649
24064SOL     OW77038   7.248   2.604   1.575 -0.3424  0.3882  0.1424
24064SOL    HW177039   7.172   2.648   1.536  0.4537  1.5329 -0.1498
24064SOL    HW277040   7.266   2.531   1.515 -0.3211  0.9827 -0.5862
24065SOL     OW77041   9.567   3.675   3.225 -0.0430  0.0995 -0.8779
24065SOL    HW177042   9.485   3.631   3.248  0.1479 -0.3208 -1.0016
24065SOL    HW277043   9.620   3.607   3.182  0.3340  0.3902 -0.8755
24066SOL     OW77044   0.335   2.909   3.376  0.6330 -0.3520 -0.0887
24066SOL    HW177045   0.333   2.813   3.382 -0.3367 -0.3083  0.4582
24066SOL    HW277046   0.327   2.939   3.467 -0.0105  0.2532 -0.3379
24067SOL     OW77047   8.625   2.425   1.532  0.4544 -0.0107  0.0894
24067SOL    HW177048   8.720   2.414   1.536  0.6057  0.8149 -1.0119
24067SOL    HW277049   8.611   2.497   1.471 -0.9309 -0.9891 -0.7996
24068SOL     OW77050   7.671   2.789   3.652 -0.3228  0.0890 -0.1346
24068SOL    HW177051   7.725   2.754   3.581 -0.2347 -1.7698  0.8040
24068SOL    HW277052   7.732   2.831   3.711 -0.1289 -0.2962 -0.0595
24069SOL     OW77053   7.875   3.504   2.230  0.2225 -0.3554 -0.2034
24069SOL    HW177054   7.943   3.520   2.296  0.2218  1.0063 -0.5245
24069SOL    HW277055   7.807   3.457   2.277  0.9673 -0.8944  0.3591
24070SOL     OW77056   8.504   4.842   3.108  0.7642 -0.5332  0.2662
24070SOL    HW177057   8.579   4.803   3.154  2.5346 -0.5311 -2.5071
24070SOL    HW277058   8.530   4.933   3.093 -0.1131 -0.3305 -0.0664
24071SOL     OW77059   7.372   1.462   2.557  0.1578  1.1738  0.3204
24071SOL    HW177060   7.287   1.480   2.518 -0.6492 -1.7727  0.6120
24071SOL    HW277061   7.375   1.517   2.635 -1.1991  1.7909 -0.0661
24072SOL     OW77062   8.161   3.340   3.011  0.2544 -0.1066 -0.2824
24072SOL    HW177063   8.231   3.337   3.076 -0.2160  0.2097  0.2464
24072SOL    HW277064   8.200   3.303   2.932  1.1461  0.4438 -0.1107
24073SOL     OW77065   7.828   2.562   2.690  0.4218  0.4270 -0.0490
24073SOL    HW177066   7.872   2.484   2.725  1.0517  0.7830 -0.0406
24073SOL    HW277067   7.795   2.607   2.767 -0.2898 -0.0345 -0.0798
24074SOL     OW77068   8.321   3.355   3.761 -0.3416  0.1009 -0.8717
24074SOL    HW177069   8.343   3.394   3.845  0.5522 -2.6688  0.2209
24074SOL    HW277070   8.381   3.396   3.699 -0.6675  1.7826 -0.1038
24075SOL     OW77071   8.928   1.428   1.496 -0.4277  0.0013  0.1697
24075SOL    HW177072   8.997   1.471   1.446 -0.6696  1.0708  0.7506
24075SOL    HW277073   8.975   1.381   1.565 -0.3026  1.1290  0.8635
24076SOL     OW77074   6.937   2.081   1.827  0.0051  0.3290 -0.6948
24076SOL    HW177075   6.956   1.990   1.851  0.3769  1.3934  3.4362
24076SOL    HW277076   6.910   2.077   1.736  1.9723 -3.6652 -1.1958
24077SOL     OW77077   7.854   0.680   2.178  0.1128 -0.1684 -0.4175
24077SOL    HW177078   7.942   0.648   2.156  0.5188  0.0646  0.8157
24077SOL    HW277079   7.797   0.605   2.162  0.6184 -0.4956 -0.7004
24078SOL     OW77080   6.225   3.799   3.386  0.6255 -0.2437  0.4316
24078SOL    HW177081   6.230   3.760   3.473  0.3351  0.5674  0.8151
24078SOL    HW277082   6.307   3.774   3.344 -0.0685 -2.2991  0.2291
24079SOL     OW77083   7.219   2.794   2.469 -0.0599  0.0942 -0.3017
24079SOL    HW177084   7.153   2.724   2.463 -2.1771  2.0339 -0.1396
24079SOL    HW277085   7.212   2.826   2.559 -0.7908  2.1265 -1.0631
24080SOL     OW77086   7.222   2.481   3.408  0.2753  0.0154  1.1810
24080SOL    HW177087   7.287   2.449   3.471  0.6398 -3.6212 -0.8944
24080SOL    HW277088   7.194   2.402   3.360  0.1243  2.5858 -3.2797
24081SOL     OW77089   8.730   2.510   4.130 -0.2046  0.3301  0.4394
24081SOL    HW177090   8.669   2.459   4.076  1.8390  0.0808 -1.7047
24081SOL    HW277091   8.739   2.593   4.083  0.8027  0.5177  0.9490
24082SOL     OW77092   6.983   0.880   4.055 -0.5501 -0.4350  0.1901
24082SOL    HW177093   7.064   0.832   4.071 -0.0437  0.2742 -0.2019
24082SOL    HW277094   6.925   0.855   4.128  0.7346  0.5964  1.5956
24083SOL     OW77095   6.654   1.332   5.757 -0.2194 -0.0438  0.2436
24083SOL    HW177096   6.684   1.252   5.800  0.9387 -0.4926 -1.3324
24083SOL    HW277097   6.683   1.402   5.814 -0.2885 -0.6994  1.1005
24084SOL     OW77098   9.420   4.282   5.977  0.3177 -0.5387  0.2674
24084SOL    HW177099   9.498   4.306   6.027 -0.3440 -0.1174  1.1141
24084SOL    HW277100   9.433   4.323   5.891  0.2895  0.8898  0.9309
24085SOL     OW77101   9.008   3.306   3.863 -0.4426  0.3652 -0.0709
24085SOL    HW177102   8.913   3.291   3.869 -0.8616  2.1691 -1.4248
24085SOL    HW277103   9.026   3.304   3.769  1.1380 -1.4389  0.2578
24086SOL     OW77104   8.844   3.289   5.147 -0.5620 -0.3209 -0.1704
24086SOL    HW177105   8.853   3.208   5.198  2.5161 -0.8792 -1.4569
24086SOL    HW277106   8.932   3.327   5.148 -1.9041  2.9277  0.2191
24087SOL     OW77107   9.149   4.502   6.156 -0.2659  0.1300 -0.2429
24087SOL    HW177108   9.064   4.493   6.200  0.1570 -2.0417  0.1682
24087SOL    HW277109   9.153   4.427   6.096  1.2292  0.3926 -0.4873
24088SOL     OW77110   8.511   2.792   3.910 -0.0179  0.2983 -0.4596
24088SOL    HW177111   8.588   2.777   3.965 -1.0180 -0.2945  0.7986
24088SOL    HW277112   8.456   2.715   3.925  0.8833 -1.2686 -4.3808
24089SOL     OW77113   6.532   2.705   4.066  0.1104 -0.0552 -0.1314
24089SOL    HW177114   6.581   2.624   4.051  0.3928  0.6283 -3.2086
24089SOL    HW277115   6.486   2.690   4.148  1.6529 -2.6019  0.3301
24090SOL     OW77116   7.813   4.874   5.245 -0.3410  0.2184 -0.3445
24090SOL    HW177117   7.827   4.794   5.296 -0.2505 -0.1886 -1.0093
24090SOL    HW277118   7.721   4.870   5.218 -0.8295  1.1992  1.0923
24091SOL     OW77119   9.446   2.644   5.974 -0.3625 -0.0522 -0.5641
24091SOL    HW177120   9.523   2.645   6.030 -0.8296 -1.4355  0.1219
24091SOL    HW277121   9.474   2.596   5.896  0.3852  2.1475 -1.7157
24092SOL     OW77122   6.822   2.496   5.633 -0.0489  0.4104 -0.2819
24092SOL    HW177123   6.883   2.556   5.591  0.5351 -0.1784 -0.2915
24092SOL    HW277124   6.794   2.543   5.712 -2.1166  2.0236 -1.9433
24093SOL     OW77125   9.726   2.443   2.698 -0.3812  0.1537  0.5013
24093SOL    HW177126   9.672   2.379   2.652  3.1493 -0.6099 -2.8898
24093SOL    HW277127   9.690   2.528   2.671 -2.4961 -0.3127  1.7363
24094SOL     OW77128   9.158   4.337   5.626 -0.2116 -0.2080 -0.6678
24094SOL    HW177129   9.168   4.258   5.573  0.8425  0.0135 -0.8093
24094SOL    HW277130   9.222   4.398   5.590  2.0678 -0.7988  2.2104
24095SOL     OW77131   7.773   3.501   4.582 -0.5081 -0.0357 -0.0045
24095SOL    HW177132   7.826   3.423   4.599  0.6691  0.9792  1.1277
24095SOL    HW277133   7.825   3.553   4.521 -0.9992  0.1434 -0.2717
24096SOL     OW77134   7.455   2.790   2.979  1.3556 -0.4198  0.1776
24096SOL    HW177135   7.425   2.798   2.888  0.0913  0.6057  0.6627
24096SOL    HW277136   7.429   2.702   3.006  1.0913 -0.4669 -0.2289
24097SOL     OW77137   5.952   3.441   2.878  0.3515  0.1024 -0.4278
24097SOL    HW177138   5.991   3.527   2.889 -1.3707  0.8871 -0.4087
24097SOL    HW277139   5.859   3.453   2.896  0.4007 -2.1572  1.6335
24098SOL     OW77140   7.923   4.550   3.983  0.0123  0.8910  0.1598
24098SOL    HW177141   7.960   4.635   4.008 -0.3681  1.2043 -0.3349
24098SOL    HW277142   7.980   4.520   3.912  1.6873 -0.4533  2.0047
24099SOL     OW77143   8.208   4.114   5.182  0.4521  0.1497  0.0331
24099SOL    HW177144   8.177   4.169   5.255 -1.6635  1.1585 -1.5883
24099SOL    HW277145   8.141   4.123   5.115  2.7710 -0.0758 -2.4121
24100SOL     OW77146   6.459   3.648   4.303 -0.0867  0.3442 -0.2092
24100SOL    HW177147   6.507   3.604   4.233  0.1588 -0.1293  0.2469
24100SOL    HW277148   6.368   3.647   4.274 -0.1394 -0.7916 -0.0564
24101SOL     OW77149   0.053   2.411   3.967 -0.3851  0.1656  0.4905
24101SOL    HW177150   0.144   2.426   3.942 -0.3311 -0.2125  0.4631
24101SOL    HW277151   0.045   2.317   3.978 -1.0468  0.0843 -0.5879
24102SOL     OW77152   5.859   3.554   3.436 -0.2868  0.7929 -0.2482
24102SOL    HW177153   5.898   3.635   3.470 -1.0278  0.8625  0.4517
24102SOL    HW277154   5.839   3.502   3.514 -0.2915  0.1613 -0.6696
24103SOL     OW77155   8.703   2.767   5.648 -0.6670  0.2283  0.2106
24103SOL    HW177156   8.697   2.776   5.553  0.6258  2.4663  0.3312
24103SOL    HW277157   8.797   2.767   5.667 -0.9330  0.8564  1.5922
24104SOL     OW77158   8.218   2.663   3.542 -0.0027 -0.2617 -0.1952
24104SOL    HW177159   8.198   2.618   3.624 -2.1481 -2.1039 -1.6854
24104SOL    HW277160   8.300   2.625   3.512  2.0102  2.0103  2.1604
24105SOL     OW77161   5.980   2.772   4.764  0.2978  0.4343  0.2456
24105SOL    HW177162   5.885   2.756   4.767  0.2576  0.5921 -0.1012
24105SOL    HW277163   6.005   2.745   4.675  0.2377  2.2510 -0.3400
24106SOL     OW77164   7.597   1.797   4.518 -0.3118  0.5677 -0.2965
24106SOL    HW177165   7.512   1.836   4.542 -0.4220  0.2183 -0.1047
24106SOL    HW277166   7.575   1.707   4.494  0.3081 -0.2929  2.1818
24107SOL     OW77167   9.990   3.349   5.653  0.1345 -0.6565  0.1771
24107SOL    HW177168  10.082   3.343   5.679  0.4883 -1.4098 -1.2328
24107SOL    HW277169   9.976   3.442   5.634  0.4043 -0.4260  1.0744
24108SOL     OW77170   8.215   0.864   3.992 -0.0663  0.0942  0.4159
24108SOL    HW177171   8.288   0.811   4.025  0.3244 -0.0530 -0.6360
24108SOL    HW277172   8.257   0.935   3.944 -0.6043  0.8062  1.0053
24109SOL     OW77173   7.723   2.128   4.819 -0.1692 -0.2107  0.1699
24109SOL    HW177174   7.755   2.039   4.827  2.0516  0.6247  0.7673
24109SOL    HW277175   7.744   2.154   4.730  2.1018  0.8033  0.9713
24110SOL     OW77176   8.359   3.056   4.670 -0.3882  0.2818  0.3713
24110SOL    HW177177   8.272   3.023   4.693  0.9266 -2.0704  2.1942
24110SOL    HW277178   8.405   2.980   4.636  0.3729  1.9496 -2.4673
24111SOL     OW77179   8.335   3.571   4.959  0.2797 -0.2576 -0.2016
24111SOL    HW177180   8.337   3.644   4.897 -0.6617 -0.2160 -0.1911
24111SOL    HW277181   8.405   3.513   4.930  0.3093  0.1103 -0.8834
24112SOL     OW77182   7.653   1.118   3.705  0.4203 -0.2010  0.0868
24112SOL    HW177183   7.587   1.128   3.636  0.7191  0.2599 -0.1285
24112SOL    HW277184   7.633   1.187   3.768  0.3574 -0.4087  0.2946
24113SOL     OW77185   7.696   3.552   6.114  0.2941  0.1737  0.1269
24113SOL    HW177186   7.701   3.487   6.044  1.5364 -0.5774  0.8850
24113SOL    HW277187   7.703   3.500   6.195  3.1485  1.3879  0.7164
24114SOL     OW77188   8.773   3.707   3.731  0.0952  0.1383 -0.7380
24114SOL    HW177189   8.748   3.642   3.798  1.4626 -0.3516 -0.6832
24114SOL    HW277190   8.742   3.790   3.766  0.8602 -0.1061  0.5537
24115SOL     OW77191   8.137   2.921   3.489  0.4099 -0.2880  0.6760
24115SOL    HW177192   8.200   2.976   3.535  2.6581 -1.8179 -0.4526
24115SOL    HW277193   8.172   2.832   3.499 -0.5614 -0.9563 -1.5760
24116SOL     OW77194   0.160   2.886   4.155 -0.3377 -0.2386  0.0003
24116SOL    HW177195   0.224   2.862   4.222  0.5103 -0.2104 -0.7913
24116SOL    HW277196   0.093   2.819   4.161 -0.9977  0.5639  1.8464
24117SOL     OW77197   9.153   2.215   6.127 -0.5024 -0.5457  0.6749
24117SOL    HW177198   9.236   2.226   6.081 -1.1070 -0.5636 -0.4317
24117SOL    HW277199   9.168   2.256   6.212  0.3595  0.2554  0.1572
24118SOL     OW77200   9.452   2.826   6.233  0.6293  0.5040 -0.1958
24118SOL    HW177201   9.534   2.809   6.278 -0.2046 -0.6928  0.9218
24118SOL    HW277202   9.431   2.744   6.188 -0.3760  0.5242  0.2225
24119SOL     OW77203   7.360   2.359   5.478 -0.5135  0.4950 -0.0170
24119SOL    HW177204   7.423   2.320   5.417 -0.8004  0.2631 -0.1682
24119SOL    HW277205   7.363   2.303   5.555  1.8766  2.3566  1.3056
24120SOL     OW77206   9.189   1.638   4.767  0.3142  0.2771  0.1413
24120SOL    HW177207   9.167   1.594   4.850  0.1339  1.2836  0.6282
24120SOL    HW277208   9.221   1.724   4.793  1.4702  0.1259 -0.7772
24121SOL     OW77209   7.379   3.145   5.261  0.1627  0.3674  1.3983
24121SOL    HW177210   7.410   3.076   5.319  0.8372 -2.8007 -2.5032
24121SOL    HW277211   7.285   3.150   5.279  0.0798 -1.6353  1.7005
24122SOL     OW77212   7.831   2.598   4.376  0.2219  0.8617  0.2444
24122SOL    HW177213   7.783   2.579   4.458 -1.5440  0.6516 -0.8073
24122SOL    HW277214   7.843   2.512   4.335 -0.3306  1.1333 -0.4903
24123SOL     OW77215   8.000   2.035   3.640 -0.2850  0.0978 -0.2266
24123SOL    HW177216   8.064   2.105   3.631 -0.1203  0.4274  2.7990
24123SOL    HW277217   8.034   1.963   3.587  1.1228  1.2575 -0.8933
24124SOL     OW77218   8.760   2.564   5.221  0.0274 -0.0052  0.3740
24124SOL    HW177219   8.785   2.559   5.313  2.0408 -0.6530 -0.1938
24124SOL    HW277220   8.777   2.476   5.186 -3.5217 -0.6485  0.0457
24125SOL     OW77221   9.576   2.716   3.553  0.0245  0.5161 -0.5596
24125SOL    HW177222   9.494   2.708   3.505  0.4826  1.5073 -1.5666
24125SOL    HW277223   9.565   2.663   3.631 -1.3908  0.2587 -0.9275
24126SOL     OW77224   6.505   2.639   3.441 -0.0209  0.1214  0.3328
24126SOL    HW177225   6.506   2.645   3.536  0.7491  0.4968  0.3044
24126SOL    HW277226   6.587   2.594   3.418 -1.9838 -3.5068  0.0605
24127SOL     OW77227   7.887   3.824   4.652  0.0340  0.1978  0.4329
24127SOL    HW177228   7.833   3.767   4.596 -0.9029  1.2354  0.2726
24127SOL    HW277229   7.886   3.909   4.608  0.3987  0.6651  1.3246
24128SOL     OW77230   7.933   4.973   4.654 -0.0716  0.5113 -0.8545
24128SOL    HW177231   7.950   4.905   4.588  0.3058 -1.2854  1.0578
24128SOL    HW277232   8.019   5.009   4.674  0.6756 -3.0059  2.8876
24129SOL     OW77233   7.933   2.421   5.331  0.3805  0.1018  0.1793
24129SOL    HW177234   7.904   2.491   5.273 -0.4445 -0.1951  0.2302
24129SOL    HW277235   8.004   2.460   5.382  1.4453  0.2125 -1.3686
24130SOL     OW77236   8.280   0.978   3.490 -0.5534  0.3220 -0.3079
24130SOL    HW177237   8.324   0.898   3.459  0.3594  0.0034  1.7445
24130SOL    HW277238   8.187   0.955   3.489 -0.4007 -0.3149 -0.9941
24131SOL     OW77239   9.101   3.298   5.387  0.2890 -0.0384  0.0575
24131SOL    HW177240   9.094   3.375   5.330  2.8997 -1.1996 -1.9233
24131SOL    HW277241   9.102   3.223   5.327  2.5951 -1.3228  1.6437
24132SOL     OW77242   8.330   2.512   6.120 -0.8949  0.1498  0.1173
24132SOL    HW177243   8.264   2.455   6.159 -0.8057  0.3412  0.5443
24132SOL    HW277244   8.390   2.452   6.076 -0.4658 -0.1281  1.0712
24133SOL     OW77245   0.104   3.976   4.828  0.1773 -1.2406 -0.3428
24133SOL    HW177246   0.065   4.052   4.870  3.7884  1.0194 -0.8684
24133SOL    HW277247   0.110   3.911   4.898 -0.3156 -0.0108  0.8669
24134SOL     OW77248   8.675   3.450   6.345  0.3668  0.0015  0.0112
24134SOL    HW177249   8.735   3.503   6.399 -1.2927  2.4686 -0.4532
24134SOL    HW277250   8.722   3.439   6.262  0.6839  0.9380  0.0503
24135SOL     OW77251   9.076   4.900   4.145 -0.4979 -0.5351  0.0251
24135SOL    HW177252   9.091   4.988   4.110  1.4630 -1.7801 -2.3813
24135SOL    HW277253   9.051   4.915   4.236  3.5234  2.3598  0.7810
24136SOL     OW77254   7.860   4.064   4.521  0.1532  0.0994  0.3550
24136SOL    HW177255   7.917   4.131   4.560 -1.6829  1.2010  1.1965
24136SOL    HW277256   7.877   4.070   4.427 -1.2372  2.9650  0.2359
24137SOL     OW77257   8.924   2.394   4.861 -0.1017  0.1332 -0.6179
24137SOL    HW177258   8.945   2.485   4.884 -0.4762  0.0568  0.0201
24137SOL    HW277259   9.010   2.353   4.848  0.0826  0.4755 -0.5068
24138SOL     OW77260   6.856   5.241   4.564  0.4252 -0.3065 -0.1990
24138SOL    HW177261   6.893   5.288   4.639  0.8444  1.4353 -1.4827
24138SOL    HW277262   6.880   5.293   4.488 -0.2721 -1.8905 -1.5418
24139SOL     OW77263   9.910   1.661   5.042 -0.0457  0.3828 -0.1078
24139SOL    HW177264   9.923   1.697   4.954 -0.5888  0.9473  0.0315
24139SOL    HW277265   9.914   1.738   5.100 -2.2736  0.3892  0.0913
24140SOL     OW77266   9.820   1.952   6.674 -0.6821  0.3707  0.4388
24140SOL    HW177267   9.765   1.950   6.596 -0.5082 -0.7620  0.3479
24140SOL    HW277268   9.795   2.034   6.718 -1.3210  0.6366 -0.4002
24141SOL     OW77269   8.762   2.574   4.559 -0.1864 -0.7302 -0.0598
24141SOL    HW177270   8.837   2.594   4.503 -1.7473  2.4700 -1.1482
24141SOL    HW277271   8.713   2.508   4.511  0.0622 -0.1983 -1.0609
24142SOL     OW77272   7.888   1.012   5.664 -0.1950 -0.3199 -0.0788
24142SOL    HW177273   7.957   0.945   5.659 -0.1912 -0.2970 -0.3555
24142SOL    HW277274   7.899   1.063   5.583 -0.9239 -0.6894 -0.4113
24143SOL     OW77275   6.494   2.643   4.591  0.0200  0.1550 -0.3360
24143SOL    HW177276   6.529   2.584   4.524  1.8791 -0.3573  1.0619
24143SOL    HW277277   6.403   2.614   4.604  0.1383 -0.7536 -1.4751
24144SOL     OW77278   8.135   3.044   4.989 -0.3669 -0.2005 -0.0831
24144SOL    HW177279   8.103   2.971   5.040  1.0070 -0.5072  0.3588
24144SOL    HW277280   8.225   3.021   4.967  0.0378  1.2732 -0.0712
24145SOL     OW77281   8.026   1.267   4.638  0.3121 -0.1092 -0.1080
24145SOL    HW177282   7.959   1.286   4.572  2.3488  2.4723 -1.4997
24145SOL    HW277283   8.002   1.322   4.712 -0.1873 -0.6553  0.1437
24146SOL     OW77284   7.358   3.270   2.826 -0.5536  0.3785 -0.0728
24146SOL    HW177285   7.284   3.209   2.830 -0.9383  0.9158  1.2927
24146SOL    HW277286   7.427   3.227   2.877 -0.2368  0.2951 -0.5724
24147SOL     OW77287   5.623   2.741   4.052 -0.0916  0.3224 -0.5503
24147SOL    HW177288   5.650   2.654   4.082  0.7535  0.9969  0.7007
24147SOL    HW277289   5.575   2.725   3.971 -1.2534 -1.4258  0.4594
24148SOL     OW77290   9.402   3.209   5.052  0.1978  0.2244 -0.1181
24148SOL    HW177291   9.393   3.136   4.991 -0.5999 -0.6335  0.9975
24148SOL    HW277292   9.460   3.176   5.121 -0.3303  0.5626  0.4914
24149SOL     OW77293   7.564   3.233   7.131 -0.1244 -0.0386  0.3751
24149SOL    HW177294   7.632   3.244   7.197  1.9530 -0.9981 -1.5272
24149SOL    HW277295   7.594   3.284   7.056 -2.4072  0.9861  0.1082
24150SOL     OW77296   8.905   1.639   3.398 -0.2046 -0.4833  0.6376
24150SOL    HW177297   8.844   1.567   3.386  0.7473 -0.9779 -1.4281
24150SOL    HW277298   8.975   1.603   3.452 -0.1752 -0.8340  0.3637
24151SOL     OW77299   7.606   2.282   4.556 -0.0750 -0.3631  0.6124
24151SOL    HW177300   7.689   2.328   4.566 -0.0883 -0.5983  1.8456
24151SOL    HW277301   7.619   2.226   4.479 -0.6311  2.9026 -1.9772
24152SOL     OW77302   7.769   2.741   5.498 -0.2782  0.4888 -0.1040
24152SOL    HW177303   7.806   2.722   5.584  0.9159  2.0330 -0.2631
24152SOL    HW277304   7.844   2.763   5.443 -1.1964  1.3717 -1.0376
24153SOL     OW77305   8.349   4.624   4.957  0.2442 -0.1813 -0.1275
24153SOL    HW177306   8.264   4.594   4.990  0.4967 -3.3581 -2.1254
24153SOL    HW277307   8.413   4.575   5.008  0.9053  2.1333  1.3035
24154SOL     OW77308   9.389   2.680   5.364 -0.4294  0.1235  0.0536
24154SOL    HW177309   9.450   2.705   5.295 -0.2373 -0.0693  0.1510
24154SOL    HW277310   9.354   2.595   5.336  0.6051 -0.5751  0.7940
24155SOL     OW77311   9.743   3.785   3.473  0.4126 -0.2478 -0.4061
24155SOL    HW177312   9.681   3.747   3.410  0.1030  0.7572 -0.7089
24155SOL    HW277313   9.822   3.800   3.422  0.6769 -0.8750 -0.1851
24156SOL     OW77314   8.185   3.771   3.552 -0.6423  0.3751 -0.1848
24156SOL    HW177315   8.172   3.696   3.495 -0.9485  0.2106  0.1004
24156SOL    HW277316   8.166   3.847   3.497  2.0785  0.3716 -1.1881
24157SOL     OW77317   8.356   4.864   4.381 -0.2040 -0.0195  0.0485
24157SOL    HW177318   8.449   4.883   4.372 -0.1097 -0.3971  0.2208
24157SOL    HW277319   8.341   4.788   4.324 -0.2531 -0.4318  0.6113
24158SOL     OW77320   9.693   4.193   6.518  0.3081 -0.4489  0.0043
24158SOL    HW177321   9.740   4.224   6.441  0.5943  1.7461  1.0145
24158SOL    HW277322   9.756   4.199   6.590 -0.3014 -1.3474  0.6360
24159SOL     OW77323   8.529   3.959   5.214 -0.3016 -0.0024  0.4618
24159SOL    HW177324   8.579   3.956   5.296 -2.1160  0.1873  1.6053
24159SOL    HW277325   8.447   3.914   5.235 -0.6019 -0.3255 -1.3851
24160SOL     OW77326   7.742   4.258   6.805 -0.4155  0.0523  0.2152
24160SOL    HW177327   7.720   4.351   6.793  0.2086  0.2838  0.8293
24160SOL    HW277328   7.660   4.216   6.828 -0.5587  0.5904  0.6950
24161SOL     OW77329   9.212   4.087   3.824  0.2036  0.0153  0.3014
24161SOL    HW177330   9.206   4.169   3.776  0.7219  0.0792  0.3429
24161SOL    HW277331   9.303   4.083   3.854 -0.1453  0.0253  1.3701
24162SOL     OW77332   0.537   2.552   4.971  0.3700  0.4710  0.1772
24162SOL    HW177333   0.516   2.494   4.898  1.9258 -1.2241  1.0331
24162SOL    HW277334   0.631   2.566   4.965  0.6727 -0.4124  2.3245
24163SOL     OW77335   0.155   0.955   4.892 -0.1234 -0.1992  0.4316
24163SOL    HW177336   0.226   0.981   4.834  0.5012  0.0637  1.3070
24163SOL    HW277337   0.173   0.863   4.913 -0.9255 -0.6056 -0.6190
24164SOL     OW77338   7.946   2.674   3.854  0.1898 -0.3713  0.1885
24164SOL    HW177339   7.930   2.675   3.759 -0.8373  1.5618  0.3461
24164SOL    HW277340   7.971   2.584   3.873  0.1517 -0.8562 -1.8878
24165SOL     OW77341   8.737   3.481   4.935  0.2694  0.9246 -0.8138
24165SOL    HW177342   8.773   3.414   4.993 -1.5932  0.2280 -0.4133
24165SOL    HW277343   8.742   3.562   4.986 -0.5303  0.4778  0.0037
24166SOL     OW77344   7.837   3.147   7.015 -0.4500 -0.5893  0.0561
24166SOL    HW177345   7.811   3.236   6.990  0.0571 -0.4310  0.0820
24166SOL    HW277346   7.876   3.109   6.936 -0.8979 -0.8760 -0.0246
24167SOL     OW77347   9.021   1.674   4.042 -0.4261 -0.3542  0.2717
24167SOL    HW177348   9.083   1.726   3.992  0.2477 -1.1630  0.2642
24167SOL    HW277349   8.997   1.730   4.116  1.5771 -0.6469  1.1845
24168SOL     OW77350   6.343   2.998   4.838 -0.2087  0.1175  0.0529
24168SOL    HW177351   6.404   2.924   4.843  0.4969  0.7695  1.2447
24168SOL    HW277352   6.370   3.045   4.759  0.4735  0.0815  0.2582
24169SOL     OW77353   7.264   4.258   4.239 -0.2861 -0.1028 -0.2575
24169SOL    HW177354   7.347   4.276   4.195  0.6653 -2.3039  0.5631
24169SOL    HW277355   7.286   4.256   4.332 -1.0515 -1.6063 -0.0836
24170SOL     OW77356   7.345   2.070   4.854 -0.4682 -0.4521  1.0960
24170SOL    HW177357   7.404   2.089   4.927 -0.4183  1.6839  0.5529
24170SOL    HW277358   7.260   2.057   4.895 -0.2182 -0.4135  1.6348
24171SOL     OW77359   8.356   3.386   6.257 -0.5619  0.1773 -0.9990
24171SOL    HW177360   8.444   3.405   6.288 -0.7382 -0.7850  0.1083
24171SOL    HW277361   8.341   3.295   6.280 -2.7761  1.0214  1.0869
24172SOL     OW77362   9.095   3.812   3.894  1.1393  0.2743 -0.3503
24172SOL    HW177363   9.073   3.726   3.930 -0.0025  0.7078  0.0134
24172SOL    HW277364   9.184   3.803   3.862  1.1549 -0.9399  0.0292
24173SOL     OW77365   7.423   2.282   5.744 -0.1256  0.5327  0.0228
24173SOL    HW177366   7.494   2.284   5.808 -0.4195 -1.2389  0.4264
24173SOL    HW277367   7.361   2.218   5.779 -1.4381  1.3058 -0.8406
24174SOL     OW77368   6.907   2.959   5.016  0.1019  0.0396  0.1625
24174SOL    HW177369   6.862   2.876   5.010  0.1139  0.0214  0.3226
24174SOL    HW277370   6.842   3.025   4.992  0.7748 -0.2041 -2.4319
24175SOL     OW77371   8.295   2.762   5.653  0.5962 -0.0563  0.3392
24175SOL    HW177372   8.362   2.709   5.609 -1.0958 -1.6064 -0.3899
24175SOL    HW277373   8.212   2.732   5.617 -0.6893  0.1087  3.0635
24176SOL     OW77374   0.245   0.658   5.184 -0.1173  0.0866  0.1364
24176SOL    HW177375   0.194   0.720   5.236 -0.2281  1.3433 -1.4489
24176SOL    HW277376   0.243   0.693   5.095  3.5984  0.1907  0.0443
24177SOL     OW77377   9.053   0.902   5.010  0.3535  0.0175 -0.0365
24177SOL    HW177378   9.058   0.926   4.917 -1.3371  1.2316  0.1732
24177SOL    HW277379   9.119   0.957   5.052 -0.6886  1.3612 -0.1493
24178SOL     OW77380   6.249   2.425   3.558  0.3330  0.1485  0.1556
24178SOL    HW177381   6.338   2.401   3.532  0.0356 -0.6636 -0.1291
24178SOL    HW277382   6.261   2.484   3.632  1.1303  0.7655 -0.4561
24179SOL     OW77383   0.684   2.099   3.992  0.0152  0.3040 -0.1469
24179SOL    HW177384   0.671   2.063   4.080 -1.5784 -0.0067 -0.4836
24179SOL    HW277385   0.602   2.146   3.974  1.2733  2.3811 -0.5163
24180SOL     OW77386   8.313   2.203   4.820 -0.5785  0.0241  0.1867
24180SOL    HW177387   8.267   2.163   4.747 -0.5023 -0.2106  0.2659
24180SOL    HW277388   8.353   2.130   4.867  0.6656  0.3114 -0.4160
24181SOL     OW77389   6.117   2.625   2.765 -0.1645 -0.3430  0.3275
24181SOL    HW177390   6.209   2.625   2.737 -0.1850  0.5195  0.2311
24181SOL    HW277391   6.070   2.665   2.692 -1.1518 -4.1550 -1.2343
24182SOL     OW77392   7.512   1.640   3.605  0.1817  0.3935 -0.6886
24182SOL    HW177393   7.459   1.599   3.537  1.0111  1.4603 -2.0078
24182SOL    HW277394   7.530   1.728   3.572  2.1084  0.3132  0.0894
24183SOL     OW77395   8.157   3.085   6.594  0.3427  0.0684 -0.1416
24183SOL    HW177396   8.127   3.133   6.516 -2.6968  0.2658  1.1045
24183SOL    HW277397   8.205   3.010   6.559  0.0901  0.8356 -2.1948
24184SOL     OW77398   7.202   2.573   2.949  0.1847 -0.0124  0.2402
24184SOL    HW177399   7.178   2.617   3.031 -1.8293 -0.4517 -0.0747
24184SOL    HW277400   7.182   2.480   2.966  1.8521 -0.4264 -0.0052
24185SOL     OW77401   0.229   1.700   5.031 -0.0920 -0.4221 -0.1704
24185SOL    HW177402   0.216   1.778   4.978  1.1244 -0.5709 -0.6944
24185SOL    HW277403   0.199   1.627   4.976 -1.4944 -0.3239  0.4231
24186SOL     OW77404   8.480   2.812   4.601 -0.2127 -0.3376 -0.4486
24186SOL    HW177405   8.431   2.730   4.598 -1.5910  0.5208 -1.6583
24186SOL    HW277406   8.526   2.816   4.517 -1.1849  0.7670 -0.9261
24187SOL     OW77407   8.259   3.653   4.119 -0.2096  0.1410  0.1647
24187SOL    HW177408   8.333   3.687   4.067 -0.1677 -0.9618 -0.4991
24187SOL    HW277409   8.301   3.608   4.192 -0.2600  1.1613  0.8302
24188SOL     OW77410   8.442   3.607   5.286 -0.7451 -0.2339 -0.2645
24188SOL    HW177411   8.534   3.580   5.294 -0.2773  1.5302  0.5565
24188SOL    HW277412   8.402   3.579   5.368 -0.3664  1.0945  0.3927
24189SOL     OW77413   7.395   2.916   5.040 -0.1448 -0.0314 -0.0186
24189SOL    HW177414   7.312   2.934   4.994 -0.2485 -0.2634  0.0748
24189SOL    HW277415   7.413   2.997   5.088 -1.9487 -1.0556  2.4648
24190SOL     OW77416   8.215   1.473   5.235  0.6060 -0.8191  0.4930
24190SOL    HW177417   8.134   1.496   5.281  1.6682  0.4762  1.7546
24190SOL    HW277418   8.243   1.555   5.194  3.1478 -0.3740  3.0176
24191SOL     OW77419   6.964   2.816   5.922 -0.2445  0.3287 -0.1226
24191SOL    HW177420   7.042   2.785   5.876  1.1474 -2.1459  3.7237
24191SOL    HW277421   6.902   2.743   5.916  0.1572 -0.2515  2.2914
24192SOL     OW77422   7.010   2.408   7.447 -0.3833  0.6728  0.1366
24192SOL    HW177423   7.012   2.318   7.413 -0.4473  1.0686 -0.9259
24192SOL    HW277424   7.098   2.441   7.432 -0.8796  1.4147 -1.1909
24193SOL     OW77425   8.518   1.421   5.110  0.1004 -0.0522 -0.0858
24193SOL    HW177426   8.452   1.383   5.052 -0.8182  0.7274  0.4477
24193SOL    HW277427   8.544   1.348   5.167 -1.5231  0.0280  0.8033
24194SOL     OW77428   7.742   2.122   3.583 -0.3115  0.0711  0.2320
24194SOL    HW177429   7.741   2.190   3.516  0.2481  0.7162  0.8740
24194SOL    HW277430   7.834   2.097   3.591 -0.3228  0.2659  1.0217
24195SOL     OW77431   6.796   1.524   4.766 -0.5134  0.4968 -0.1312
24195SOL    HW177432   6.779   1.607   4.722 -3.0934  0.2011  0.2020
24195SOL    HW277433   6.786   1.458   4.697  1.3154  0.4312 -0.3495
24196SOL     OW77434   9.603   3.863   3.740 -0.2703  0.2422 -0.3226
24196SOL    HW177435   9.648   3.870   3.656 -0.1495  2.6562 -0.0765
24196SOL    HW277436   9.672   3.846   3.803 -0.1638  0.1373 -0.4662
24197SOL     OW77437   8.694   3.715   5.082  0.3603 -0.3563  0.4582
24197SOL    HW177438   8.681   3.659   5.159  2.2206 -0.1856  0.9097
24197SOL    HW277439   8.733   3.795   5.118  1.9578 -0.5796 -0.7528
24198SOL     OW77440   8.895   1.452   4.654 -0.6065  0.5130 -0.1602
24198SOL    HW177441   8.929   1.488   4.572  0.6502  1.1248  0.6115
24198SOL    HW277442   8.847   1.524   4.694  1.3885  1.2053  1.0910
24199SOL     OW77443   7.085   2.122   5.562  0.3056 -0.0627 -0.4385
24199SOL    HW177444   7.152   2.053   5.557  0.2898 -0.1454  0.4315
24199SOL    HW277445   7.005   2.076   5.588  0.3020  0.2827  0.1815
24200SOL     OW77446   0.331   2.065   5.561  0.5703  0.0539  0.1690
24200SOL    HW177447   0.341   2.158   5.582  3.4333  0.6837 -3.5642
24200SOL    HW277448   0.393   2.022   5.620 -0.5591  0.4857  1.7174
24201SOL     OW77449   9.366   2.893   4.854 -0.0657 -0.0725 -0.0320
24201SOL    HW177450   9.443   2.938   4.819 -0.8404  2.9218  1.9657
24201SOL    HW277451   9.400   2.837   4.924  0.3381  1.1228  0.7420
24202SOL     OW77452   8.654   2.972   6.508  0.0607 -0.6571  0.6853
24202SOL    HW177453   8.633   3.043   6.447 -0.1634 -0.5575  0.8781
24202SOL    HW277454   8.721   3.008   6.565 -0.5685 -0.3500  1.2463
24203SOL     OW77455   8.348   3.144   5.948 -0.1827 -0.1201 -0.9788
24203SOL    HW177456   8.417   3.083   5.922  0.5296 -0.0289  0.5927
24203SOL    HW277457   8.267   3.095   5.938  0.4694 -1.8005  1.4115
24204SOL     OW77458   9.337   2.023   6.661  0.5693  0.1844 -0.2075
24204SOL    HW177459   9.288   2.042   6.581 -0.3147 -0.5849  0.1442
24204SOL    HW277460   9.299   1.941   6.693  0.0679  1.1191  1.6552
24205SOL     OW77461   7.613   2.547   5.268 -0.2408 -0.1351 -0.2440
24205SOL    HW177462   7.553   2.496   5.322 -0.4369 -0.1996 -0.5208
24205SOL    HW277463   7.675   2.586   5.331 -0.3586 -0.3515  0.0069
24206SOL     OW77464   9.448   3.046   5.415 -0.0440 -0.6872 -0.0698
24206SOL    HW177465   9.513   2.975   5.416 -0.0779 -0.7226 -0.3066
24206SOL    HW277466   9.499   3.124   5.393 -0.0117 -0.6453  0.1514
24207SOL     OW77467   9.704   2.920   4.087  0.2726  0.2236  0.4854
24207SOL    HW177468   9.716   2.826   4.073  2.0733  0.5121 -0.0715
24207SOL    HW277469   9.721   2.932   4.180  2.7901  0.3547  0.0524
24208SOL     OW77470   7.669   3.633   3.105 -0.6681 -0.0530  0.2298
24208SOL    HW177471   7.619   3.561   3.067 -0.9000 -0.0937  0.6104
24208SOL    HW277472   7.711   3.596   3.182  1.7324 -0.6041 -1.2922
24209SOL     OW77473   9.085   5.202   5.236 -0.2138 -0.1238  0.3601
24209SOL    HW177474   9.138   5.226   5.312  0.0526  0.4912 -0.0104
24209SOL    HW277475   9.141   5.224   5.161 -0.2388 -1.2868 -0.0017
24210SOL     OW77476   5.818   4.013   3.632  0.0991 -0.0246 -0.2743
24210SOL    HW177477   5.838   4.092   3.682  1.9530 -0.0182 -0.9971
24210SOL    HW277478   5.800   3.946   3.698 -0.3342  0.7067  0.3527
24211SOL     OW77479   9.300   4.215   5.290 -0.3162 -0.1495  0.6498
24211SOL    HW177480   9.394   4.232   5.288 -0.3432 -0.1162 -1.3004
24211SOL    HW277481   9.259   4.301   5.294 -0.2739 -0.1370  0.8031
24212SOL     OW77482   9.623   1.696   2.361  0.6910 -0.2902 -0.2517
24212SOL    HW177483   9.631   1.605   2.388  1.9704  0.0611  0.6119
24212SOL    HW277484   9.680   1.704   2.285  2.1474  0.2373  0.8646
24213SOL     OW77485   8.663   2.924   4.350 -0.1672 -0.2623  0.0359
24213SOL    HW177486   8.660   3.018   4.331  2.0035  0.1733  1.6584
24213SOL    HW277487   8.601   2.885   4.289 -3.3135  2.5358  1.2985
24214SOL     OW77488   6.967   3.544   6.713  0.4244  0.0544  0.1489
24214SOL    HW177489   6.999   3.532   6.624 -1.3156  0.0076 -0.4804
24214SOL    HW277490   6.958   3.639   6.724  0.3176  0.0426  0.1652
24215SOL     OW77491   8.140   3.184   4.088 -0.6993 -0.3428 -0.7960
24215SOL    HW177492   8.181   3.100   4.071 -1.5439 -1.0044  0.3954
24215SOL    HW277493   8.209   3.238   4.127 -0.2728 -0.6065 -1.1898
24216SOL     OW77494   7.448   2.951   4.689 -0.3739 -0.1780  0.4663
24216SOL    HW177495   7.383   2.909   4.745  1.0289  0.3217  2.4926
24216SOL    HW277496   7.446   3.043   4.714  0.9947 -0.1220  0.4350
24217SOL     OW77497   7.472   3.665   3.466 -0.2912 -0.1672 -0.3466
24217SOL    HW177498   7.415   3.671   3.543  0.7260  0.5116  0.3746
24217SOL    HW277499   7.560   3.680   3.501  0.4245 -2.0386 -1.3024
24218SOL     OW77500   8.988   3.676   4.480 -0.3193  0.1080 -0.4057
24218SOL    HW177501   8.943   3.621   4.543 -0.7787  0.1485 -0.6973
24218SOL    HW277502   8.999   3.621   4.403 -2.6599  1.0648 -1.4666
24219SOL     OW77503   8.691   0.109   2.498 -0.0939 -0.3554  0.2199
24219SOL    HW177504   8.690   0.015   2.477 -0.3605 -0.1955 -0.4870
24219SOL    HW277505   8.783   0.128   2.516  0.1392 -0.5082 -0.7711
24220SOL     OW77506   8.695   3.629   3.486 -0.2537 -0.0559  0.0692
24220SOL    HW177507   8.750   3.551   3.491  2.6566  1.9598  0.8671
24220SOL    HW277508   8.721   3.682   3.562 -2.0065  1.7624 -0.5527
24221SOL     OW77509   9.966   4.438   5.463 -0.1336 -0.3067 -0.0372
24221SOL    HW177510  10.048   4.466   5.423 -1.0268  0.5952 -1.2853
24221SOL    HW277511   9.963   4.483   5.547 -0.6295  1.8509 -1.1737
24222SOL     OW77512   7.859   2.440   4.763 -0.7863  0.3887 -0.2094
24222SOL    HW177513   7.813   2.375   4.816  1.4974 -0.5633  0.6744
24222SOL    HW277514   7.888   2.392   4.685  0.5751  0.4233  0.2629
24223SOL     OW77515   8.768   3.828   3.093  0.1497 -0.4437  0.1649
24223SOL    HW177516   8.829   3.766   3.054  0.9577 -0.4758  1.4450
24223SOL    HW277517   8.820   3.907   3.106 -0.2597 -0.2504  0.6320
24224SOL     OW77518   7.768   3.879   5.801  0.0969 -0.4135  0.0998
24224SOL    HW177519   7.709   3.812   5.768 -0.4626  0.4614 -0.7038
24224SOL    HW277520   7.746   3.885   5.894  0.6161 -1.8010  0.3225
24225SOL     OW77521   8.269   4.159   3.618 -0.0478  0.1671 -0.1737
24225SOL    HW177522   8.259   4.147   3.712  0.7401 -0.2603 -0.1327
24225SOL    HW277523   8.221   4.086   3.579 -0.0406  0.1186 -0.0920
24226SOL     OW77524   7.847   2.916   5.113 -0.2908 -0.3004 -0.3225
24226SOL    HW177525   7.857   2.821   5.118 -2.4467 -0.5353  0.1729
24226SOL    HW277526   7.809   2.932   5.027  2.8857  0.4192 -1.6410
24227SOL     OW77527   9.500   2.307   4.143  0.2233 -0.2480  0.7431
24227SOL    HW177528   9.511   2.341   4.232 -0.9866 -2.3737  1.7434
24227SOL    HW277529   9.532   2.217   4.148  2.6766  0.4271 -1.6778
24228SOL     OW77530   6.844   3.522   4.436 -0.2239  0.0665 -0.4165
24228SOL    HW177531   6.809   3.598   4.481  0.7989  0.2700  0.0520
24228SOL    HW277532   6.937   3.541   4.424  0.1464 -1.3090  0.1445
24229SOL     OW77533   7.687   4.805   3.400 -0.2417 -0.5009  0.2537
24229SOL    HW177534   7.640   4.754   3.467  1.1424  0.2001  1.8012
24229SOL    HW277535   7.728   4.739   3.345 -0.6284 -1.0890  0.6581
24230SOL     OW77536   6.909   1.743   7.299  0.0412  0.5271  0.1280
24230SOL    HW177537   6.952   1.739   7.384 -1.5436  0.5942  0.9528
24230SOL    HW277538   6.950   1.818   7.255  2.5341 -0.9577 -0.1248
24231SOL     OW77539   9.984   1.939   3.499  0.1001  0.2739 -0.4361
24231SOL    HW177540   9.981   2.012   3.438 -0.1394 -1.4076 -2.4847
24231SOL    HW277541  10.072   1.944   3.538 -0.2594  2.2018  0.1593
24232SOL     OW77542   8.782   1.071   3.371 -0.0998 -0.8490  0.1964
24232SOL    HW177543   8.738   0.987   3.379  0.7596 -1.2091  1.2342
24232SOL    HW277544   8.777   1.109   3.459 -1.9013  0.9170 -0.6192
24233SOL     OW77545   9.276   2.785   4.183  0.1393 -0.2438  0.2893
24233SOL    HW177546   9.330   2.811   4.258 -0.3268 -0.4059  0.6751
24233SOL    HW277547   9.187   2.781   4.217  0.1177 -1.7432  0.0763
24234SOL     OW77548   7.054   0.984   3.101 -0.3477 -0.0822 -0.0760
24234SOL    HW177549   7.143   0.994   3.134 -0.6340  1.8393  0.1622
24234SOL    HW277550   7.057   0.906   3.046  1.0907 -0.9605  1.2259
24235SOL     OW77551   8.910   4.232   4.269  0.0055 -0.4412 -0.7440
24235SOL    HW177552   8.949   4.180   4.199 -0.4638  0.4453 -1.6828
24235SOL    HW277553   8.816   4.233   4.249 -0.3238 -1.3409  0.6830
24236SOL     OW77554   8.203   4.395   3.316  0.3779 -0.2963 -0.0543
24236SOL    HW177555   8.246   4.396   3.401  0.4964  2.1556 -0.0867
24236SOL    HW277556   8.154   4.313   3.314 -0.2135 -0.0674  2.6988
24237SOL     OW77557   9.987   2.142   4.987  0.5942  0.2596 -0.3324
24237SOL    HW177558   9.931   2.176   5.056  0.2147  1.8353 -1.3931
24237SOL    HW277559  10.075   2.144   5.024  0.0843 -1.5258  1.0714
24238SOL     OW77560   8.582   2.494   7.393  0.0265  0.4877 -0.4372
24238SOL    HW177561   8.606   2.478   7.302 -0.6393 -2.9994 -0.0972
24238SOL    HW277562   8.654   2.456   7.443  0.0121  1.6807  0.4885
24239SOL     OW77563   9.605   2.347   5.292 -0.5052 -0.0723  0.3079
24239SOL    HW177564   9.524   2.386   5.259 -1.3600 -1.6669  0.4535
24239SOL    HW277565   9.593   2.346   5.388 -0.1486  0.0434  0.3530
24240SOL     OW77566   8.420   2.549   4.552  0.4746 -0.0992  0.7830
24240SOL    HW177567   8.505   2.504   4.544  0.2783 -0.7607  2.1545
24240SOL    HW277568   8.365   2.508   4.485  0.9072 -0.4912  0.6584
24241SOL     OW77569   8.639   2.718   5.021  0.2268  0.2196 -0.1983
24241SOL    HW177570   8.648   2.653   4.950 -0.5056 -0.2836  0.1668
24241SOL    HW277571   8.693   2.683   5.092 -0.3193 -0.0873  0.0667
24242SOL     OW77572   7.687   3.466   4.097 -0.1918  0.3376  0.7744
24242SOL    HW177573   7.775   3.498   4.078  0.3644 -1.9379 -0.6937
24242SOL    HW277574   7.629   3.538   4.069  1.0623  0.6601 -1.1335
24243SOL     OW77575   7.893   3.080   3.412 -0.5196 -0.6448  0.7203
24243SOL    HW177576   7.974   3.043   3.447 -1.0039 -0.4258  2.1110
24243SOL    HW277577   7.921   3.132   3.336  0.8285  0.5854  2.0194
24244SOL     OW77578   8.087   3.293   4.466  0.1790  0.2563  0.2467
24244SOL    HW177579   8.070   3.215   4.414  0.4352 -0.7357  1.6210
24244SOL    HW277580   8.000   3.322   4.495  0.0003  1.0331 -1.0132
24245SOL     OW77581   7.887   2.665   5.208  0.5846 -0.3696  0.0548
24245SOL    HW177582   7.941   2.725   5.259  3.1272 -1.6552 -1.0237
24245SOL    HW277583   7.948   2.625   5.146 -1.7434 -1.4528 -1.6113
24246SOL     OW77584   7.523   2.267   3.926 -0.4444  0.1315 -0.0803
24246SOL    HW177585   7.564   2.282   4.011 -0.7810  2.1232 -0.2527
24246SOL    HW277586   7.557   2.337   3.871 -2.7634  0.8102 -0.6925
24247SOL     OW77587   9.354   4.595   6.298  0.2265 -0.1720 -0.0929
24247SOL    HW177588   9.403   4.513   6.294 -0.1009 -0.2891 -1.7498
24247SOL    HW277589   9.267   4.573   6.267  0.2213  0.8564 -0.8320
24248SOL     OW77590   7.017   3.044   5.639  0.8755  0.2972 -0.5077
24248SOL    HW177591   7.086   2.979   5.629  1.9439  0.8584  2.5209
24248SOL    HW277592   7.028   3.102   5.564  1.8571 -1.2609 -1.5984
24249SOL     OW77593   7.058   2.330   2.957 -0.2165  0.2351 -0.0703
24249SOL    HW177594   6.993   2.320   2.888  1.0861  1.5082 -1.5068
24249SOL    HW277595   7.119   2.258   2.943 -2.3041 -2.1702  2.4852
24250SOL     OW77596   7.735   4.438   4.776 -0.5317 -0.1257 -0.4591
24250SOL    HW177597   7.664   4.448   4.713 -1.2466 -2.2607 -0.0507
24250SOL    HW277598   7.741   4.343   4.790 -0.1314  0.2683  2.3616
24251SOL     OW77599   7.933   3.883   3.673 -0.2410 -0.8918  0.3191
24251SOL    HW177600   8.010   3.853   3.625 -1.0310 -0.1281 -1.4992
24251SOL    HW277601   7.966   3.954   3.728  0.1484  0.2578 -1.3625
24252SOL     OW77602   7.640   0.031   3.484 -0.0052  0.0854 -0.1805
24252SOL    HW177603   7.577  -0.019   3.431  1.7818 -0.3768 -1.9411
24252SOL    HW277604   7.635   0.120   3.449 -1.3982  0.6210  1.3091
24253SOL     OW77605   8.167   3.004   5.542 -0.1592 -0.4883 -0.0514
24253SOL    HW177606   8.224   2.927   5.549  0.4069 -0.1553 -0.9452
24253SOL    HW277607   8.213   3.063   5.483 -0.8351  0.3341  0.2295
24254SOL     OW77608   8.352   2.754   2.790 -0.9381  0.3298  0.4544
24254SOL    HW177609   8.412   2.760   2.715 -2.3949 -0.0640 -0.7520
24254SOL    HW277610   8.350   2.843   2.825  1.4971  0.0411  1.4184
24255SOL     OW77611   8.296   4.405   4.662  0.2863 -0.2242 -0.4329
24255SOL    HW177612   8.277   4.493   4.693  1.1260 -0.4507  0.7898
24255SOL    HW277613   8.382   4.412   4.621  0.0913 -0.3465 -0.8602
24256SOL     OW77614   8.942   1.325   3.619 -0.0461  0.0288 -0.2733
24256SOL    HW177615   8.985   1.311   3.535  1.5071 -1.2231  0.6989
24256SOL    HW277616   9.012   1.316   3.683 -1.3743  0.1345  1.2132
24257SOL     OW77617   8.773   2.095   3.432 -0.8360  0.2681  0.1625
24257SOL    HW177618   8.762   2.005   3.400 -3.1504  0.6275 -0.1421
24257SOL    HW277619   8.856   2.123   3.395 -0.3075 -1.5864 -0.1338
24258SOL     OW77620   9.568   2.794   5.538 -0.4839 -0.3943  0.3166
24258SOL    HW177621   9.496   2.774   5.477 -0.3723  0.6708 -0.1727
24258SOL    HW277622   9.645   2.755   5.497 -0.4105  0.3111 -0.2396
24259SOL     OW77623   6.689   1.366   3.300 -0.3422  0.2861 -0.2084
24259SOL    HW177624   6.700   1.272   3.316  3.2951  0.4354 -1.3129
24259SOL    HW277625   6.617   1.371   3.237 -1.6045 -1.6287  1.0276
24260SOL     OW77626   8.792   3.867   5.458 -0.4310 -0.6248 -0.0698
24260SOL    HW177627   8.818   3.792   5.511 -1.2493 -0.8206  0.0586
24260SOL    HW277628   8.699   3.880   5.478  0.3149  2.0362  1.9117
24261SOL     OW77629   8.250   2.609   6.659  0.1548 -0.5348  0.4879
24261SOL    HW177630   8.275   2.542   6.723  3.5543 -0.5154 -0.7341
24261SOL    HW277631   8.271   2.570   6.574 -2.2516  0.2964 -0.5379
24262SOL     OW77632   6.883   3.653   6.009 -0.0984  0.2117 -0.3524
24262SOL    HW177633   6.852   3.738   5.976 -0.9575  0.5950  1.4172
24262SOL    HW277634   6.978   3.655   5.995 -0.1274  1.4139 -0.4140
24263SOL     OW77635   6.810   2.261   7.696  1.0503  0.2117  0.0854
24263SOL    HW177636   6.881   2.207   7.661 -0.0881 -0.1381 -1.7266
24263SOL    HW277637   6.767   2.205   7.761  1.5796 -0.0641  0.2052
24264SOL     OW77638   7.761   2.097   7.594  0.3456 -0.4285  0.0381
24264SOL    HW177639   7.792   2.142   7.515 -0.5648 -1.8664 -1.1706
24264SOL    HW277640   7.698   2.158   7.633  0.2444 -0.0063 -0.7621
24265SOL     OW77641   9.662   2.147   6.802  0.6018  0.0206 -0.0692
24265SOL    HW177642   9.658   2.242   6.810  0.3794 -0.0600  0.8222
24265SOL    HW277643   9.571   2.118   6.803  0.6313 -0.1320 -1.2808
24266SOL     OW77644   8.659   2.646   6.748 -0.2250  0.2775 -0.0798
24266SOL    HW177645   8.731   2.607   6.698 -0.1125 -0.0010  0.2997
24266SOL    HW277646   8.700   2.679   6.828 -0.4701  0.3977 -0.0018
24267SOL     OW77647   7.849   3.557   8.579  0.7510 -0.0421 -0.2107
24267SOL    HW177648   7.861   3.566   8.674  0.4290  1.0890 -0.2751
24267SOL    HW277649   7.911   3.620   8.541 -0.8784  1.3054 -0.6840
24268SOL     OW77650   9.038   1.447   5.616 -0.1933 -0.2914  0.4077
24268SOL    HW177651   9.066   1.374   5.560  0.1026 -1.2118  1.7502
24268SOL    HW277652   8.946   1.460   5.592  0.0979 -0.2556 -0.7457
24269SOL     OW77653   8.201   2.635   7.514 -0.9562 -0.4654  0.1352
24269SOL    HW177654   8.138   2.562   7.517  0.5561 -1.8157 -0.2856
24269SOL    HW277655   8.178   2.682   7.433 -0.7584 -1.5823 -0.5839
24270SOL     OW77656   7.383   3.057   5.701 -0.6241  0.0567  0.5811
24270SOL    HW177657   7.418   3.115   5.633  1.4717 -0.6873  0.9804
24270SOL    HW277658   7.369   2.974   5.655 -1.2391  0.1711  0.5692
24271SOL     OW77659   0.088   2.790   5.764  0.5895 -0.4477  0.0432
24271SOL    HW177660   0.127   2.786   5.677  0.0929 -1.6269 -0.1297
24271SOL    HW277661   0.008   2.841   5.753  0.7968 -0.1539 -0.0893
24272SOL     OW77662   7.203   3.001   6.394 -0.3493 -0.5602 -0.4642
24272SOL    HW177663   7.190   2.955   6.311 -2.2311 -1.3641  0.2336
24272SOL    HW277664   7.125   2.979   6.445  0.2984  0.7659  1.1268
24273SOL     OW77665   8.980   2.654   4.922 -0.5369 -0.0990 -0.6125
24273SOL    HW177666   8.903   2.700   4.889  1.0502  2.5218 -0.8194
24273SOL    HW277667   9.051   2.682   4.864  0.8560 -1.2706  0.5012
24274SOL     OW77668   8.847   2.558   5.487  0.0759  0.5451  0.0395
24274SOL    HW177669   8.930   2.604   5.486  0.3413  0.0781 -1.7374
24274SOL    HW277670   8.868   2.471   5.454 -1.4110  0.9981 -2.2004
24275SOL     OW77671   9.171   2.030   7.300  0.2758 -0.1567 -0.1866
24275SOL    HW177672   9.233   1.967   7.336  0.7500 -0.1496 -0.9779
24275SOL    HW277673   9.106   1.977   7.254  0.9431 -0.0678 -1.2688
24276SOL     OW77674   7.223   3.117   4.474 -0.0716  0.1875  0.0146
24276SOL    HW177675   7.272   3.035   4.482 -2.6597 -1.2602  1.8882
24276SOL    HW277676   7.220   3.152   4.564 -2.7933 -0.0029  0.0399
24277SOL     OW77677   7.238   2.243   6.465  0.3483 -0.8045 -0.3258
24277SOL    HW177678   7.312   2.271   6.411  0.7103 -0.4102  0.3675
24277SOL    HW277679   7.201   2.169   6.418  0.4270 -0.2195 -1.3082
24278SOL     OW77680   9.315   3.979   8.000 -0.4075  0.1498 -0.2320
24278SOL    HW177681   9.407   3.955   8.012 -0.3252  0.8089  0.4966
24278SOL    HW277682   9.279   3.981   8.089 -1.7512 -2.5093 -0.6293
24279SOL     OW77683   7.863   3.178   5.226 -0.3950 -0.1508 -0.0667
24279SOL    HW177684   7.942   3.212   5.184  0.0195  1.0559  1.6063
24279SOL    HW277685   7.850   3.092   5.187 -0.1226  0.9588 -2.7266
24280SOL     OW77686   7.531   1.772   8.185  0.5541 -0.2695 -0.9051
24280SOL    HW177687   7.530   1.735   8.097 -0.0318  1.1044 -1.4855
24280SOL    HW277688   7.621   1.760   8.215  0.6204 -1.2352 -1.4686
24281SOL     OW77689   7.649   2.663   6.299 -0.0577  0.5526 -0.1782
24281SOL    HW177690   7.737   2.624   6.293 -0.5916 -0.3781 -2.5710
24281SOL    HW277691   7.664   2.757   6.293  0.7603  0.3707 -1.2763
24282SOL     OW77692   7.112   4.029   4.876  0.1188 -0.5376  0.7807
24282SOL    HW177693   7.107   3.978   4.795  1.0550  0.5497  0.0266
24282SOL    HW277694   7.195   4.076   4.870 -0.0990  0.0389  2.0932
24283SOL     OW77695   7.041   2.031   4.402  0.3764 -0.2642 -0.2778
24283SOL    HW177696   7.047   2.080   4.484  1.9723  0.1977 -0.6644
24283SOL    HW277697   7.113   1.968   4.407 -0.1652 -0.9481 -0.8784
24284SOL     OW77698   9.989   2.438   5.480  0.2555 -0.3059 -0.5276
24284SOL    HW177699   9.965   2.490   5.403  2.6009  0.4536 -0.7841
24284SOL    HW277700   9.931   2.362   5.476 -0.2408  0.1458 -2.5761
24285SOL     OW77701   9.294   3.302   5.981 -0.4257 -0.1609 -0.4580
24285SOL    HW177702   9.264   3.350   5.903 -1.4085  0.7726  0.4786
24285SOL    HW277703   9.380   3.339   6.001  0.1621 -0.9230 -1.5255
24286SOL     OW77704   6.787   3.842   6.684 -0.1751  0.5048 -0.5270
24286SOL    HW177705   6.768   3.855   6.777 -2.1683 -0.4191 -0.7705
24286SOL    HW277706   6.757   3.753   6.666 -2.0946  1.5028 -2.5892
24287SOL     OW77707   7.570   4.470   6.833  0.8149 -0.4796 -0.1663
24287SOL    HW177708   7.527   4.499   6.913 -1.6078 -0.8243 -1.2879
24287SOL    HW277709   7.628   4.543   6.809 -0.8285  0.9900  0.2053
24288SOL     OW77710   9.249   3.466   5.769  0.4398  1.0695 -0.3093
24288SOL    HW177711   9.307   3.527   5.815  0.7932  0.7113 -0.2849
24288SOL    HW277712   9.277   3.470   5.678  0.4287  0.9788 -0.3170
24289SOL     OW77713   6.977   3.245   6.547  0.1016 -0.0234 -0.4124
24289SOL    HW177714   6.926   3.324   6.531  0.5861  0.2245 -0.7487
24289SOL    HW277715   7.044   3.246   6.479  0.4156 -0.4617 -0.1104
24290SOL     OW77716   7.302   3.680   6.906 -0.8300 -0.3106  0.0455
24290SOL    HW177717   7.347   3.756   6.868  0.2360  0.3374  2.4741
24290SOL    HW277718   7.302   3.697   7.000 -5.7280 -0.5476  0.2465
24291SOL     OW77719   9.410   3.103   6.269 -1.2910 -0.2650  0.4225
24291SOL    HW177720   9.505   3.111   6.265 -1.3026  0.2136  0.9960
24291SOL    HW277721   9.393   3.010   6.258 -0.6660 -0.5484  1.7008
24292SOL     OW77722   8.863   5.714   6.881  0.2070 -0.5215 -0.4120
24292SOL    HW177723   8.796   5.760   6.830  0.9410  1.2122  0.1572
24292SOL    HW277724   8.833   5.720   6.972 -0.9014 -3.2752 -0.5295
24293SOL     OW77725   7.367   1.552   9.167  0.6490 -0.2854  0.6000
24293SOL    HW177726   7.373   1.513   9.254  0.2286 -0.5336  0.5197
24293SOL    HW277727   7.442   1.611   9.162  0.7124 -0.3183  1.1061
24294SOL     OW77728   8.675   4.847   6.615 -0.4615  0.8805  0.1240
24294SOL    HW177729   8.655   4.939   6.599 -0.2641  0.8607 -0.2486
24294SOL    HW277730   8.708   4.815   6.531 -0.7494  0.4125  0.1866
24295SOL     OW77731   8.074   3.673   6.758 -0.0759  0.0744 -0.5402
24295SOL    HW177732   8.128   3.741   6.717  0.3065  0.1432  0.0685
24295SOL    HW277733   8.126   3.593   6.751 -0.2675 -0.0341 -0.7188
24296SOL     OW77734   6.961   4.089   3.905  0.3978  0.5943  0.5334
24296SOL    HW177735   6.908   4.020   3.864  1.1259  1.4538 -1.9495
24296SOL    HW277736   6.912   4.113   3.983 -1.1487 -0.9923  0.0993
24297SOL     OW77737   8.262   1.976   7.026  0.2263  0.4068  0.6156
24297SOL    HW177738   8.220   1.902   6.983  0.5235  0.5838  0.0172
24297SOL    HW277739   8.286   1.943   7.112  0.7167 -0.3199  0.2091
24298SOL     OW77740   7.385   4.110   7.275  0.3492 -0.6908  0.5665
24298SOL    HW177741   7.453   4.098   7.341 -0.6715  0.1745  1.8166
24298SOL    HW277742   7.398   4.200   7.243  0.1767 -0.7319  0.3805
24299SOL     OW77743   8.351   2.909   7.825 -0.0454  0.4249 -0.1348
24299SOL    HW177744   8.417   2.919   7.756  2.0905 -2.3535  1.4639
24299SOL    HW277745   8.356   2.991   7.874  0.4964  1.2133 -1.4669
24300SOL     OW77746   9.207   1.796   6.475 -0.6756  0.0124  0.3846
24300SOL    HW177747   9.160   1.743   6.411  0.1371 -0.7735  0.4206
24300SOL    HW277748   9.300   1.783   6.453 -0.4791  1.5253  0.3143
24301SOL     OW77749   8.169   1.626   7.343  0.5353  0.2141  0.3037
24301SOL    HW177750   8.129   1.565   7.281  1.0963  0.9073 -0.7557
24301SOL    HW277751   8.262   1.626   7.320  0.5495  1.4101  0.3383
24302SOL     OW77752   8.603   1.698   6.981  0.3112 -0.2779  0.2079
24302SOL    HW177753   8.557   1.780   6.999 -0.4205 -0.6945  0.2639
24302SOL    HW277754   8.690   1.725   6.951 -0.2229  0.5437 -0.6261
24303SOL     OW77755   8.993   2.603   6.130  0.7312 -0.3393 -0.3760
24303SOL    HW177756   9.059   2.603   6.060  1.0592  0.0424 -0.0724
24303SOL    HW277757   9.044   2.608   6.211  0.3659 -1.0259 -0.0959
24304SOL     OW77758   8.414   2.939   6.739  0.2840 -1.0208  0.7020
24304SOL    HW177759   8.363   2.900   6.668  0.7884 -0.3640 -0.0299
24304SOL    HW277760   8.493   2.972   6.696 -0.0368  0.6354  1.3357
24305SOL     OW77761   7.657   3.080   6.578  0.3135  0.3216 -0.8243
24305SOL    HW177762   7.696   3.081   6.490 -2.4446 -0.5144 -2.1094
24305SOL    HW277763   7.692   3.001   6.619  1.3661  0.5458 -1.2686
24306SOL     OW77764   8.328   3.459   7.532  0.2960 -0.4340  0.4194
24306SOL    HW177765   8.417   3.466   7.568  0.5925 -0.8790 -0.2176
24306SOL    HW277766   8.297   3.374   7.561 -0.9549  0.8228  2.9090
24307SOL     OW77767   8.572   4.477   4.603  0.2858  0.4124 -0.5383
24307SOL    HW177768   8.594   4.568   4.625 -0.4873  0.4656  0.0385
24307SOL    HW277769   8.557   4.434   4.687  1.1212 -0.3791 -0.7868
24308SOL     OW77770   7.364   1.243   7.219  0.0074 -0.8344 -0.1710
24308SOL    HW177771   7.402   1.317   7.171  1.8370 -1.4887  0.2050
24308SOL    HW277772   7.289   1.216   7.166 -1.0510  1.6388 -0.0104
24309SOL     OW77773   8.872   3.599   5.565 -0.7343 -0.2056  0.2014
24309SOL    HW177774   8.961   3.576   5.542 -1.0137 -0.7944 -0.2765
24309SOL    HW277775   8.839   3.524   5.614 -2.1645 -1.5351 -2.6864
24310SOL     OW77776   8.184   4.013   4.743  0.2282  0.0837 -0.4352
24310SOL    HW177777   8.279   4.027   4.747  0.1031  0.2904  2.3548
24310SOL    HW277778   8.152   4.039   4.829 -2.1582 -1.7450 -0.7227
24311SOL     OW77779   9.533   4.338   6.304  0.2679  0.1682  0.4239
24311SOL    HW177780   9.602   4.316   6.368  1.8181  1.4983 -0.7416
24311SOL    HW277781   9.577   4.332   6.219 -1.4737 -0.4303 -0.4452
24312SOL     OW77782   8.246   5.150   7.846 -0.2475 -0.5074 -0.2864
24312SOL    HW177783   8.322   5.135   7.903  0.3575  1.3642 -0.5609
24312SOL    HW277784   8.232   5.066   7.802 -1.4021 -2.3242  3.3755
24313SOL     OW77785   8.582   3.077   3.888  1.2098 -0.1519 -0.0595
24313SOL    HW177786   8.530   3.107   3.962 -1.0103 -0.0854 -1.5784
24313SOL    HW277787   8.573   2.982   3.889 -0.4876 -0.0266 -1.3772
24314SOL     OW77788   9.347   1.859   5.973  0.5194  0.0911  0.5004
24314SOL    HW177789   9.432   1.844   6.014  1.2998 -0.6775 -1.3508
24314SOL    HW277790   9.362   1.932   5.913 -0.4091  0.6684  0.9516
24315SOL     OW77791   8.924   2.228   8.032  0.0656 -0.1179 -0.7151
24315SOL    HW177792   9.002   2.266   7.992  1.4619 -1.8812  0.2628
24315SOL    HW277793   8.922   2.138   8.001  0.7124 -1.2765  2.4502
24316SOL     OW77794   8.079   3.173   6.331  0.1409 -0.9480 -0.0927
24316SOL    HW177795   8.164   3.138   6.303  0.1235  0.2588 -1.7427
24316SOL    HW277796   8.034   3.194   6.249 -2.5584 -3.3751  0.6724
24317SOL     OW77797   9.080   1.464   7.649 -0.6302 -0.1334  0.5332
24317SOL    HW177798   8.996   1.465   7.603 -0.1731  0.6597 -0.3011
24317SOL    HW277799   9.137   1.520   7.596  0.7357 -1.4877  0.5357
24318SOL     OW77800   9.361   4.086   6.780 -0.1293  0.0248  0.3497
24318SOL    HW177801   9.347   4.171   6.738  0.8309 -1.3282 -2.8345
24318SOL    HW277802   9.285   4.076   6.839 -0.3730  2.9363  0.6076
24319SOL     OW77803   8.381   4.720   5.916 -0.1109 -0.2198 -0.0417
24319SOL    HW177804   8.361   4.738   6.007 -0.2160 -1.1381  0.1265
24319SOL    HW277805   8.312   4.660   5.887 -0.0339 -0.0001 -0.6997
24320SOL     OW77806   7.538   4.403   7.263 -0.1122 -0.1099  0.3654
24320SOL    HW177807   7.502   4.480   7.306  0.3472  0.2994  0.0222
24320SOL    HW277808   7.534   4.424   7.169 -1.3562 -1.0977  0.1726
24321SOL     OW77809   0.026   2.231   6.522  0.2045 -0.0689  0.2111
24321SOL    HW177810   0.054   2.202   6.436  0.4664  1.2480 -0.1589
24321SOL    HW277811  -0.065   2.259   6.510 -0.0773 -0.7933  0.5858
24322SOL     OW77812   8.928   4.574   5.578 -0.5342  0.1314 -0.5974
24322SOL    HW177813   8.960   4.488   5.605 -0.2090  0.2933 -0.4660
24322SOL    HW277814   8.848   4.555   5.529 -0.3385 -0.2620 -0.7686
24323SOL     OW77815   7.651   2.436   9.583  0.6826  0.2820  0.2515
24323SOL    HW177816   7.580   2.424   9.647 -0.3384  0.2694 -0.8535
24323SOL    HW277817   7.731   2.415   9.631 -0.1143 -0.1911  1.3948
24324SOL     OW77818   8.104   1.677   5.826  0.0953  0.0130 -0.4422
24324SOL    HW177819   8.099   1.746   5.760 -1.9560 -1.7550 -2.2172
24324SOL    HW277820   8.198   1.663   5.839  0.5293  2.1892 -1.0352
24325SOL     OW77821   7.033   1.958   7.194  0.4101  0.0100  0.1611
24325SOL    HW177822   6.993   1.955   7.107  1.1910  3.8153 -0.4189
24325SOL    HW277823   7.127   1.950   7.178  0.5798  1.0495  0.6135
24326SOL     OW77824   9.032   2.861   7.011  0.0394  0.6274 -0.2258
24326SOL    HW177825   9.107   2.843   7.068  2.1079  1.1784 -2.6789
24326SOL    HW277826   9.021   2.956   7.015 -0.5322  0.5487  0.1217
24327SOL     OW77827   8.376   1.717   8.088 -0.0306 -0.3630  0.2536
24327SOL    HW177828   8.307   1.778   8.114  0.8289  0.0226  1.7381
24327SOL    HW277829   8.336   1.630   8.097 -0.7124 -0.0837 -0.1174
24328SOL     OW77830   9.460   2.899   5.763  0.2993 -0.0327 -0.2905
24328SOL    HW177831   9.437   2.822   5.814  0.8717  1.0235  1.6024
24328SOL    HW277832   9.501   2.864   5.684 -2.0803 -1.7344 -0.8136
24329SOL     OW77833   7.194   1.530   6.975  0.2599  0.0523 -0.4223
24329SOL    HW177834   7.276   1.507   7.017  0.1317 -0.7368 -0.5924
24329SOL    HW277835   7.218   1.593   6.907  0.5226  0.9768  0.5101
24330SOL     OW77836   6.412   1.013   5.674  0.7504  0.3880 -0.0888
24330SOL    HW177837   6.407   1.080   5.741  0.7442  1.0479 -0.7420
24330SOL    HW277838   6.323   0.980   5.666  0.8289  0.0290  0.5075
24331SOL     OW77839   9.048   3.266   4.612  0.1564 -0.6986 -0.0170
24331SOL    HW177840   9.094   3.186   4.638 -0.5839 -1.7863 -1.8996
24331SOL    HW277841   8.955   3.243   4.617 -0.0692  0.1360 -0.2897
24332SOL     OW77842   9.664   1.928   7.503 -0.7193  0.3990  0.1375
24332SOL    HW177843   9.698   2.006   7.547 -1.2999  1.4238 -1.2093
24332SOL    HW277844   9.580   1.955   7.467 -0.0859 -0.2984 -1.9486
24333SOL     OW77845   9.789   3.706   5.136  0.9363  0.0778  0.0206
24333SOL    HW177846   9.705   3.729   5.176  0.0323 -0.6692 -1.4377
24333SOL    HW277847   9.769   3.637   5.073  2.5275  0.3850 -0.8636
24334SOL     OW77848   6.039   2.864   7.554 -0.3909  0.5790  0.5304
24334SOL    HW177849   5.966   2.801   7.559  0.2553 -0.3385 -1.0141
24334SOL    HW277850   6.117   2.809   7.555  0.2258  1.4542  0.5194
24335SOL     OW77851   8.204   3.533   6.435 -0.1195 -0.2080  0.1761
24335SOL    HW177852   8.265   3.539   6.508  0.4198 -2.2437 -0.0617
24335SOL    HW277853   8.254   3.489   6.366 -1.9172 -2.2365  0.1074
24336SOL     OW77854   7.867   1.995   6.869  0.4809  0.0425 -0.3612
24336SOL    HW177855   7.911   1.931   6.812 -1.2181 -0.9754 -0.5402
24336SOL    HW277856   7.866   1.954   6.955  1.3646  0.7915  0.0219
24337SOL     OW77857   7.530   1.026   9.212 -0.3694  0.1110 -0.6283
24337SOL    HW177858   7.520   0.949   9.157 -1.2133  0.3723 -0.8465
24337SOL    HW277859   7.450   1.030   9.264  1.0233 -0.9116  1.6308
24338SOL     OW77860   8.784   1.852   6.418  0.0658  0.0871  0.2085
24338SOL    HW177861   8.731   1.824   6.343  1.3214  1.6988 -1.3203
24338SOL    HW277862   8.809   1.771   6.462  0.0426 -0.9338 -1.6141
24339SOL     OW77863   8.203   2.631   8.140  0.0219  0.0391  0.2283
24339SOL    HW177864   8.222   2.638   8.234  0.3904 -3.9580  0.5394
24339SOL    HW277865   8.284   2.657   8.097 -0.2312  2.1550  0.9547
24340SOL     OW77866   7.442   3.611   6.057  0.5780 -0.3132 -0.1668
24340SOL    HW177867   7.413   3.521   6.041 -0.1979 -0.0633 -0.2204
24340SOL    HW277868   7.537   3.605   6.067  0.5377 -1.1255 -0.2488
24341SOL     OW77869   9.148   2.660   7.412 -0.2898 -0.5694 -0.0317
24341SOL    HW177870   9.088   2.682   7.483  0.2847  0.8506  0.0181
24341SOL    HW277871   9.229   2.635   7.456 -0.0558 -0.0581 -0.1682
24342SOL     OW77872   9.425   1.307   5.598  0.1160  0.1273 -0.2206
24342SOL    HW177873   9.415   1.321   5.504 -1.5624  3.2777  0.3529
24342SOL    HW277874   9.513   1.338   5.618 -0.6905  2.4905 -0.2642
24343SOL     OW77875   8.179   2.688   5.920 -0.4019  0.5020  0.1303
24343SOL    HW177876   8.122   2.650   5.853  0.6008 -0.0729 -0.3937
24343SOL    HW277877   8.244   2.621   5.938  0.3879  1.3248  0.4053
24344SOL     OW77878   9.513   2.293   4.898 -0.3336  0.6961 -0.0862
24344SOL    HW177879   9.576   2.223   4.878  0.0038  1.6048 -2.3043
24344SOL    HW277880   9.430   2.247   4.913  0.5244 -0.4022  1.5713
24345SOL     OW77881   7.891   2.410   5.611  0.1540 -0.0504 -0.1258
24345SOL    HW177882   7.963   2.347   5.608  1.6687  1.6297  0.4365
24345SOL    HW277883   7.858   2.412   5.521  1.3159 -0.2521 -0.5675
24346SOL     OW77884   9.574   2.617   7.502 -0.3585 -0.1508  0.5403
24346SOL    HW177885   9.567   2.688   7.439 -1.2086 -0.4824  0.2555
24346SOL    HW277886   9.499   2.561   7.484 -0.2863 -0.5597  1.4645
24347SOL     OW77887   7.220   2.187   6.734 -0.3862  0.2801 -0.0644
24347SOL    HW177888   7.259   2.210   6.649 -1.0587 -0.4115 -0.5731
24347SOL    HW277889   7.127   2.177   6.715 -0.6350  0.7637  0.9015
24348SOL     OW77890   8.917   3.073   8.428 -0.2361 -0.6364  0.2643
24348SOL    HW177891   8.876   3.061   8.342 -2.4013  2.2132  0.7895
24348SOL    HW277892   9.008   3.048   8.415 -0.6082 -0.6559 -2.7851
24349SOL     OW77893   8.960   2.333   5.977 -0.3316 -0.0668 -0.4935
24349SOL    HW177894   9.031   2.328   6.041 -1.9353  1.1836  1.4511
24349SOL    HW277895   8.950   2.427   5.960  1.6343 -0.4590 -4.4686
24350SOL     OW77896   9.677   2.636   6.161  0.2748  0.3799 -0.1732
24350SOL    HW177897   9.705   2.654   6.250 -1.6312 -0.6939  0.6678
24350SOL    HW277898   9.701   2.545   6.146  0.5129  0.5300 -0.7467
24351SOL     OW77899   7.970   0.304   7.265 -0.6748  0.7249 -0.0100
24351SOL    HW177900   7.936   0.338   7.348  1.1066  2.6573 -0.0291
24351SOL    HW277901   7.923   0.353   7.198 -0.8285  0.4246 -0.1261
24352SOL     OW77902   8.018   2.866   6.292  0.0660  0.7347  0.3464
24352SOL    HW177903   7.987   2.781   6.325  0.3315 -0.1051 -1.4780
24352SOL    HW277904   8.103   2.879   6.333  0.6126 -0.5262 -0.3549
24353SOL     OW77905   7.540   2.977   6.949 -0.5096 -0.4372  0.5504
24353SOL    HW177906   7.559   2.920   7.023  0.1128 -0.1811  0.5885
24353SOL    HW277907   7.580   3.061   6.972  1.2317 -0.8667 -0.8529
24354SOL     OW77908   8.466   2.191   6.395 -0.8767 -0.5583  0.5696
24354SOL    HW177909   8.456   2.095   6.396 -0.6617 -0.5869  1.9335
24354SOL    HW277910   8.415   2.220   6.320 -1.0759 -1.7441  0.2391
24355SOL     OW77911   0.311   1.625   7.081  0.0366 -0.5224  0.1885
24355SOL    HW177912   0.355   1.709   7.073 -0.8995 -0.1462 -1.2919
24355SOL    HW277913   0.275   1.624   7.170  0.8993  0.2052  0.5482
24356SOL     OW77914   8.405   1.874   8.391 -0.5724 -0.5750  0.3032
24356SOL    HW177915   8.461   1.942   8.428 -0.8048 -0.0073 -0.3826
24356SOL    HW277916   8.326   1.876   8.444 -0.4479 -0.5362  0.4877
24357SOL     OW77917   7.128   2.666   7.087 -0.7316  0.1761 -0.3985
24357SOL    HW177918   7.133   2.586   7.034 -1.6387 -0.0549 -0.1494
24357SOL    HW277919   7.219   2.696   7.094 -0.5761  0.1150 -1.9246
24358SOL     OW77920   9.057   3.855   5.805 -0.4819  0.2868  0.6601
24358SOL    HW177921   9.071   3.935   5.855  1.7480 -0.1737  0.8088
24358SOL    HW277922   9.131   3.799   5.827 -0.2188 -0.5046 -2.0344
24359SOL     OW77923   9.794   2.708   5.804  0.1097  0.2808 -0.1222
24359SOL    HW177924   9.810   2.791   5.759 -1.4952  0.4164 -0.5039
24359SOL    HW277925   9.766   2.648   5.734  3.0730 -1.1356 -0.1397
24360SOL     OW77926   9.786   1.505   6.172  0.3042 -0.2710 -0.4395
24360SOL    HW177927   9.784   1.523   6.078  1.2451 -0.2733 -0.4574
24360SOL    HW277928   9.874   1.471   6.189  0.0490 -0.5306  0.3942
24361SOL     OW77929   9.404   2.242   6.013 -0.0822  0.1071  0.3293
24361SOL    HW177930   9.484   2.289   5.993 -0.3574  0.6006  0.3870
24361SOL    HW277931   9.373   2.209   5.928 -0.5279  1.0537  0.1175
24362SOL     OW77932   7.265   2.451   4.982 -0.0818 -0.2650 -0.5892
24362SOL    HW177933   7.333   2.414   4.926 -0.1058  1.3546 -1.7296
24362SOL    HW277934   7.247   2.538   4.945 -0.3224  0.7352  1.7380
24363SOL     OW77935   6.678   3.300   5.099 -0.2023  0.1545  0.3093
24363SOL    HW177936   6.696   3.223   5.045  5.0604  2.5666 -1.6287
24363SOL    HW277937   6.627   3.358   5.043 -1.5077 -0.5809  0.7136
24364SOL     OW77938   9.425   2.356   6.497  0.1271 -0.0604 -0.4284
24364SOL    HW177939   9.463   2.276   6.461 -0.0003 -0.0363 -0.6177
24364SOL    HW277940   9.500   2.411   6.520  0.2442 -0.6501  0.6536
24365SOL     OW77941   8.157   1.044   6.709  0.3353 -0.0004 -0.0831
24365SOL    HW177942   8.215   0.969   6.703  0.4371  0.1594 -1.1081
24365SOL    HW277943   8.183   1.101   6.637  0.0036  0.8418  0.4471
24366SOL     OW77944   8.074   1.446   6.695  0.1674 -0.3949  0.1235
24366SOL    HW177945   8.153   1.470   6.742  0.1890 -0.4246  0.1019
24366SOL    HW277946   8.101   1.442   6.603 -0.5747  2.6963 -0.2793
24367SOL     OW77947   7.467   3.339   5.825 -0.0079  0.2864  0.0521
24367SOL    HW177948   7.546   3.394   5.827 -0.8320  1.4865  0.3267
24367SOL    HW277949   7.500   3.250   5.814  1.1879  1.2157 -4.9077
24368SOL     OW77950   8.859   2.294   6.899 -0.1933  0.4019 -0.1202
24368SOL    HW177951   8.877   2.344   6.819 -2.9647 -0.2743 -1.2489
24368SOL    HW277952   8.929   2.229   6.903 -0.6224 -0.2987 -2.6766
24369SOL     OW77953   9.092   0.653   6.477  0.7598 -0.0102 -0.0933
24369SOL    HW177954   9.178   0.645   6.518  0.5747 -0.2421  0.2496
24369SOL    HW277955   9.091   0.584   6.410  1.3610  0.8675 -1.0298
24370SOL     OW77956   8.282   2.798   6.188 -0.1831  0.3192  0.3591
24370SOL    HW177957   8.307   2.706   6.179  1.6804  0.9057 -0.7951
24370SOL    HW277958   8.218   2.812   6.118  1.2636  0.4436 -0.9862
24371SOL     OW77959   9.191   2.776   5.505  0.1764 -0.2503 -0.0605
24371SOL    HW177960   9.199   2.867   5.535 -2.2258  0.0512 -0.1979
24371SOL    HW277961   9.267   2.762   5.449  0.3832  1.8224 -0.3428
24372SOL     OW77962   9.587   3.152   5.763 -0.3732 -0.4318  0.5417
24372SOL    HW177963   9.528   3.080   5.741  0.3585 -0.6001 -0.9031
24372SOL    HW277964   9.623   3.128   5.848 -1.3912 -0.9571  0.8361
24373SOL     OW77965   8.997   3.436   7.256  0.0703 -0.1250  0.3646
24373SOL    HW177966   8.911   3.472   7.233 -0.3560  0.4587  2.7337
24373SOL    HW277967   9.059   3.503   7.228 -0.2259 -0.5496 -1.3598
24374SOL     OW77968   9.252   2.592   6.633 -0.3435 -0.1572  0.2167
24374SOL    HW177969   9.277   2.513   6.681 -0.8249 -0.4669 -0.0412
24374SOL    HW277970   9.335   2.628   6.602  0.0756  0.5985  2.1399
24375SOL     OW77971   9.478   3.335   7.065 -0.2579  0.2629  0.0059
24375SOL    HW177972   9.415   3.286   7.012  1.0256 -0.2538 -1.0796
24375SOL    HW277973   9.541   3.270   7.094 -0.7610  0.6097  1.9128
24376SOL     OW77974   9.942   3.513   7.191  0.1596 -0.0241  0.2813
24376SOL    HW177975   9.962   3.600   7.226 -0.1300  0.1764 -0.0451
24376SOL    HW277976   9.962   3.453   7.262  0.2081  0.3262  0.5633
24377SOL     OW77977   9.771   4.194   7.703 -0.1239 -0.1638 -0.0677
24377SOL    HW177978   9.811   4.108   7.711 -1.9295 -1.0322 -0.1514
24377SOL    HW277979   9.777   4.231   7.791  1.9448  0.2429 -0.3457
24378SOL     OW77980   8.143   1.164   5.456  0.3768  0.1572  0.8051
24378SOL    HW177981   8.051   1.184   5.436  0.1303  0.7386  2.4328
24378SOL    HW277982   8.144   1.069   5.469  0.4849 -0.1910 -1.5617
24379SOL     OW77983   7.906   2.589   6.278  0.0031 -0.2084 -0.1999
24379SOL    HW177984   7.889   2.583   6.184  1.3554  0.6592 -0.5065
24379SOL    HW277985   7.958   2.511   6.298 -0.1105 -0.2857 -0.2044
24380SOL     OW77986   7.796   3.036   5.729 -0.1641 -0.3328  0.0294
24380SOL    HW177987   7.861   2.979   5.769 -0.1459 -1.0702 -1.0479
24380SOL    HW277988   7.831   3.057   5.642 -0.5458  0.6628  0.1057
24381SOL     OW77989   7.885   1.070   6.392  0.4019 -0.3494 -0.3191
24381SOL    HW177990   7.845   1.153   6.368  1.0855  0.5271  1.4341
24381SOL    HW277991   7.967   1.068   6.343 -0.1282 -0.4877 -1.1921
24382SOL     OW77992   8.121   1.154   7.390 -0.2238  0.3640 -0.3354
24382SOL    HW177993   8.073   1.133   7.470  0.6772  0.7619  0.3065
24382SOL    HW277994   8.069   1.113   7.320 -0.7502 -0.3877  0.4891
24383SOL     OW77995   7.271   3.107   6.009  0.0764 -0.2211 -0.0030
24383SOL    HW177996   7.302   3.155   6.086 -0.8163  0.7923 -0.2657
24383SOL    HW277997   7.342   3.115   5.946  0.1885  0.2356  0.1769
24384SOL     OW77998   7.231   2.344   8.300 -0.3820  0.4363  0.6017
24384SOL    HW177999   7.196   2.263   8.335  0.3777 -0.0767  0.1841
24384SOL    HW278000   7.264   2.391   8.377  0.4420 -0.2708  0.6869
24385SOL     OW78001   6.787   4.246   7.980 -0.4456 -0.3291  0.6759
24385SOL    HW178002   6.827   4.234   8.066 -0.7582 -0.4473  0.8029
24385SOL    HW278003   6.853   4.294   7.929  0.1437 -1.1443  0.6632
24386SOL     OW78004   8.256   2.839   6.481 -0.1017  0.4543 -0.1059
24386SOL    HW178005   8.223   2.769   6.538 -0.5820 -1.1414 -2.2708
24386SOL    HW278006   8.346   2.814   6.462  0.0958  1.0391  0.0410
24387SOL     OW78007   7.422   2.878   7.252  0.5155 -0.3667  0.7491
24387SOL    HW178008   7.493   2.905   7.310 -0.0591  3.9143 -0.4046
24387SOL    HW278009   7.343   2.887   7.305  0.1710  1.8286 -0.0884
24388SOL     OW78010   7.050   3.939   7.106  0.3926 -0.0298  0.7552
24388SOL    HW178011   7.057   3.962   7.199  0.0370  0.3382  0.6895
24388SOL    HW278012   7.137   3.907   7.083  0.9510  1.4197  0.7969
24389SOL     OW78013   7.588   3.057   7.951  0.0859 -0.0689  0.5804
24389SOL    HW178014   7.631   2.972   7.962 -0.8664 -0.3937  1.9211
24389SOL    HW278015   7.613   3.107   8.029 -1.0471  0.1392  0.8136
24390SOL     OW78016   8.619   3.704   6.105 -0.4493 -0.4873 -0.6231
24390SOL    HW178017   8.626   3.702   6.009  2.1467  3.7456 -0.6361
24390SOL    HW278018   8.706   3.678   6.136 -1.2293 -1.6884  0.6207
24391SOL     OW78019   8.207   2.370   5.603 -0.2392 -0.0776  0.0919
24391SOL    HW178020   8.265   2.308   5.560 -1.3681 -0.3601 -1.0656
24391SOL    HW278021   8.183   2.432   5.534 -0.2103  0.8315  0.8948
24392SOL     OW78022   9.703   3.062   6.224  0.0795 -0.1052 -0.6245
24392SOL    HW178023   9.745   2.989   6.269  0.5608 -0.1825 -1.1968
24392SOL    HW278024   9.667   3.025   6.144  1.0905  0.4509 -1.3452
24393SOL     OW78025   9.127   6.004   8.925  0.6068  0.0776 -0.4743
24393SOL    HW178026   9.062   6.019   8.993  0.9383 -1.8425  0.2856
24393SOL    HW278027   9.203   6.055   8.953  0.3054  0.3062 -0.0699
24394SOL     OW78028   7.493   2.511   6.657 -0.2076  0.6399  0.0256
24394SOL    HW178029   7.453   2.520   6.743 -0.5945  0.3484 -0.1229
24394SOL    HW278030   7.581   2.477   6.674 -0.4761  0.0665  0.2652
24395SOL     OW78031   9.193   4.417   7.198  0.4785 -0.2392  0.2064
24395SOL    HW178032   9.233   4.498   7.167  0.1739 -0.4588 -0.7968
24395SOL    HW278033   9.228   4.350   7.139  0.3970 -0.7747  0.7592
24396SOL     OW78034   8.591   2.349   6.555 -0.1764 -0.1452  0.3754
24396SOL    HW178035   8.666   2.362   6.498  0.4917 -1.0381  1.0497
24396SOL    HW278036   8.536   2.286   6.509  0.3054 -0.7733  0.6484
24397SOL     OW78037   7.784   3.174   7.278  0.3848 -0.1228 -0.5274
24397SOL    HW178038   7.812   3.154   7.189  1.7361 -1.5322  0.1994
24397SOL    HW278039   7.832   3.112   7.333 -0.6063  0.5810  1.1637
24398SOL     OW78040   7.052   3.274   7.149 -0.0039  0.2782  0.5402
24398SOL    HW178041   7.139   3.253   7.183 -1.2521 -2.7308  2.1180
24398SOL    HW278042   7.060   3.266   7.054  1.8200  1.7289  0.5511
24399SOL     OW78043   8.753   1.784   5.167  0.0297 -0.1031 -0.4033
24399SOL    HW178044   8.788   1.707   5.212  0.0099 -0.4234 -0.9306
24399SOL    HW278045   8.759   1.762   5.074 -3.8061 -1.1657 -0.4996
24400SOL     OW78046   0.316   3.523   7.179  0.1562  0.1289 -0.1047
24400SOL    HW178047   0.328   3.468   7.101  2.5236  1.0628 -0.4479
24400SOL    HW278048   0.260   3.471   7.237  1.9586 -2.4669 -0.6062
24401SOL     OW78049   0.567   3.518   5.911 -0.5595  0.2234 -0.3328
24401SOL    HW178050   0.626   3.443   5.924  1.3971  1.7211 -0.4606
24401SOL    HW278051   0.514   3.493   5.835  0.1751 -0.9603 -0.4775
24402SOL     OW78052   0.060   3.109   6.081  0.9651  0.2013  0.0922
24402SOL    HW178053   0.025   3.116   6.170 -1.1166 -0.5483 -0.6189
24402SOL    HW278054  -0.017   3.120   6.025  2.2308  0.5469 -1.6156
24403SOL     OW78055   9.309   1.604   5.701 -0.5404 -0.6657  0.7014
24403SOL    HW178056   9.229   1.655   5.687  0.1465  0.3816  0.5040
24403SOL    HW278057   9.282   1.531   5.756 -2.2460 -1.9993 -1.8317
24404SOL     OW78058   8.977   2.032   6.074  0.7570 -0.3078  0.1033
24404SOL    HW178059   9.053   2.085   6.099  0.2288  0.6332 -0.2610
24404SOL    HW278060   9.013   1.944   6.060  2.0057  0.4136 -1.3376
24405SOL     OW78061   9.091   4.038   6.868  0.1452 -0.0734 -0.0053
24405SOL    HW178062   9.098   4.001   6.780 -0.4149  0.5729 -0.3196
24405SOL    HW278063   9.073   4.131   6.854  0.2361  0.0644  0.7899
24406SOL     OW78064   7.956   3.707   6.988 -0.0983 -0.1778 -0.2698
24406SOL    HW178065   7.995   3.720   6.902 -2.5386  0.3733 -1.3476
24406SOL    HW278066   8.030   3.701   7.048  1.5653  1.7055 -2.0870
24407SOL     OW78067   8.075   4.556   4.998 -0.0810 -0.7650 -0.2475
24407SOL    HW178068   8.036   4.590   4.918  0.4136  0.4136  0.0001
24407SOL    HW278069   8.008   4.572   5.065 -0.2657 -1.2204 -0.3278
24408SOL     OW78070   9.658   1.974   6.441 -0.4172 -0.0517 -0.4712
24408SOL    HW178071   9.609   2.055   6.429  1.3107  0.9723 -0.7779
24408SOL    HW278072   9.599   1.905   6.410 -1.5127  1.1743 -1.1608
24409SOL     OW78073   7.662   4.202   5.982 -0.3658 -0.0345  0.1728
24409SOL    HW178074   7.704   4.244   5.907 -0.9245  2.2111  1.0661
24409SOL    HW278075   7.710   4.235   6.058 -1.7582  0.1511  0.9881
24410SOL     OW78076   9.078   3.414   6.748  0.1483 -0.1195  0.0422
24410SOL    HW178077   9.157   3.409   6.803  1.3120  0.6083 -1.5309
24410SOL    HW278078   9.110   3.441   6.662 -1.9620  1.3553 -0.3239
24411SOL     OW78079   7.794   2.525   6.048  0.5950  0.5294  0.0235
24411SOL    HW178080   7.829   2.459   5.987 -0.2731 -1.4311  1.5912
24411SOL    HW278081   7.780   2.602   5.993  0.4820 -0.9667 -2.1445
24412SOL     OW78082   9.416   3.893   6.040 -0.2338  0.0496  0.5455
24412SOL    HW178083   9.384   3.946   6.113 -1.3114 -2.4814  1.9616
24412SOL    HW278084   9.504   3.868   6.066 -0.2776 -0.0995  0.5490
24413SOL     OW78085   8.922   2.731   6.788  0.8018 -0.0841 -0.0786
24413SOL    HW178086   8.954   2.760   6.874 -0.8742  1.6974 -0.0084
24413SOL    HW278087   8.926   2.809   6.733 -1.4105 -0.3231 -0.6216
24414SOL     OW78088   8.463   2.546   5.780 -0.1251  0.3970 -0.6927
24414SOL    HW178089   8.437   2.461   5.816  1.0478  1.1714  2.1447
24414SOL    HW278090   8.400   2.607   5.818  0.9990  1.2080 -0.1008
24415SOL     OW78091   0.471   3.839   5.156 -0.2672  0.0297  0.0512
24415SOL    HW178092   0.488   3.933   5.154 -0.4458  0.0702  0.3280
24415SOL    HW278093   0.514   3.809   5.236  0.3089 -0.2285 -0.3556
24416SOL     OW78094   8.091   4.386   6.724  0.3507  0.1180  0.6665
24416SOL    HW178095   8.064   4.297   6.699  0.2060  0.3259  0.0780
24416SOL    HW278096   8.013   4.424   6.764  0.0186  0.4296 -0.2719
24417SOL     OW78097   8.982   3.449   5.843  0.3935  0.1036  0.4309
24417SOL    HW178098   8.980   3.534   5.889  0.7641  0.6320 -0.5126
24417SOL    HW278099   9.070   3.445   5.806  0.8983 -1.3996  1.7676
24418SOL     OW78100   9.138   3.581   5.497  0.1277  0.1415 -0.6257
24418SOL    HW178101   9.178   3.667   5.496  0.7128 -0.0830  1.5787
24418SOL    HW278102   9.208   3.521   5.472 -0.5755  0.3661 -3.3503
24419SOL     OW78103   8.626   1.659   8.253  0.3039 -0.6704  0.0667
24419SOL    HW178104   8.543   1.703   8.234  0.5371 -0.7720 -1.2009
24419SOL    HW278105   8.692   1.711   8.208  0.6496 -1.9752 -0.9627
24420SOL     OW78106   8.816   2.116   6.393 -0.0484  0.1410  0.4272
24420SOL    HW178107   8.810   2.021   6.400  0.4520  0.0991  0.3347
24420SOL    HW278108   8.849   2.144   6.478  0.7704  0.1376  0.1153
24421SOL     OW78109   0.153   1.285   6.503 -0.1094 -0.4013 -0.4476
24421SOL    HW178110   0.130   1.203   6.459 -0.8524 -0.4567  0.0337
24421SOL    HW278111   0.069   1.327   6.521  0.1807 -0.3406  0.8458
24422SOL     OW78112   8.761   3.166   6.001  0.0918 -0.1812 -0.2770
24422SOL    HW178113   8.694   3.108   6.036  0.4466 -0.6578 -0.3857
24422SOL    HW278114   8.843   3.136   6.040  0.0773  1.2178  0.8745
24423SOL     OW78115   7.939   3.346   5.739  0.4789 -0.2535 -0.2708
24423SOL    HW178116   7.924   3.272   5.681  1.1824  0.2936 -1.1619
24423SOL    HW278117   7.978   3.414   5.683 -0.4995  0.9296  0.4509
24424SOL     OW78118   5.445   1.442   7.464 -0.2885  0.4286  0.1419
24424SOL    HW178119   5.526   1.412   7.422  0.6476  1.1266  1.4101
24424SOL    HW278120   5.405   1.501   7.400 -0.0170 -0.2513 -0.6627
24425SOL     OW78121   7.359   2.198   7.451 -0.1400  0.3196  0.4116
24425SOL    HW178122   7.322   2.139   7.385 -0.2135 -0.2352  0.9393
24425SOL    HW278123   7.439   2.232   7.412  0.1324 -0.4754  0.2710
24426SOL     OW78124   8.468   3.642   6.449  0.4220  0.3432 -0.2860
24426SOL    HW178125   8.474   3.702   6.523 -1.8005  0.8627 -0.4939
24426SOL    HW278126   8.549   3.591   6.452  1.2244  1.6875  1.3369
24427SOL     OW78127   8.481   2.917   6.056 -0.0679  0.6474  0.7947
24427SOL    HW178128   8.538   2.962   6.120 -0.1519  1.0064  0.6177
24427SOL    HW278129   8.426   2.860   6.109 -1.0405  1.9183  1.1650
24428SOL     OW78130   7.672   2.041   7.126 -0.2302  0.1580 -0.3942
24428SOL    HW178131   7.634   2.066   7.042  1.1848  1.8185 -0.5561
24428SOL    HW278132   7.754   1.996   7.102 -1.0691 -1.6242  0.0172
24429SOL     OW78133   8.798   3.729   6.795  0.1643  0.0720  0.4037
24429SOL    HW178134   8.703   3.724   6.808  0.1856  0.3597  0.6803
24429SOL    HW278135   8.835   3.703   6.879  0.3534 -1.5685 -0.1862
24430SOL     OW78136   7.738   4.525   7.520 -0.2799 -0.7361  0.2125
24430SOL    HW178137   7.718   4.431   7.511  0.4517 -1.0252  1.4861
24430SOL    HW278138   7.810   4.540   7.458 -0.1823 -1.0899  0.2386
24431SOL     OW78139   8.344   2.536   6.403  0.0626  0.3450 -0.1096
24431SOL    HW178140   8.387   2.534   6.317  2.4083  1.9112  0.9537
24431SOL    HW278141   8.411   2.571   6.462 -1.6386 -0.3273  2.2894
24432SOL     OW78142   7.389   3.148   6.580 -0.0563 -0.4798 -0.8359
24432SOL    HW178143   7.483   3.128   6.579 -0.5031 -2.7497 -1.4529
24432SOL    HW278144   7.352   3.088   6.515 -2.2481 -1.3042  1.0989
24433SOL     OW78145   9.113   1.311   7.385  0.3974  0.1275 -0.0775
24433SOL    HW178146   9.178   1.371   7.419  1.4013 -0.2865 -1.2180
24433SOL    HW278147   9.030   1.359   7.390  1.5706  2.6525 -3.4950
24434SOL     OW78148   9.349   4.078   6.240  0.1984 -0.3307  0.1909
24434SOL    HW178149   9.391   4.038   6.316  1.0518 -0.1438 -0.1811
24434SOL    HW278150   9.401   4.156   6.222 -0.3440 -0.0618 -0.2387
24435SOL     OW78151   0.080   1.648   6.922 -0.1187 -0.2532  1.0273
24435SOL    HW178152   0.163   1.675   6.961 -0.1192 -0.6055  1.2757
24435SOL    HW278153   0.034   1.601   6.992 -0.4155 -0.2817  0.8159
24436SOL     OW78154   8.917   2.840   9.493 -0.1208 -0.3132 -0.4315
24436SOL    HW178155   8.919   2.850   9.588 -1.1854 -0.8381 -0.3515
24436SOL    HW278156   8.860   2.765   9.478  0.2276 -0.3736 -1.4793
24437SOL     OW78157   8.865   3.605   7.045  0.0310  0.0087  0.2893
24437SOL    HW178158   8.960   3.606   7.061  0.1368 -0.5346 -0.2592
24437SOL    HW278159   8.827   3.645   7.123  0.6934 -0.1102  0.6823
24438SOL     OW78160   8.682   3.014   6.211 -0.1582 -0.6277 -0.2485
24438SOL    HW178161   8.777   3.016   6.199 -0.0274 -0.1450  0.7691
24438SOL    HW278162   8.666   3.082   6.277 -1.0850 -1.5019  0.4276
24439SOL     OW78163   8.536   3.103   5.014 -0.3635 -0.2211  0.4784
24439SOL    HW178164   8.486   3.029   5.048 -0.6980  0.7818  2.2500
24439SOL    HW278165   8.621   3.096   5.057 -0.9870  1.3966  2.0399
24440SOL     OW78166   8.528   3.772   4.380 -0.0912 -0.0839 -0.2911
24440SOL    HW178167   8.609   3.745   4.421 -0.2378  0.1579  0.1654
24440SOL    HW278168   8.469   3.697   4.390 -0.1641  0.0169  0.0538
24441SOL     OW78169   9.685   3.444   7.383 -0.1839  0.3479 -0.6232
24441SOL    HW178170   9.774   3.440   7.419 -0.8909 -0.2474  1.0907
24441SOL    HW278171   9.645   3.362   7.408 -2.0466  1.6643  0.8220
24442SOL     OW78172   8.713   2.818   5.369  0.4128  0.2158  0.0381
24442SOL    HW178173   8.770   2.747   5.339 -1.9451 -1.2344 -1.2022
24442SOL    HW278174   8.720   2.885   5.301 -0.8585 -0.8118 -1.1243
24443SOL     OW78175   6.933   3.748   6.277  0.1827  0.3460  0.5835
24443SOL    HW178176   7.013   3.791   6.248  0.7614 -0.1029  1.4950
24443SOL    HW278177   6.889   3.722   6.196  0.3627  1.6626  0.0529
24444SOL     OW78178   7.951   1.817   6.614  0.3108  0.0565  0.6142
24444SOL    HW178179   8.046   1.806   6.609  0.3521 -0.0887  1.7652
24444SOL    HW278180   7.919   1.735   6.652 -0.1682  0.5295  1.2401
24445SOL     OW78181   9.129   1.261   6.821  0.2499 -0.2675  0.6701
24445SOL    HW178182   9.163   1.179   6.786 -0.8233 -0.3013 -0.3345
24445SOL    HW278183   9.038   1.241   6.845 -0.3146  0.8625 -0.4538
24446SOL     OW78184   8.945   3.011   6.202 -0.1957  0.0739 -0.4310
24446SOL    HW178185   8.975   2.972   6.285 -0.7608  0.1833 -0.1702
24446SOL    HW278186   9.024   3.043   6.161 -0.0196  0.8824  0.5188
24447SOL     OW78187   7.776   3.710   6.504 -0.0735 -0.2357 -0.2452
24447SOL    HW178188   7.712   3.642   6.484 -1.0655 -0.0520  2.1148
24447SOL    HW278189   7.769   3.771   6.431 -1.9413 -0.7058 -0.4969
24448SOL     OW78190   7.980   3.055   6.089 -0.4325  0.1233  0.3196
24448SOL    HW178191   8.037   3.044   6.013 -0.2224 -0.1496  0.5176
24448SOL    HW278192   7.998   2.979   6.145 -1.0277 -0.0004  0.3570
24449SOL     OW78193   8.265   1.945   5.770  0.6166  0.2869 -0.0565
24449SOL    HW178194   8.307   1.905   5.846 -0.7489 -0.9981  0.0470
24449SOL    HW278195   8.305   2.032   5.764  2.7185 -0.6122  0.4649
24450SOL     OW78196   9.262   3.016   5.915  0.3842  0.5091  0.0868
24450SOL    HW178197   9.282   3.102   5.952 -0.9109  1.3823 -1.1998
24450SOL    HW278198   9.347   2.973   5.907  1.1348  1.9809 -0.0477
24451SOL     OW78199   9.280   2.261   7.228  0.3873 -0.7678 -0.2779
24451SOL    HW178200   9.232   2.182   7.253 -0.1564 -0.8624 -1.6010
24451SOL    HW278201   9.222   2.333   7.250  0.4154 -0.7855 -0.1449
24452SOL     OW78202   7.932   2.907   7.292 -0.4111  0.3212  0.4629
24452SOL    HW178203   7.942   2.913   7.387  2.7574 -2.3974  0.4095
24452SOL    HW278204   7.852   2.856   7.279 -0.6396  0.3495  1.7137
24453SOL     OW78205   8.662   2.672   5.980 -0.3818  0.0088 -0.1350
24453SOL    HW178206   8.678   2.729   5.905 -0.1834  0.4831  0.2606
24453SOL    HW278207   8.621   2.729   6.045 -1.7130 -0.6896 -0.3377
24454SOL     OW78208   9.669   2.076   4.139  0.4111  0.4068  0.2720
24454SOL    HW178209   9.688   1.994   4.093  0.2638 -0.1047  1.1176
24454SOL    HW278210   9.727   2.074   4.215 -0.7779  0.3082  1.1803
24455SOL     OW78211   8.403   2.196   5.530 -0.6429  0.0517  0.0377
24455SOL    HW178212   8.409   2.195   5.625 -0.1171 -0.6450 -0.0022
24455SOL    HW278213   8.461   2.267   5.503 -1.6166  0.9729  0.2810
24456SOL     OW78214   9.519   1.539   5.876  0.1784  0.0105  0.4238
24456SOL    HW178215   9.479   1.593   5.808  1.5952  0.8088  0.2079
24456SOL    HW278216   9.449   1.479   5.903 -1.3163  1.7201  0.4455
24457SOL     OW78217   8.009   2.671   5.665  0.5014 -0.4332  0.0801
24457SOL    HW178218   7.959   2.594   5.692 -0.5466 -0.1882 -1.0983
24457SOL    HW278219   8.030   2.654   5.573  1.6457 -0.0377  0.2711
24458SOL     OW78220   9.336   2.420   5.227  0.2322  0.4641 -0.3978
24458SOL    HW178221   9.311   2.373   5.307  2.2421 -1.6093 -0.9684
24458SOL    HW278222   9.252   2.442   5.186 -0.8120  0.7975  1.8304
24459SOL     OW78223   8.522   2.732   6.507 -0.0187 -0.0065  0.1701
24459SOL    HW178224   8.578   2.674   6.560  0.9834 -0.3178 -1.1902
24459SOL    HW278225   8.575   2.810   6.493 -0.7313  0.5604  0.5911
24460SOL     OW78226   7.762   2.299   7.858  0.1655 -0.3626 -0.4562
24460SOL    HW178227   7.788   2.243   7.931 -0.4380  0.3641  0.3270
24460SOL    HW278228   7.843   2.341   7.829  0.5685 -1.3850 -0.8427
24461SOL     OW78229   7.685   1.254   6.345  0.0688 -0.4299 -0.5157
24461SOL    HW178230   7.698   1.330   6.402 -0.9048  0.1587 -1.0697
24461SOL    HW278231   7.615   1.204   6.387 -1.0253  0.2806 -1.4483
24462SOL     OW78232   9.729   3.290   9.115 -0.2425  0.2722  0.8231
24462SOL    HW178233   9.668   3.299   9.188 -1.7140  0.8662 -0.4454
24462SOL    HW278234   9.693   3.217   9.064  1.3974 -0.8696  1.2743
24463SOL     OW78235   8.881   3.577   8.756 -0.2708  0.1276  0.3128
24463SOL    HW178236   8.813   3.542   8.813 -0.1651  2.4612  1.9744
24463SOL    HW278237   8.944   3.506   8.745 -1.3918 -1.0255  1.3505
24464SOL     OW78238   9.386   1.895   8.047 -0.1915  0.5529 -0.6091
24464SOL    HW178239   9.480   1.903   8.030  0.1602 -0.3755  0.7981
24464SOL    HW278240   9.354   1.985   8.046  0.8489  0.9382 -0.3490
24465SOL     OW78241   0.776   1.779   5.724  0.3087  0.5402  0.0718
24465SOL    HW178242   0.751   1.724   5.650 -0.9877  0.7190  0.3596
24465SOL    HW278243   0.763   1.723   5.801 -1.6877  1.4554  0.4184
24466SOL     OW78244   8.135   2.943   8.656 -1.0824 -0.7049  0.4432
24466SOL    HW178245   8.218   2.927   8.611 -1.1653 -0.1504  0.0883
24466SOL    HW278246   8.079   2.871   8.630 -1.3514 -0.0298 -0.8686
24467SOL     OW78247   8.910   1.449   0.539 -0.2013  0.0491 -0.0935
24467SOL    HW178248   8.929   1.384   0.471  0.1592  0.8287 -0.7490
24467SOL    HW278249   8.819   1.473   0.525 -0.4562 -0.6280  0.4141
24468SOL     OW78250   7.651   2.319   9.032 -0.1147  0.3064  0.0798
24468SOL    HW178251   7.637   2.284   9.120 -0.2500 -0.6391 -0.3202
24468SOL    HW278252   7.565   2.315   8.990  0.2452 -0.6011 -0.5893
24469SOL     OW78253   7.754   1.536   7.962  0.1700 -0.5287 -0.4693
24469SOL    HW178254   7.795   1.465   7.912  1.3657  1.3521 -2.2644
24469SOL    HW278255   7.714   1.591   7.896  0.1764  1.0392  0.8054
24470SOL     OW78256   5.209   2.846   8.269  0.0786  0.1987  0.1850
24470SOL    HW178257   5.218   2.908   8.341 -0.6576 -0.1206  0.5573
24470SOL    HW278258   5.124   2.868   8.229 -0.0630 -0.3871  0.1521
24471SOL     OW78259   9.081   3.253   8.755 -0.4367  0.3885  0.0527
24471SOL    HW178260   9.012   3.306   8.714  0.3735  0.8458 -0.7279
24471SOL    HW278261   9.151   3.314   8.775  0.2166 -0.2631 -0.2015
24472SOL     OW78262   7.454   0.037   8.627 -0.0550 -0.3451 -0.2078
24472SOL    HW178263   7.491   0.049   8.540 -1.3715 -0.7511 -0.8398
24472SOL    HW278264   7.409   0.120   8.646 -1.3549 -0.9257 -0.7092
24473SOL     OW78265   9.720   3.338   6.549  0.3618  0.3756  0.2878
24473SOL    HW178266   9.686   3.333   6.639 -0.7814  0.1893 -0.1478
24473SOL    HW278267   9.643   3.324   6.494  0.9526  1.1403 -0.7331
24474SOL     OW78268   7.835   2.333   9.779  1.0292  0.2079 -0.6231
24474SOL    HW178269   7.843   2.278   9.856  0.9677  0.7001 -0.2620
24474SOL    HW278270   7.885   2.412   9.800 -0.0380  0.8910 -0.5718
24475SOL     OW78271   8.799   3.148   9.062 -0.2575  0.3085  0.5841
24475SOL    HW178272   8.817   3.094   9.139  1.9523 -0.2427 -0.2686
24475SOL    HW278273   8.789   3.237   9.097 -0.1353 -0.0712  1.6010
24476SOL     OW78274   8.858   2.552   7.530 -0.0452  0.1247  0.0931
24476SOL    HW178275   8.908   2.626   7.563 -0.7928  0.7131 -0.0724
24476SOL    HW278276   8.920   2.504   7.475  0.1058  1.3241 -0.8057
24477SOL     OW78277   8.000   1.447   9.551 -0.8203 -0.0949  0.0083
24477SOL    HW178278   7.940   1.395   9.497 -1.2706  0.3539  0.0707
24477SOL    HW278279   8.028   1.519   9.495  1.0240 -1.2515 -0.5908
24478SOL     OW78280   6.971   2.428   7.883 -0.0871  0.4075 -0.0051
24478SOL    HW178281   7.039   2.493   7.864  1.6620 -0.6534  2.4170
24478SOL    HW278282   6.955   2.385   7.800  0.3073  2.4483 -1.1729
24479SOL     OW78283   7.627   2.216   7.378  0.1158  0.2733 -0.2348
24479SOL    HW178284   7.713   2.244   7.348  0.0295  0.8766  0.0876
24479SOL    HW278285   7.594   2.162   7.306  0.6318  0.2953 -0.4913
24480SOL     OW78286   9.678   0.032   8.346 -0.1066  0.2389 -0.5265
24480SOL    HW178287   9.637   0.009   8.429  1.1179  0.4511  0.1309
24480SOL    HW278288   9.694  -0.052   8.303  2.3684 -0.0649  0.9306
24481SOL     OW78289   7.357   9.748   7.857 -0.7933 -0.3359 -0.2451
24481SOL    HW178290   7.357   9.729   7.763  1.5297  0.6524 -0.4907
24481SOL    HW278291   7.376   9.664   7.899  0.4808 -0.3499 -0.8139
24482SOL     OW78292   9.949   3.876   8.979 -0.1749  0.0422 -0.2829
24482SOL    HW178293   9.973   3.784   8.968 -0.5768 -0.0152 -0.7104
24482SOL    HW278294  10.007   3.922   8.918  0.0306  0.0713 -0.0661
24483SOL     OW78295   8.100   3.527   8.261  0.2918  0.1213 -0.3192
24483SOL    HW178296   8.081   3.437   8.234 -2.3145  0.5015  0.1264
24483SOL    HW278297   8.163   3.518   8.332 -2.0026 -1.5435  1.5903
24484SOL     OW78298   7.836   3.216   8.769 -0.1913 -0.0809 -1.1605
24484SOL    HW178299   7.922   3.192   8.804  0.9657  0.8051 -3.3569
24484SOL    HW278300   7.821   3.304   8.801 -1.0114 -0.8164  0.5341
24485SOL     OW78301   8.972   2.079   9.630 -0.6134 -0.1799  0.1635
24485SOL    HW178302   8.960   2.015   9.700 -1.0386 -0.9189 -0.5670
24485SOL    HW278303   9.038   2.039   9.573  1.2689  1.3329  1.1954
24486SOL     OW78304   8.747   3.278   0.151 -0.1288  0.0436  0.4442
24486SOL    HW178305   8.816   3.336   0.184  1.7043 -0.8073 -1.7286
24486SOL    HW278306   8.771   3.191   0.183 -0.4758 -0.1763  0.1199
24487SOL     OW78307   0.514   0.975   7.820  0.0581 -0.4018  0.2761
24487SOL    HW178308   0.559   0.899   7.783 -0.9597 -0.8614 -0.0450
24487SOL    HW278309   0.463   1.010   7.747  0.4405  0.5374  0.4524
24488SOL     OW78310   7.150   3.386   9.473  0.2432  0.3147  1.0539
24488SOL    HW178311   7.219   3.378   9.539  0.2045 -0.4582  0.9947
24488SOL    HW278312   7.069   3.379   9.523  0.2036  1.2583  1.1286
24489SOL     OW78313   8.180   3.927   8.850 -0.2740 -0.7144  0.6503
24489SOL    HW178314   8.253   3.987   8.870 -0.2526  0.6886 -3.1882
24489SOL    HW278315   8.220   3.859   8.796 -1.3408 -1.2658  0.5500
24490SOL     OW78316   7.170   2.226   9.440 -0.7393  0.4129 -0.0349
24490SOL    HW178317   7.211   2.233   9.526 -1.2847  0.3513  0.2359
24490SOL    HW278318   7.155   2.317   9.413 -3.1474  0.4123  1.2028
24491SOL     OW78319   9.390   1.935   0.268 -0.1676 -0.0903 -0.4174
24491SOL    HW178320   9.407   1.915   0.176 -0.7957  2.0664 -1.0351
24491SOL    HW278321   9.301   1.971   0.268  0.4238  1.3846  0.8140
24492SOL     OW78322   7.836   3.853   9.292  0.6717  0.1281 -0.7323
24492SOL    HW178323   7.776   3.884   9.223  1.4300 -1.0403 -1.9462
24492SOL    HW278324   7.906   3.918   9.294 -0.4257  1.2993  0.4277
24493SOL     OW78325   6.936   4.010   7.701  0.5488  0.0760  0.6428
24493SOL    HW178326   6.985   3.938   7.741  1.2278 -0.4992 -1.2032
24493SOL    HW278327   7.002   4.067   7.662 -0.0879  0.8168  0.6129
24494SOL     OW78328   9.718   2.202   7.524  0.3123  0.1899  0.0375
24494SOL    HW178329   9.799   2.169   7.484  1.0036 -0.1699  1.6870
24494SOL    HW278330   9.690   2.272   7.466  0.6747 -1.0471 -1.6840
24495SOL     OW78331   9.075   2.384   8.567 -0.1782 -0.2006  0.1885
24495SOL    HW178332   9.047   2.376   8.476 -1.9153  0.5884  0.6449
24495SOL    HW278333   9.063   2.476   8.589 -0.1717 -0.4604  1.3561
24496SOL     OW78334   8.764   2.406   9.232  0.6142  0.1108 -0.2955
24496SOL    HW178335   8.748   2.363   9.316  0.6960 -2.5547 -1.5860
24496SOL    HW278336   8.678   2.411   9.190  1.0136 -1.4983 -1.3644
24497SOL     OW78337   8.849   0.676   9.018  0.3492  0.2169  0.6575
24497SOL    HW178338   8.844   0.582   9.004 -0.3271  0.2804  0.4865
24497SOL    HW278339   8.924   0.704   8.965 -0.6537  0.0722 -0.8459
24498SOL     OW78340   8.984   1.991   9.887 -0.1022 -0.1363  0.0286
24498SOL    HW178341   8.971   1.929   9.959  0.5596  1.0611  1.2202
24498SOL    HW278342   9.077   2.015   9.892  0.4286 -1.5078 -2.4751
24499SOL     OW78343   7.596   3.084   8.682  0.2263  0.1820 -0.0571
24499SOL    HW178344   7.688   3.102   8.700 -0.1808  0.0060  2.3721
24499SOL    HW278345   7.549   3.123   8.756 -1.5682 -0.5563 -0.7818
24500SOL     OW78346   7.510   1.960   7.798 -0.4791 -0.6090 -0.7332
24500SOL    HW178347   7.489   1.944   7.890  0.3341 -0.2907 -0.4859
24500SOL    HW278348   7.605   1.976   7.797 -0.3118 -1.6339 -1.7745
24501SOL     OW78349   7.632   3.856   9.894  0.1141  0.6278 -0.1592
24501SOL    HW178350   7.619   3.791   9.825 -0.1933  0.2248  0.2762
24501SOL    HW278351   7.638   3.940   9.847  0.3523  0.3065 -0.7076
24502SOL     OW78352   8.514   2.503   8.166  0.3352 -0.2830 -0.0722
24502SOL    HW178353   8.492   2.576   8.108 -0.4727 -0.4089  0.0608
24502SOL    HW278354   8.584   2.535   8.221  1.0083 -0.1105 -1.0273
24503SOL     OW78355   0.369   2.635   9.128  0.1664 -0.4859 -0.1857
24503SOL    HW178356   0.276   2.611   9.131 -0.7030  2.3563 -1.6900
24503SOL    HW278357   0.399   2.604   9.043 -0.0513  0.6175 -0.6788
24504SOL     OW78358   6.909   3.710   7.581 -0.3406 -1.1076  0.4212
24504SOL    HW178359   7.001   3.727   7.604 -0.9721  0.2968  2.0040
24504SOL    HW278360   6.902   3.737   7.490  0.4469  0.2814  0.7553
24505SOL     OW78361   8.458   2.204   7.073 -0.3818 -0.2454 -0.1546
24505SOL    HW178362   8.474   2.296   7.092  0.5332 -0.4270 -0.0024
24505SOL    HW278363   8.470   2.197   6.978 -0.7287 -0.1535 -0.2048
24506SOL     OW78364   7.618   5.097   7.736 -0.5766 -0.1774  0.2373
24506SOL    HW178365   7.626   5.192   7.747 -1.2461  0.1455 -1.9513
24506SOL    HW278366   7.623   5.063   7.826  0.3066  1.8599  1.0076
24507SOL     OW78367   8.690   3.138   7.598  0.2457 -0.2988  0.1113
24507SOL    HW178368   8.616   3.078   7.588 -0.4698  0.9881 -2.7990
24507SOL    HW278369   8.651   3.225   7.595  1.6618  0.3776  0.6505
24508SOL     OW78370   9.466   4.591   9.616  0.7173 -0.3533 -0.2870
24508SOL    HW178371   9.521   4.573   9.692  2.2565 -0.6426 -1.4498
24508SOL    HW278372   9.444   4.504   9.581  0.4124 -0.2136 -0.4420
24509SOL     OW78373   8.026   4.941   8.641 -0.0108 -0.0871  0.0828
24509SOL    HW178374   8.023   5.036   8.633  0.8568 -0.0603  0.0019
24509SOL    HW278375   8.047   4.910   8.553 -2.3893 -0.4877 -0.3713
24510SOL     OW78376   6.382   2.914   8.203  0.2917  0.3229  0.3200
24510SOL    HW178377   6.346   2.949   8.285 -1.8899  0.9934 -0.8946
24510SOL    HW278378   6.329   2.836   8.186 -0.8363  1.4705 -1.6306
24511SOL     OW78379   8.214   2.171   0.090 -0.2950 -0.3047 -0.2175
24511SOL    HW178380   8.220   2.264   0.070  1.3683 -0.8276 -2.2899
24511SOL    HW278381   8.231   2.166   0.184  0.6396  1.3753 -0.2829
24512SOL     OW78382   8.105   3.139   7.222  0.0721  0.5142  0.2786
24512SOL    HW178383   8.068   3.225   7.207 -0.1669  0.2683 -0.5676
24512SOL    HW278384   8.032   3.085   7.252  0.0551  0.4022  0.0356
24513SOL     OW78385   8.584   2.997   9.252  0.2238  0.3198 -0.3256
24513SOL    HW178386   8.570   2.947   9.333 -0.5698  0.0612 -0.6148
24513SOL    HW278387   8.538   2.946   9.185  1.0621  0.4244 -0.9758
24514SOL     OW78388   7.440   2.893   8.376 -0.3009 -0.2421  0.0798
24514SOL    HW178389   7.471   2.824   8.317  0.0218 -1.1399  1.2812
24514SOL    HW278390   7.347   2.874   8.388  0.5598 -2.7002  3.3470
24515SOL     OW78391   7.650   1.589   9.058  0.1280 -0.2845 -0.2980
24515SOL    HW178392   7.710   1.584   8.984  0.8535 -0.6197  0.2984
24515SOL    HW278393   7.611   1.676   9.052  1.7080  0.4763  0.0865
24516SOL     OW78394   7.550   3.670   9.646  0.0816 -0.0140 -0.1460
24516SOL    HW178395   7.478   3.724   9.614 -0.9508 -2.1586 -1.6117
24516SOL    HW278396   7.619   3.682   9.580 -0.4414 -1.0552 -0.9026
24517SOL     OW78397   7.877   4.077   7.314 -0.3556  0.0993 -0.2830
24517SOL    HW178398   7.885   4.090   7.219 -1.1302  0.1963 -0.3461
24517SOL    HW278399   7.921   3.994   7.331  0.3367  0.3903 -0.6316
24518SOL     OW78400   8.966   1.245   9.956  0.2632  0.2148 -0.1121
24518SOL    HW178401   8.936   1.192   9.882 -0.9578 -2.6824  2.3560
24518SOL    HW278402   9.062   1.238   9.953  0.2201 -0.0297 -1.2689
24519SOL     OW78403   7.522   1.589   6.541  0.0599  0.5705 -0.1500
24519SOL    HW178404   7.464   1.513   6.533  0.8336  0.0906 -1.2108
24519SOL    HW278405   7.601   1.565   6.493  1.4675  0.9296  1.8953
24520SOL     OW78406   8.099   3.084   9.782  0.3001  0.9335 -0.1928
24520SOL    HW178407   8.050   3.051   9.707  0.9023  0.3426 -0.3344
24520SOL    HW278408   8.190   3.080   9.755  0.5474  0.4604  0.6563
24521SOL     OW78409   7.839   1.928   8.991  0.2954 -0.1392  0.1554
24521SOL    HW178410   7.835   1.920   9.086  0.0757 -4.4980 -0.1457
24521SOL    HW278411   7.755   1.894   8.960 -0.4733  3.1105 -1.5786
24522SOL     OW78412   7.689   2.772   8.005 -0.0213  0.0183 -0.3374
24522SOL    HW178413   7.774   2.756   8.046  0.3568 -0.3353 -1.2413
24522SOL    HW278414   7.699   2.740   7.915 -0.5562  1.6126 -0.9866
24523SOL     OW78415   8.984   1.076   9.053 -0.5845  0.4134 -0.0988
24523SOL    HW178416   9.050   1.012   9.029 -2.6112 -1.4787 -0.8480
24523SOL    HW278417   8.936   1.035   9.126  1.1889  3.1966  2.7425
24524SOL     OW78418   8.180   2.369   7.983 -0.4216 -0.0737  0.0153
24524SOL    HW178419   8.233   2.305   8.029 -0.8515 -0.8472 -0.5495
24524SOL    HW278420   8.210   2.454   8.016  2.1738 -0.4113 -1.3670
24525SOL     OW78421   7.363   2.018   7.224 -0.1761 -0.0510  0.0567
24525SOL    HW178422   7.401   1.931   7.216  1.0567  0.4313  0.4868
24525SOL    HW278423   7.381   2.060   7.139  0.3463  0.2041  0.2885
24526SOL     OW78424   8.277   0.708   7.964  0.0062  0.1036  0.1834
24526SOL    HW178425   8.318   0.628   7.997 -2.0374 -1.0130  0.0840
24526SOL    HW278426   8.289   0.704   7.869  2.1157  1.2022  0.3632
24527SOL     OW78427   7.748   3.904   6.753 -0.1077  0.4467 -0.6547
24527SOL    HW178428   7.734   3.992   6.718 -0.3819  0.0809 -1.4592
24527SOL    HW278429   7.676   3.891   6.815 -0.2161  0.6841 -0.7313
24528SOL     OW78430   9.333   2.555   8.777 -0.0397  0.1862 -0.1463
24528SOL    HW178431   9.308   2.511   8.697 -0.0399 -0.3013  0.1214
24528SOL    HW278432   9.388   2.492   8.823  0.2720  0.6059  0.0612
24529SOL     OW78433   0.195   4.637   9.998 -0.0094  0.2820 -0.0908
24529SOL    HW178434   0.211   4.710   9.938 -0.1809  1.5059  1.3199
24529SOL    HW278435   0.268   4.639  10.059  0.6219 -1.4989 -0.7548
24530SOL     OW78436   9.221   3.479   6.539  0.7474 -0.5774 -0.3350
24530SOL    HW178437   9.246   3.570   6.520 -0.3270 -0.0561  0.6870
24530SOL    HW278438   9.304   3.433   6.548  1.3211  0.5501  0.2896
24531SOL     OW78439   8.388   1.937   9.031 -0.1350 -0.7878  0.0865
24531SOL    HW178440   8.416   1.998   8.962 -1.8280  0.2604  0.2995
24531SOL    HW278441   8.297   1.918   9.011 -0.1616 -1.7878  1.1085
24532SOL     OW78442   9.014   1.993   8.608  0.3453 -0.1523 -0.2390
24532SOL    HW178443   9.055   2.012   8.523 -0.2301 -2.2669 -1.0221
24532SOL    HW278444   8.944   1.932   8.588  0.9859 -1.6611  1.9110
24533SOL     OW78445   8.208   2.999   7.457 -0.0137  0.4421  0.1237
24533SOL    HW178446   8.202   3.062   7.385  0.5133  1.9505  1.3777
24533SOL    HW278447   8.192   2.914   7.415 -0.0837  1.3212 -1.7078
24534SOL     OW78448   9.396   2.284   7.780 -0.1019 -0.0801  0.0389
24534SOL    HW178449   9.307   2.308   7.804 -0.0666 -1.3062  1.5029
24534SOL    HW278450   9.393   2.272   7.685 -1.4520  0.0542  0.0561
24535SOL     OW78451   7.707   1.005   9.432  0.4474 -0.1720  0.4895
24535SOL    HW178452   7.647   0.978   9.363 -0.5620  0.8539  0.9490
24535SOL    HW278453   7.755   0.925   9.455 -0.8277 -1.0362  0.1891
24536SOL     OW78454   9.101   0.871   9.928 -0.0336 -0.2002 -0.0054
24536SOL    HW178455   9.066   0.869  10.017  0.3297  1.2337  0.1814
24536SOL    HW278456   9.041   0.816   9.877 -1.3560  0.5369  0.7298
24537SOL     OW78457   9.733   1.110   6.371 -0.1319 -0.0898 -0.3170
24537SOL    HW178458   9.673   1.037   6.386  0.1933 -0.4080 -0.5658
24537SOL    HW278459   9.819   1.069   6.361  0.0000  0.3019 -0.8011
24538SOL     OW78460   9.492   2.896   7.406  0.1886 -0.3942  0.0255
24538SOL    HW178461   9.522   2.857   7.324 -0.5310 -0.7744 -0.0632
24538SOL    HW278462   9.401   2.868   7.413  0.7071 -1.7750  1.7683
24539SOL     OW78463   9.829   3.863   6.534  0.7248 -0.6275 -0.1455
24539SOL    HW178464   9.751   3.809   6.549 -1.1538  1.8128 -0.8013
24539SOL    HW278465   9.849   3.900   6.620  0.9729 -1.0207 -0.0351
24540SOL     OW78466   9.117   3.104   6.884  0.1433 -0.6186  0.7940
24540SOL    HW178467   9.162   3.111   6.968 -2.5887  1.3173  2.1670
24540SOL    HW278468   9.169   3.159   6.824  1.8623 -1.6785  1.2766
24541SOL     OW78469   7.829   3.635   8.202  0.1301  0.1897  0.1268
24541SOL    HW178470   7.907   3.599   8.245  1.3581  2.8150  0.2122
24541SOL    HW278471   7.841   3.614   8.110 -0.8062 -2.4445  0.5696
24542SOL     OW78472   9.946   3.878   9.604 -0.1871  0.0977 -0.4525
24542SOL    HW178473  10.013   3.816   9.576  0.5264 -0.0484  1.4696
24542SOL    HW278474   9.905   3.835   9.680  0.5043  2.0699  1.0781
24543SOL     OW78475   7.633   3.506   8.357  0.1208  0.0439 -0.4448
24543SOL    HW178476   7.697   3.481   8.423  0.3190  0.4574 -0.4858
24543SOL    HW278477   7.685   3.531   8.281 -0.1200 -1.2749 -1.0578
24544SOL     OW78478   9.277   3.444   0.144  0.1690 -0.5560  0.0088
24544SOL    HW178479   9.231   3.432   0.061 -2.8455  0.6227  1.3981
24544SOL    HW278480   9.257   3.365   0.195 -0.8015  0.1680  0.7933
24545SOL     OW78481   8.525   3.270   7.177 -0.2342 -0.4032  0.3666
24545SOL    HW178482   8.553   3.181   7.200  0.6107 -0.4166 -0.6661
24545SOL    HW278483   8.596   3.304   7.122 -1.5095  0.1643 -0.9641
24546SOL     OW78484   7.915   1.389   8.620 -0.0781  0.2152  0.0762
24546SOL    HW178485   7.987   1.419   8.675 -1.2943 -0.3847  2.0242
24546SOL    HW278486   7.903   1.297   8.643 -1.2228  0.2069 -0.4933
24547SOL     OW78487   0.031   1.064   0.374  0.3650  0.2488 -0.1037
24547SOL    HW178488   0.001   0.985   0.330 -0.6293  0.0073  0.9653
24547SOL    HW278489   0.049   1.126   0.303  0.6823 -0.7677 -0.9217
24548SOL     OW78490   9.272   2.209   8.549  0.0104  0.1842  0.1895
24548SOL    HW178491   9.183   2.241   8.566 -0.3983 -0.4999 -0.6384
24548SOL    HW278492   9.296   2.249   8.466 -0.2194 -1.0474 -0.4839
24549SOL     OW78493   8.358   1.173   9.864 -0.5036  0.1192  0.6990
24549SOL    HW178494   8.265   1.184   9.843 -0.1940  2.1925  0.2907
24549SOL    HW278495   8.398   1.150   9.780 -0.4751  0.4208  0.6289
24550SOL     OW78496   9.720   4.476   9.219  0.1120 -0.3126  0.3287
24550SOL    HW178497   9.797   4.474   9.276  0.4237 -0.8396 -0.0937
24550SOL    HW278498   9.721   4.390   9.176 -0.3679 -0.0909 -0.1303
24551SOL     OW78499   7.947   4.026   8.569  0.1217 -0.5891  0.3165
24551SOL    HW178500   7.905   4.112   8.564 -0.4669 -0.9297 -0.7034
24551SOL    HW278501   7.932   3.997   8.658  0.1634  0.2896  0.6145
24552SOL     OW78502   7.936   1.120   7.603  0.0235  0.2530 -0.0302
24552SOL    HW178503   7.854   1.161   7.628 -0.0447  0.6524 -0.8895
24552SOL    HW278504   7.991   1.126   7.681 -0.8080 -0.1547  0.5951
24553SOL     OW78505   9.346   2.825   6.821  0.6985 -0.0390  0.6139
24553SOL    HW178506   9.254   2.816   6.794  1.1677 -1.2885 -0.6168
24553SOL    HW278507   9.372   2.736   6.845  0.8433  0.7275  3.5045
24554SOL     OW78508   8.298   1.959   9.578 -0.2187  0.4501  0.9179
24554SOL    HW178509   8.235   1.887   9.577  0.2328  0.0655  0.0837
24554SOL    HW278510   8.381   1.920   9.550  0.4745  0.8971  2.2649
24555SOL     OW78511   8.468   3.519   6.737 -0.3561 -0.0142 -0.1119
24555SOL    HW178512   8.468   3.591   6.800  0.1013 -0.7396  0.7260
24555SOL    HW278513   8.397   3.461   6.766 -0.4457 -0.1134 -0.5286
24556SOL     OW78514   8.925   3.513   8.018 -0.3600  0.3457 -0.2933
24556SOL    HW178515   8.957   3.533   7.930 -0.6184  1.5473 -0.1269
24556SOL    HW278516   8.968   3.578   8.075  1.2959 -1.6179  0.7606
24557SOL     OW78517   9.012   1.162   8.519  0.3494  0.1402  0.1568
24557SOL    HW178518   8.989   1.201   8.435 -0.2866  0.6874  0.5888
24557SOL    HW278519   8.955   1.205   8.582  0.9870 -0.1096  0.9044
24558SOL     OW78520   0.346   3.492   1.292  0.0387 -0.4996 -0.1378
24558SOL    HW178521   0.278   3.445   1.339  0.4209  0.5944  1.5776
24558SOL    HW278522   0.301   3.537   1.221 -0.9418 -0.2405  0.6472
24559SOL     OW78523   8.306   2.230   9.565  0.1338  0.1495 -0.5015
24559SOL    HW178524   8.299   2.141   9.598 -2.2819  0.8579  0.9851
24559SOL    HW278525   8.372   2.272   9.621 -0.2636 -0.0919  0.1408
24560SOL     OW78526   7.924   1.724   1.152  0.0096 -0.4020  0.6224
24560SOL    HW178527   7.984   1.784   1.195 -1.1554  1.4280 -0.2491
24560SOL    HW278528   7.842   1.730   1.202 -0.0950 -1.3462  0.5879
24561SOL     OW78529   7.247   1.803   8.913 -0.5373  0.0582 -0.4728
24561SOL    HW178530   7.223   1.754   8.992  1.3091 -0.8211 -0.4259
24561SOL    HW278531   7.256   1.736   8.845  3.2080  0.0965 -0.1263
24562SOL     OW78532   9.386   1.937   9.027  0.7155  0.4258  0.4646
24562SOL    HW178533   9.407   2.002   8.960  0.8880  0.1182  0.2208
24562SOL    HW278534   9.290   1.940   9.033  0.8523  2.6748  2.4035
24563SOL     OW78535   9.159   3.629   7.152 -0.2265  0.1791  0.7732
24563SOL    HW178536   9.252   3.609   7.168  0.1078  0.2308 -0.9699
24563SOL    HW278537   9.152   3.723   7.165 -0.0137  0.1904  0.8193
24564SOL     OW78538   8.236   1.393   0.106  0.3889 -0.0651 -0.3994
24564SOL    HW178539   8.147   1.369   0.079  0.9731 -1.4664 -1.1341
24564SOL    HW278540   8.286   1.394   0.024  0.6736  2.4660 -0.2256
24565SOL     OW78541   6.625   2.788   8.304 -0.1529  0.7338 -0.2941
24565SOL    HW178542   6.544   2.837   8.293 -0.8934 -0.8463 -2.5150
24565SOL    HW278543   6.599   2.696   8.294  1.8815  0.1988 -1.1309
24566SOL     OW78544   8.891   3.083   7.114  0.2623  0.0698 -0.5428
24566SOL    HW178545   8.821   3.057   7.174 -0.7613 -0.1856 -1.8313
24566SOL    HW278546   8.871   3.174   7.092  0.4704  0.0687 -0.7284
24567SOL     OW78547   9.067   2.521   8.960 -0.7000 -0.1938  0.0029
24567SOL    HW178548   9.107   2.565   8.885 -0.0963  1.7536  1.4482
24567SOL    HW278549   8.978   2.557   8.964  0.3594  2.3177  2.2625
24568SOL     OW78550   7.036   1.173   9.917 -0.0385 -0.4348  0.3656
24568SOL    HW178551   7.098   1.165   9.844  2.8024 -1.0024  2.7397
24568SOL    HW278552   7.019   1.266   9.924  1.0672 -0.2015  0.0682
24569SOL     OW78553   8.596   2.040   8.221  0.5317  0.2543  0.2810
24569SOL    HW178554   8.620   2.076   8.307 -0.0149  1.0195  0.1227
24569SOL    HW278555   8.506   2.009   8.233  0.9992 -1.0742  0.4119
24570SOL     OW78556   8.186   1.513   8.614 -0.0664  0.0718  0.9431
24570SOL    HW178557   8.266   1.525   8.563 -0.1944  1.5795  1.0906
24570SOL    HW278558   8.212   1.532   8.704 -0.3260 -0.5567  1.1526
24571SOL     OW78559   9.157   4.752   8.309  0.5836 -0.3563 -0.4063
24571SOL    HW178560   9.135   4.675   8.256 -1.0884  0.2589 -0.6355
24571SOL    HW278561   9.249   4.739   8.333  0.6865 -1.7944 -1.5041
24572SOL     OW78562   0.153   3.044   9.854  0.1737  0.7914 -0.3068
24572SOL    HW178563   0.208   3.103   9.801  0.2809  1.4673  0.5372
24572SOL    HW278564   0.152   3.085   9.940  0.9331 -0.9079  0.5191
24573SOL     OW78565   7.759   1.968   8.590 -0.0158 -0.4178  0.0607
24573SOL    HW178566   7.774   1.969   8.495  1.5535 -1.2219  0.2789
24573SOL    HW278567   7.777   1.878   8.617  1.4784  0.2362  1.3806
24574SOL     OW78568   7.558   1.570   8.413  0.1825 -0.8301 -0.0855
24574SOL    HW178569   7.476   1.606   8.447 -0.0813 -0.6102 -0.9419
24574SOL    HW278570   7.549   1.475   8.427  0.2912 -0.7062  0.9014
24575SOL     OW78571   8.280   4.696   7.350 -0.4124  0.3729  0.2005
24575SOL    HW178572   8.241   4.696   7.438 -0.4334 -1.5570  0.2070
24575SOL    HW278573   8.289   4.603   7.328  1.9965  0.8123 -0.7706
24576SOL     OW78574   9.172   5.327   8.274 -0.1136  0.8062 -0.2054
24576SOL    HW178575   9.242   5.273   8.239 -1.9176 -2.0664  0.4405
24576SOL    HW278576   9.120   5.353   8.198  0.5328  1.2930 -0.4788
24577SOL     OW78577   7.410   2.441   8.094 -0.4254 -0.4863 -0.0753
24577SOL    HW178578   7.486   2.393   8.127 -0.8314 -0.8934  0.2715
24577SOL    HW278579   7.342   2.426   8.159 -1.2681 -1.3857 -1.1468
24578SOL     OW78580   6.798   1.877   8.152  0.1299  0.5119  0.5235
24578SOL    HW178581   6.816   1.839   8.237  0.1478  0.0733  0.3276
24578SOL    HW278582   6.881   1.870   8.104  0.1307  0.7887  0.4833
24579SOL     OW78583   7.484   4.612   7.465  0.1129 -0.5761  0.5194
24579SOL    HW178584   7.569   4.588   7.502  0.7980  0.4139 -0.4077
24579SOL    HW278585   7.497   4.699   7.427 -1.6083  0.0828  1.3612
24580SOL     OW78586   8.711   2.533   8.589 -0.0593  0.6964  0.6334
24580SOL    HW178587   8.638   2.573   8.543  1.3731  2.3187 -0.3019
24580SOL    HW278588   8.786   2.589   8.568  1.3190 -0.5442  2.0971
24581SOL     OW78589   7.213   2.487   9.295 -0.3419  0.5845  0.4356
24581SOL    HW178590   7.203   2.440   9.212 -0.7248  1.4836 -0.0371
24581SOL    HW278591   7.165   2.569   9.282  1.4340  1.7200  0.7506
24582SOL     OW78592   7.740   2.002   8.074  0.2468  1.0191  0.5676
24582SOL    HW178593   7.784   2.017   7.990 -2.0901  2.5316 -0.4201
24582SOL    HW278594   7.761   1.911   8.096 -0.2733  0.1490 -2.3583
24583SOL     OW78595   7.720   1.625   7.699 -0.1422 -0.1137  0.8917
24583SOL    HW178596   7.764   1.587   7.623 -0.1225 -0.1582  0.9255
24583SOL    HW278597   7.628   1.600   7.689 -0.1549 -0.0448  0.8352
24584SOL     OW78598   7.646   3.501   9.131  0.4446 -0.2289  0.4593
24584SOL    HW178599   7.593   3.505   9.051  2.0185  0.2054 -0.5904
24584SOL    HW278600   7.715   3.565   9.117  0.3205  0.3840  2.5113
24585SOL     OW78601   9.620   1.179   8.497  0.0557  0.4829  0.5206
24585SOL    HW178602   9.585   1.150   8.413 -0.0189  0.8877  0.4111
24585SOL    HW278603   9.676   1.253   8.475  1.2322 -0.3582  0.6599
24586SOL     OW78604   8.476   2.997   7.563  0.1435 -0.2743  0.1267
24586SOL    HW178605   8.496   2.906   7.542  0.1216  0.0509 -1.3751
24586SOL    HW278606   8.382   3.005   7.551  0.1708 -0.0082  0.0748
24587SOL     OW78607   9.624   2.014   8.002 -0.1184 -0.6753 -0.7092
24587SOL    HW178608   9.618   2.069   7.924 -2.4687 -2.0672 -1.5786
24587SOL    HW278609   9.718   2.001   8.016  0.3882  1.2988 -2.0550
24588SOL     OW78610   7.270   4.196   9.139  0.4328  0.0891  0.4824
24588SOL    HW178611   7.294   4.198   9.047 -0.2209 -0.3717  0.2939
24588SOL    HW278612   7.260   4.103   9.159  0.5651  0.1857  1.0184
24589SOL     OW78613   8.201   1.873   9.286 -0.4890 -0.1902  0.3610
24589SOL    HW178614   8.219   1.796   9.232  1.7034  0.4193  0.1677
24589SOL    HW278615   8.162   1.838   9.366  0.4238 -1.4976  0.2495
24590SOL     OW78616   8.536   5.586   0.027 -0.1664  0.0760  0.9161
24590SOL    HW178617   8.551   5.577  -0.067  0.4185  0.0509  1.0112
24590SOL    HW278618   8.605   5.645   0.057  0.4500 -0.9625  1.5618
24591SOL     OW78619   6.273   1.749   6.557  0.3348 -0.6131 -0.1703
24591SOL    HW178620   6.347   1.715   6.506  0.6414  1.9731 -1.5472
24591SOL    HW278621   6.303   1.835   6.588 -1.6408 -0.0819  0.3183
24592SOL     OW78622   8.153   1.809   8.560  0.1132 -0.2978  0.4689
24592SOL    HW178623   8.220   1.818   8.628  1.0819 -3.0688 -0.0368
24592SOL    HW278624   8.097   1.737   8.591  0.0070 -0.9590 -1.1957
24593SOL     OW78625   9.993   1.445   9.134  0.3075 -0.0852 -0.2849
24593SOL    HW178626  10.086   1.466   9.139  0.4572 -0.5290 -1.2209
24593SOL    HW278627   9.963   1.489   9.054 -0.0939 -0.6838 -0.4640
24594SOL     OW78628   9.881   3.157   5.869  0.1091  0.1103 -0.5341
24594SOL    HW178629   9.849   3.075   5.832 -0.6130 -0.0885  0.5308
24594SOL    HW278630   9.972   3.162   5.839  1.1477 -2.6357  1.9672
24595SOL     OW78631   9.855   2.559   0.660  0.0805  0.1007  0.5719
24595SOL    HW178632   9.777   2.505   0.655  0.2083 -0.0319 -0.0433
24595SOL    HW278633   9.896   2.534   0.743  0.7104 -1.5382 -0.2206
24596SOL     OW78634   0.278   3.732   9.507 -0.3144  0.4097  0.7735
24596SOL    HW178635   0.292   3.655   9.561  1.7532  0.2829  0.0732
24596SOL    HW278636   0.357   3.784   9.517 -1.0032  1.6512 -0.0655
24597SOL     OW78637   7.501   2.678   8.211  0.5268  0.6412  0.9044
24597SOL    HW178638   7.569   2.671   8.145 -1.3284  0.0810 -1.0057
24597SOL    HW278639   7.464   2.590   8.217 -0.8050  1.2033  1.0447
24598SOL     OW78640   9.541   1.890   9.254  0.0155 -0.5002 -0.2030
24598SOL    HW178641   9.492   1.921   9.178  2.5199  2.4883 -0.6730
24598SOL    HW278642   9.522   1.954   9.322  0.5031 -1.2715  0.6729
24599SOL     OW78643   9.736   2.794   7.281  0.6461 -0.2335 -0.0717
24599SOL    HW178644   9.799   2.780   7.210  1.5774 -0.2583  0.7570
24599SOL    HW278645   9.775   2.751   7.357 -0.4424 -0.3805  0.4096
24600SOL     OW78646   9.211   1.871   7.511 -0.2906 -0.5075 -0.0252
24600SOL    HW178647   9.137   1.825   7.471 -0.3695  0.2039 -0.7104
24600SOL    HW278648   9.241   1.812   7.581 -0.0279 -1.8602 -1.2490
24601SOL     OW78649   7.614   6.632   5.830 -0.1866 -0.1899 -0.1478
24601SOL    HW178650   7.664   6.582   5.766  0.5382 -0.4311  0.6013
24601SOL    HW278651   7.528   6.589   5.833 -0.2840 -0.0687 -1.0817
24602SOL     OW78652   8.708   2.833   8.028  0.0050 -0.2438  0.1694
24602SOL    HW178653   8.731   2.812   7.938  0.5460 -1.5467  0.6091
24602SOL    HW278654   8.697   2.748   8.071 -1.0524  0.3578  1.1327
24603SOL     OW78655   0.615   2.190   9.781 -0.5984  0.0489  0.3484
24603SOL    HW178656   0.599   2.283   9.767 -2.1505 -0.0001  1.5571
24603SOL    HW278657   0.527   2.151   9.783 -0.0404 -1.1791  1.4721
24604SOL     OW78658   6.594   4.091   8.820  0.2632  0.9906 -0.3111
24604SOL    HW178659   6.642   4.137   8.889  0.5209 -0.0601  0.2148
24604SOL    HW278660   6.616   3.999   8.832 -0.2916  0.7122 -1.3266
24605SOL     OW78661   9.605   0.187   9.191  0.2984 -0.5375 -0.0198
24605SOL    HW178662   9.664   0.165   9.119 -0.3939  0.4147 -0.8973
24605SOL    HW278663   9.628   0.125   9.261  2.3677 -0.1384 -0.3117
24606SOL     OW78664   9.522   2.097   7.338  0.1573  1.0133 -0.3483
24606SOL    HW178665   9.451   2.137   7.288 -0.5197 -1.7433 -1.6782
24606SOL    HW278666   9.601   2.143   7.309 -0.6894  1.9529 -1.2012
24607SOL     OW78667   8.967   3.318   7.789  0.2570 -0.6249 -0.0110
24607SOL    HW178668   9.008   3.361   7.714  1.1937 -1.2730  0.1212
24607SOL    HW278669   8.986   3.376   7.863 -2.5207  1.1290 -0.6141
24608SOL     OW78670   8.794   1.826   8.473  0.4485  0.0011  0.6494
24608SOL    HW178671   8.759   1.850   8.387  0.4290 -0.6330  0.4785
24608SOL    HW278672   8.719   1.832   8.532  0.0345 -1.3889  0.2807
24609SOL     OW78673   7.470   3.148   7.664 -0.9931 -0.6600 -0.3373
24609SOL    HW178674   7.509   3.163   7.578 -0.0374 -1.3107 -0.0251
24609SOL    HW278675   7.543   3.153   7.725 -1.9235  1.4265  0.6339
24610SOL     OW78676   0.615   3.402   6.878  0.8668  0.6367  0.1119
24610SOL    HW178677   0.595   3.380   6.969  0.3960  1.5894  0.2471
24610SOL    HW278678   0.595   3.323   6.829  3.8684 -0.8947  1.1823
24611SOL     OW78679   7.302   2.101   1.052  0.6778 -0.1839  0.1920
24611SOL    HW178680   7.346   2.089   1.137  1.1308  0.7304  0.0797
24611SOL    HW278681   7.338   2.032   0.997 -2.2884 -3.1786  1.7891
24612SOL     OW78682   9.495   2.048   8.488  0.0066 -0.1415 -0.1375
24612SOL    HW178683   9.405   2.079   8.481  0.4260  1.0942 -0.2570
24612SOL    HW278684   9.534   2.104   8.554  0.3162 -1.5868  0.9140
24613SOL     OW78685   9.107   2.437   7.679  0.2634 -0.1708 -0.4827
24613SOL    HW178686   9.062   2.389   7.609 -0.3505  1.1933 -1.0327
24613SOL    HW278687   9.195   2.451   7.646 -0.2282  1.0919 -1.3021
24614SOL     OW78688   8.998   1.704   8.318 -0.2273 -0.4687 -0.2288
24614SOL    HW178689   9.080   1.752   8.307 -1.0444  0.5658 -2.0129
24614SOL    HW278690   8.958   1.744   8.396 -0.4644  1.1659 -1.1580
24615SOL     OW78691   9.702   3.789   8.585 -0.0481 -0.2499 -0.5046
24615SOL    HW178692   9.775   3.750   8.634  0.5256  2.3823  0.8612
24615SOL    HW278693   9.624   3.763   8.634  0.4844  1.9634  1.6719
24616SOL     OW78694   8.576   3.779   8.601 -0.1955  0.0951 -0.2281
24616SOL    HW178695   8.666   3.747   8.595  0.3918  1.0926  2.4919
24616SOL    HW278696   8.580   3.868   8.565 -0.2723 -0.1926 -0.9411
24617SOL     OW78697   8.777   1.348   9.418 -0.0186 -0.6450 -0.0046
24617SOL    HW178698   8.740   1.436   9.426 -0.5496 -0.7388 -1.3039
24617SOL    HW278699   8.818   1.331   9.503 -1.3974  0.1713  0.8388
24618SOL     OW78700   7.139   3.240   8.257  0.1265  0.3033 -0.3093
24618SOL    HW178701   7.104   3.328   8.264 -0.9121 -0.1665  0.5995
24618SOL    HW278702   7.139   3.222   8.163 -2.0387  0.3526 -0.3532
24619SOL     OW78703   7.126   4.009   5.162  0.1087 -0.1189 -0.4714
24619SOL    HW178704   7.195   4.073   5.179  0.0538 -0.3838  0.8284
24619SOL    HW278705   7.109   4.016   5.069  1.2682  0.5861 -0.6415
24620SOL     OW78706   0.039   3.142   8.286  0.3980 -0.5084 -0.0599
24620SOL    HW178707   0.110   3.089   8.322 -0.8923 -2.2091  0.0879
24620SOL    HW278708  -0.008   3.174   8.364 -0.2039 -1.1039 -0.1747
24621SOL     OW78709   7.203   2.712   7.713 -0.1612 -0.7692  0.6048
24621SOL    HW178710   7.193   2.690   7.620 -0.5788 -0.7244  0.6397
24621SOL    HW278711   7.245   2.798   7.712  0.0646 -0.8814  0.4592
24622SOL     OW78712   9.411   3.236   9.514 -0.6471  0.0734 -0.3966
24622SOL    HW178713   9.329   3.277   9.542 -1.2400 -1.7617  0.7014
24622SOL    HW278714   9.441   3.189   9.592  0.6774 -0.4603 -1.2199
24623SOL     OW78715   7.504   2.153   9.839  0.0619  0.7076 -0.6597
24623SOL    HW178716   7.575   2.126   9.780  0.4278 -0.7292  0.4121
24623SOL    HW278717   7.543   2.218   9.896  1.2066 -1.7672  1.4560
24624SOL     OW78718   8.755   3.342   8.297  0.2372  0.4664  0.5072
24624SOL    HW178719   8.693   3.283   8.340  0.1284  0.5253  0.4308
24624SOL    HW278720   8.760   3.309   8.207  0.4254  0.3749  0.5536
24625SOL     OW78721   8.572   3.698   9.505 -0.3306 -0.0663  0.1641
24625SOL    HW178722   8.509   3.685   9.576  0.4546  1.7791  1.2464
24625SOL    HW278723   8.559   3.790   9.479  0.7232 -0.1751 -0.7731
24626SOL     OW78724   7.500   2.517   9.302 -0.6553 -0.0093  0.0340
24626SOL    HW178725   7.421   2.483   9.344 -1.9806  2.4584 -0.3773
24626SOL    HW278726   7.571   2.496   9.363 -1.3763 -3.4136 -0.1984
24627SOL     OW78727   8.267   5.286   8.778 -0.8645 -0.5637  0.7341
24627SOL    HW178728   8.312   5.222   8.724  1.2516 -0.1220  1.9338
24627SOL    HW278729   8.295   5.371   8.745 -2.3136 -0.2458  0.2734
24628SOL     OW78730   8.994   2.334   8.297 -0.7126 -0.1569 -0.8132
24628SOL    HW178731   8.964   2.272   8.230 -2.1787 -0.8525  0.4366
24628SOL    HW278732   8.993   2.419   8.253 -0.6970 -0.7361 -1.9593
24629SOL     OW78733   8.859   2.000   7.720 -0.1071 -0.1630  0.0909
24629SOL    HW178734   8.804   2.033   7.649 -0.8384  0.5111  0.9572
24629SOL    HW278735   8.896   1.919   7.686 -0.6707  0.0140 -0.9592
24630SOL     OW78736   7.309   0.173   7.014  0.0329 -0.2440 -0.2132
24630SOL    HW178737   7.318   0.078   7.025 -1.8705 -0.5447 -0.9775
24630SOL    HW278738   7.392   0.201   6.976  0.3755 -1.6955 -0.5609
24631SOL     OW78739   0.699   2.450   8.899 -0.1500  0.0630  0.5145
24631SOL    HW178740   0.739   2.372   8.938 -1.5885 -0.1172  1.6744
24631SOL    HW278741   0.734   2.523   8.952  2.1426  0.3549 -1.3338
24632SOL     OW78742   0.059   1.905   8.590 -0.0741  0.1582  0.2840
24632SOL    HW178743   0.072   1.969   8.659 -1.8606  0.4186  0.4049
24632SOL    HW278744   0.146   1.871   8.572  0.6551  1.3929  1.3990
24633SOL     OW78745   7.812   2.002   8.334 -0.3419  0.0063  0.4327
24633SOL    HW178746   7.896   1.962   8.311  0.3317  1.5357  0.2372
24633SOL    HW278747   7.781   2.041   8.253 -1.5861 -1.1515  0.3400
24634SOL     OW78748   9.113   3.832   7.868 -0.1703 -0.3540 -0.5204
24634SOL    HW178749   9.058   3.904   7.837 -0.1375  0.5144  1.3361
24634SOL    HW278750   9.193   3.875   7.898  0.5021 -1.3508 -0.8613
24635SOL     OW78751   8.008   2.256   9.399 -0.0110  0.1904  0.3364
24635SOL    HW178752   7.988   2.344   9.366  1.2148  0.2731 -0.1992
24635SOL    HW278753   8.045   2.271   9.486 -0.6254  0.1413  0.6104
24636SOL     OW78754   8.112   1.944   0.167 -0.5911 -0.1941 -0.0791
24636SOL    HW178755   8.156   1.997   0.101  0.3705  0.1729  0.8647
24636SOL    HW278756   8.164   1.863   0.172 -1.1997 -0.6175 -0.4365
24637SOL     OW78757   0.108   2.516   9.093 -0.0261  0.2239  0.4374
24637SOL    HW178758   0.108   2.474   9.007 -0.9054  1.6014 -0.2513
24637SOL    HW278759   0.042   2.468   9.144  1.5430 -1.5499  0.8400
24638SOL     OW78760   7.851   3.671   9.049 -0.1258  0.4665  0.3801
24638SOL    HW178761   7.892   3.642   9.130  0.2036 -0.8631 -0.2454
24638SOL    HW278762   7.890   3.757   9.031  0.8270  0.1359  0.8804
24639SOL     OW78763   9.930   4.410   0.118 -0.3498  0.0007  0.5166
24639SOL    HW178764   9.939   4.505   0.109  0.0709 -0.2183 -1.7962
24639SOL    HW278765   9.989   4.387   0.189  1.4019  1.1967 -0.5044
24640SOL     OW78766   9.419   2.992   8.749 -0.3116 -0.3135 -0.1174
24640SOL    HW178767   9.436   2.995   8.844 -0.3872 -0.2233 -0.1067
24640SOL    HW278768   9.498   3.027   8.709 -0.7237  0.7236 -0.0403
24641SOL     OW78769   8.564   1.702   7.896  0.2026  0.2917 -0.5238
24641SOL    HW178770   8.494   1.695   7.961  0.9817 -0.3451  0.2882
24641SOL    HW278771   8.574   1.795   7.880 -0.2147  0.4372  0.0526
24642SOL     OW78772   9.304   2.094   8.816 -0.0080  0.2857  0.2430
24642SOL    HW178773   9.260   2.070   8.735  0.4364  1.1658 -0.2664
24642SOL    HW278774   9.374   2.153   8.789 -0.3214  1.1909  1.3450
24643SOL     OW78775   8.690   1.505   0.257  0.1343 -0.2559 -0.0209
24643SOL    HW178776   8.701   1.501   0.352 -2.0512  2.7016  0.4218
24643SOL    HW278777   8.601   1.473   0.243  0.7668 -1.5324 -1.1764
24644SOL     OW78778   9.110   2.026   9.044 -0.5053  0.2869  0.4309
24644SOL    HW178779   9.055   1.955   9.011 -1.0617  1.8231 -2.0372
24644SOL    HW278780   9.145   2.068   8.966  2.7896  0.4786  1.9182
24645SOL     OW78781   8.899   1.632   8.061 -0.0264 -0.0734 -0.9512
24645SOL    HW178782   8.851   1.713   8.045 -1.4925 -0.6834  0.2547
24645SOL    HW278783   8.941   1.646   8.146 -1.3679 -1.0557 -0.1024
24646SOL     OW78784   8.358   3.317   8.778 -0.4735  0.4475 -0.1307
24646SOL    HW178785   8.269   3.340   8.805 -0.6150  0.6587 -0.7740
24646SOL    HW278786   8.407   3.399   8.782 -0.4232  0.4238 -0.2428
24647SOL     OW78787   9.006   9.674   9.783 -0.2425  0.0294 -0.7027
24647SOL    HW178788   8.976   9.744   9.725  0.2910 -0.2708 -1.3472
24647SOL    HW278789   8.969   9.696   9.868 -2.3062 -0.3176 -1.4826
24648SOL     OW78790   7.457   0.738   0.112 -0.2723 -0.9012  0.7047
24648SOL    HW178791   7.439   0.686   0.190  1.6232 -0.9857  1.1177
24648SOL    HW278792   7.484   0.824   0.146  0.5264 -0.9276  0.1527
24649SOL     OW78793   8.906   1.153   6.963 -0.4277 -0.2795 -0.0629
24649SOL    HW178794   8.849   1.075   6.959  0.0765 -0.7010  0.8176
24649SOL    HW278795   8.968   1.133   7.033  0.5566  0.3593 -0.7476
24650SOL     OW78796   6.052   2.133   8.035  0.3642 -0.7797 -0.3547
24650SOL    HW178797   6.078   2.123   8.126  0.6849 -0.7283 -0.4399
24650SOL    HW278798   5.958   2.151   8.039  0.6055  0.4635  0.0372
24651SOL     OW78799   7.780   3.447   7.037 -0.5755 -0.2429 -0.2801
24651SOL    HW178800   7.783   3.483   6.949 -0.7311  1.2333  0.2984
24651SOL    HW278801   7.716   3.502   7.083 -0.8804 -1.3197  0.6035
24652SOL     OW78802   6.708   3.211   9.619 -0.2007 -0.2317  0.2859
24652SOL    HW178803   6.740   3.174   9.701 -0.0147  1.4659  0.9960
24652SOL    HW278804   6.639   3.151   9.590 -0.3656 -0.7611  1.7475
24653SOL     OW78805   9.179   2.966   9.722 -0.1217 -0.5940  0.0263
24653SOL    HW178806   9.210   2.884   9.762 -0.2920 -0.3478  0.6727
24653SOL    HW278807   9.084   2.956   9.720 -0.0136 -1.4054 -2.0780
24654SOL     OW78808   7.719   2.648   9.413  0.2831 -0.1792 -0.4675
24654SOL    HW178809   7.673   2.718   9.460 -0.5226 -0.7418 -0.4030
24654SOL    HW278810   7.707   2.570   9.468 -0.4773 -0.7949 -1.4749
24655SOL     OW78811   7.707   3.061   9.862  0.0396 -0.3032 -0.4378
24655SOL    HW178812   7.684   3.103   9.945  0.1077  0.4598 -0.8006
24655SOL    HW278813   7.623   3.038   9.823 -0.2355  3.5415 -2.3102
24656SOL     OW78814   8.761   2.799   8.468 -0.2812  0.4744  0.1576
24656SOL    HW178815   8.856   2.809   8.461 -0.3994  1.8015  0.3683
24656SOL    HW278816   8.740   2.837   8.554 -0.8498 -0.9515  0.6621
24657SOL     OW78817   7.925   3.137   9.269  0.8300  0.1043 -0.0580
24657SOL    HW178818   7.843   3.154   9.222 -0.1467 -0.4480  1.4393
24657SOL    HW278819   7.922   3.044   9.290  1.3299  0.3248  0.9950
24658SOL     OW78820   9.533   4.760   1.691  0.5704 -0.1729 -0.2892
24658SOL    HW178821   9.532   4.757   1.787 -0.2964 -0.0350 -0.2944
24658SOL    HW278822   9.463   4.701   1.664 -1.2335  2.1265 -0.7858
24659SOL     OW78823   6.688   3.518   9.604  0.1017 -0.6022 -0.4980
24659SOL    HW178824   6.677   3.426   9.628 -2.8964  0.3583  2.1188
24659SOL    HW278825   6.767   3.546   9.650  0.8852 -1.7783 -1.1075
24660SOL     OW78826   0.030   3.178   9.072  0.2871 -0.4717  0.0690
24660SOL    HW178827   0.113   3.187   9.118 -0.6079  0.3196  1.6044
24660SOL    HW278828  -0.032   3.150   9.140 -1.0578  0.6337 -0.6623
24661SOL     OW78829   7.416   3.710   0.834  0.2945 -0.1991 -0.0231
24661SOL    HW178830   7.417   3.620   0.801  1.9414  0.4257 -1.7479
24661SOL    HW278831   7.385   3.701   0.925 -1.0478 -2.3111 -0.6415
24662SOL     OW78832   8.687   3.238   0.696 -0.2257 -0.4744  0.5261
24662SOL    HW178833   8.681   3.147   0.666  0.0737 -0.9496  1.8811
24662SOL    HW278834   8.608   3.251   0.749  0.8284 -0.6560  2.1813
24663SOL     OW78835   9.942   1.682   8.863 -0.2192 -0.2815  0.4744
24663SOL    HW178836   9.874   1.741   8.896  1.1910  1.1909  0.8440
24663SOL    HW278837   9.927   1.679   8.769 -2.2234 -1.8548  0.8102
24664SOL     OW78838   9.817   2.796   0.299  0.4541 -0.1061 -0.2161
24664SOL    HW178839   9.888   2.860   0.305  1.7410 -1.5657  0.6637
24664SOL    HW278840   9.784   2.805   0.210  0.6751  1.6808 -0.1447
24665SOL     OW78841   7.766   1.861   0.557 -1.0313  0.3562 -0.4743
24665SOL    HW178842   7.688   1.807   0.567  0.0088 -1.1110 -0.1294
24665SOL    HW278843   7.795   1.847   0.467 -1.0571  0.7722 -0.5520
24666SOL     OW78844   8.605   0.377   9.635  0.3757  0.0341  0.3760
24666SOL    HW178845   8.670   0.328   9.684  0.3055 -0.5040 -0.0620
24666SOL    HW278846   8.522   0.333   9.654  0.2892  0.0821  0.1173
24667SOL     OW78847   6.893   2.288   0.170 -0.0794  0.2060  0.5719
24667SOL    HW178848   6.820   2.289   0.232 -1.7185  0.7537 -1.3402
24667SOL    HW278849   6.948   2.361   0.197 -1.8750  1.7677  0.1129
24668SOL     OW78850   8.910   1.064   9.731  0.1150 -0.3086 -0.6050
24668SOL    HW178851   8.988   1.045   9.679 -0.4149  0.0026 -1.5151
24668SOL    HW278852   8.875   0.978   9.755  0.3738 -0.4512 -0.7438
24669SOL     OW78853   9.130   3.114   9.988 -0.0183 -0.9317  0.3694
24669SOL    HW178854   9.075   3.077  10.057 -2.2571 -1.1252 -1.4568
24669SOL    HW278855   9.101   3.204   9.980 -0.1880 -1.0757 -0.7094
24670SOL     OW78856   6.298   3.201   8.857  0.0725  0.2321  0.4617
24670SOL    HW178857   6.244   3.218   8.935  0.2023 -1.6180  0.9782
24670SOL    HW278858   6.260   3.122   8.818  0.9416  0.2735 -0.4968
24671SOL     OW78859   9.274   4.104   8.914  0.3583 -0.6938 -0.3459
24671SOL    HW178860   9.352   4.155   8.895 -0.4851  0.9647  0.4863
24671SOL    HW278861   9.201   4.159   8.884 -0.5786 -1.2418  0.8425
24672SOL     OW78862   9.389   2.883   9.895 -0.2575  0.0782 -0.1168
24672SOL    HW178863   9.466   2.863   9.842  1.7289  0.8776  2.3667
24672SOL    HW278864   9.383   2.811   9.958 -2.1496 -0.4727 -0.8617
24673SOL     OW78865   8.812   3.435   9.212 -0.0157  0.1067 -0.3930
24673SOL    HW178866   8.722   3.450   9.241  0.8149  1.9183  1.3970
24673SOL    HW278867   8.866   3.488   9.272  2.2819 -1.4073 -1.0406
24674SOL     OW78868   9.431   0.453   0.795 -0.1342 -0.2564  0.2430
24674SOL    HW178869   9.511   0.400   0.796 -0.7153 -1.1788 -0.6498
24674SOL    HW278870   9.461   0.543   0.810  1.6123  0.0554 -4.2339
24675SOL     OW78871   8.537   0.656   8.191  0.2937 -0.5677 -0.6260
24675SOL    HW178872   8.511   0.736   8.145  3.5939  2.2094  2.0228
24675SOL    HW278873   8.504   0.669   8.281  2.4174 -1.3107  0.2798
24676SOL     OW78874   8.378   2.445   9.842  0.0209  0.0086  0.1573
24676SOL    HW178875   8.287   2.473   9.839 -0.0061 -0.1541 -0.5877
24676SOL    HW278876   8.427   2.520   9.807  0.1331 -0.0774  0.1291
24677SOL     OW78877   9.181   3.473   8.226 -0.0437 -0.2006 -0.4017
24677SOL    HW178878   9.233   3.486   8.147 -0.6482 -0.1504 -0.7899
24677SOL    HW278879   9.187   3.379   8.243  2.4159  0.1647  1.1025
24678SOL     OW78880   9.033   0.145   0.252  0.1490  0.0571 -0.2111
24678SOL    HW178881   9.102   0.201   0.218  1.1863 -0.9616  0.1586
24678SOL    HW278882   9.034   0.160   0.347 -1.0962  1.0902 -0.3541
24679SOL     OW78883   8.441   1.761   0.043 -0.4629 -0.4078 -0.0887
24679SOL    HW178884   8.532   1.788   0.054 -0.3672 -0.4369 -0.7674
24679SOL    HW278885   8.441   1.668   0.065  0.1069 -0.9353 -2.1261
24680SOL     OW78886   8.675   1.586   9.348  0.4876  0.4072  0.0130
24680SOL    HW178887   8.602   1.640   9.320  0.3967  0.2010 -0.1494
24680SOL    HW278888   8.719   1.559   9.267  0.5322  0.2403  0.0907
24681SOL     OW78889   7.458   2.726   9.913  0.5414  0.9531 -0.1575
24681SOL    HW178890   7.429   2.787   9.981  1.0985  0.7409  0.2654
24681SOL    HW278891   7.516   2.666   9.958 -1.1643 -0.8138 -0.2513
24682SOL     OW78892   0.188   2.187   7.845  0.3756 -0.2909 -0.1443
24682SOL    HW178893   0.157   2.146   7.764 -0.6008  0.2151 -0.0373
24682SOL    HW278894   0.110   2.228   7.883  0.8228 -0.4929  1.0373
24683SOL     OW78895   7.184   2.927   9.093 -0.5253 -0.2261  0.6638
24683SOL    HW178896   7.194   2.919   8.998 -1.2197  2.4896  0.2979
24683SOL    HW278897   7.269   2.959   9.123 -1.2457  1.9370  0.4952
24684SOL     OW78898   7.863   2.514   1.399 -0.3028 -0.5307 -0.7486
24684SOL    HW178899   7.936   2.571   1.423  0.0240 -1.5244  0.6644
24684SOL    HW278900   7.789   2.548   1.449  0.1825 -2.0785  1.1027
24685SOL     OW78901   8.008   2.051   9.221  1.0037 -0.0350 -0.5432
24685SOL    HW178902   8.005   2.130   9.275  0.7324 -0.3685 -0.0556
24685SOL    HW278903   8.076   1.997   9.262  0.9461 -0.1952 -0.6581
24686SOL     OW78904   7.051   3.987   9.300  0.1410 -0.0785  0.4638
24686SOL    HW178905   7.137   4.007   9.338  0.3574 -0.3206  0.1018
24686SOL    HW278906   7.028   3.902   9.336 -0.1187  0.1562  0.8575
24687SOL     OW78907   8.387   2.682   9.079 -0.2535 -0.4352 -0.5806
24687SOL    HW178908   8.368   2.723   9.164 -1.1116  0.0114 -0.9819
24687SOL    HW278909   8.435   2.749   9.031 -1.9292  0.2268 -1.3519
24688SOL     OW78910   9.244   2.575   0.537 -0.4168 -0.0846  0.0043
24688SOL    HW178911   9.262   2.548   0.446 -3.0037 -0.1958 -0.4975
24688SOL    HW278912   9.230   2.493   0.584  0.3789  0.0012  0.4023
24689SOL     OW78913   1.195   1.758   9.051 -0.1968  0.5478 -0.3125
24689SOL    HW178914   1.272   1.719   9.009  1.3869  1.8552  1.3148
24689SOL    HW278915   1.162   1.688   9.107  0.2925  0.2311 -0.4099
24690SOL     OW78916   8.821   3.681   8.508 -0.6437 -0.3786 -0.2028
24690SOL    HW178917   8.871   3.618   8.456 -1.9979 -0.8713 -0.9294
24690SOL    HW278918   8.838   3.657   8.599  1.1731  0.0369 -0.4293
24691SOL     OW78919   8.769   2.600   9.035 -0.1855  0.2981 -0.1439
24691SOL    HW178920   8.792   2.512   9.064 -1.3504 -0.1387 -0.5162
24691SOL    HW278921   8.731   2.642   9.113  0.4523  0.5139  0.0585
24692SOL     OW78922   9.004   2.156   0.298  0.3036  0.6363  0.1184
24692SOL    HW178923   9.018   2.095   0.226 -1.1408  0.3072  0.1122
24692SOL    HW278924   9.089   2.199   0.309  0.0719  2.0317 -2.9986
24693SOL     OW78925   7.972   1.380   8.136 -0.3211  0.0028  0.2652
24693SOL    HW178926   7.964   1.287   8.156  0.2299 -0.0078  0.4513
24693SOL    HW278927   7.939   1.425   8.214 -0.5673 -0.0392  0.1857
24694SOL     OW78928   8.875   4.146   0.424 -0.1384  0.2334 -0.5651
24694SOL    HW178929   8.837   4.234   0.424 -0.9913 -0.1151  1.1710
24694SOL    HW278930   8.804   4.090   0.394  0.2060  0.0578 -1.0490
24695SOL     OW78931   8.171   3.292   7.873 -0.3822  0.4089 -0.3653
24695SOL    HW178932   8.217   3.230   7.930  0.8518  2.7277  1.2790
24695SOL    HW278933   8.202   3.271   7.785 -1.3837 -2.4603 -0.0866
24696SOL     OW78934   0.169   2.565   0.655 -0.8669 -0.1895  0.4423
24696SOL    HW178935   0.164   2.601   0.744 -1.0544 -0.1133  0.4010
24696SOL    HW278936   0.169   2.470   0.667  1.5735 -0.2017  0.6679
24697SOL     OW78937   8.763   2.000   9.339 -0.8338  0.3243 -0.1283
24697SOL    HW178938   8.742   2.024   9.249  0.7599 -1.0137 -0.8763
24697SOL    HW278939   8.825   1.927   9.331 -0.5239  0.3134  2.0435
24698SOL     OW78940   7.348   3.215   8.418 -0.0662  0.2594  0.1896
24698SOL    HW178941   7.279   3.215   8.352 -0.6231  3.5024  0.6777
24698SOL    HW278942   7.373   3.307   8.427  0.7211 -0.2063  3.6939
24699SOL     OW78943   7.708   3.301   7.796  0.0735  0.8858 -0.1554
24699SOL    HW178944   7.758   3.381   7.813 -0.5673  1.3768 -0.5722
24699SOL    HW278945   7.751   3.235   7.850 -1.2232  2.1604  2.5621
24700SOL     OW78946   0.760   4.527   8.329 -0.3259 -0.1582  0.1183
24700SOL    HW178947   0.751   4.534   8.424 -2.1826  1.0342 -0.1156
24700SOL    HW278948   0.714   4.603   8.295 -1.4295 -1.6308 -1.8075
24701SOL     OW78949   8.025   3.584   9.261 -0.2792 -0.1953  0.1660
24701SOL    HW178950   8.109   3.628   9.273 -0.6698 -0.4667  4.6160
24701SOL    HW278951   8.047   3.491   9.254 -0.0880 -0.0760 -1.0204
24702SOL     OW78952   7.946   2.516   9.251  0.0940  0.0213 -0.5234
24702SOL    HW178953   7.894   2.552   9.323 -0.2555 -0.1183 -0.7088
24702SOL    HW278954   7.895   2.534   9.172  1.1416  1.4355 -0.8926
24703SOL     OW78955   9.325   0.265   9.449  0.6692  0.3446 -0.3458
24703SOL    HW178956   9.391   0.328   9.420  0.1109  0.2046 -1.9688
24703SOL    HW278957   9.376   0.196   9.492  1.3590  1.4630  0.6496
24704SOL     OW78958   7.811   1.719   9.635  1.1433  0.0876  0.4407
24704SOL    HW178959   7.759   1.663   9.577  1.5088 -0.5560  0.7314
24704SOL    HW278960   7.818   1.669   9.717  1.5677  0.5066  0.6597
24705SOL     OW78961   8.266   1.386   9.478  0.0876 -0.0193 -0.4980
24705SOL    HW178962   8.174   1.385   9.505 -0.1644  0.5268 -1.3207
24705SOL    HW278963   8.302   1.464   9.521  0.2151 -0.3421 -0.0178
24706SOL     OW78964   9.252   2.357   9.984  1.3446  0.3009  0.0051
24706SOL    HW178965   9.287   2.282  10.034 -0.1132  0.4320  1.2753
24706SOL    HW278966   9.157   2.341   9.982  1.2087  1.2424 -1.2026
24707SOL     OW78967   0.255   1.815   9.193  0.2128  0.1948  0.0810
24707SOL    HW178968   0.279   1.784   9.106 -1.0016  1.5398 -0.7477
24707SOL    HW278969   0.315   1.887   9.210 -1.2720  1.6636 -0.7763
24708SOL     OW78970   7.367   3.962   0.276 -0.2711  0.4086 -0.3351
24708SOL    HW178971   7.307   3.888   0.275  0.6872 -0.3919  0.7886
24708SOL    HW278972   7.367   3.995   0.186 -0.1594 -1.4037 -1.0045
24709SOL     OW78973   7.701   2.728   9.742  0.4056  0.2540 -0.1208
24709SOL    HW178974   7.646   2.741   9.820 -0.4746  0.3626 -0.7466
24709SOL    HW278975   7.771   2.670   9.772  1.2989  2.0169  1.3070
24710SOL     OW78976   8.350   3.183   9.919  0.2769 -0.1487  0.0510
24710SOL    HW178977   8.334   3.237   9.842  0.9847  0.1317  0.1006
24710SOL    HW278978   8.403   3.238   9.977  1.0300 -0.9088  0.0930
24711SOL     OW78979   9.189   2.708   8.392  0.7335 -0.4039 -0.3947
24711SOL    HW178980   9.218   2.792   8.356  2.3296 -0.4207  0.7704
24711SOL    HW278981   9.131   2.672   8.325 -0.6548  1.9942 -0.5413
24712SOL     OW78982   8.006   2.723   8.538 -0.2617  0.1411 -0.4067
24712SOL    HW178983   8.013   2.732   8.443 -0.9698 -1.8414 -0.6663
24712SOL    HW278984   7.954   2.644   8.550  0.0412  0.2502  1.6482
24713SOL     OW78985   7.348   3.208   9.692  0.5732 -0.6275 -0.0217
24713SOL    HW178986   7.405   3.131   9.692  0.8201 -0.4739 -1.6365
24713SOL    HW278987   7.259   3.171   9.685  0.7697 -0.7589 -2.2131
24714SOL     OW78988   8.993   2.443   9.635 -0.1595 -0.0331  0.6124
24714SOL    HW178989   8.934   2.441   9.710 -0.4679  2.0282  0.4493
24714SOL    HW278990   8.985   2.356   9.596  0.3263 -1.2653  3.1840
24715SOL     OW78991   6.604   4.727   0.147  0.1868 -0.3724 -0.1383
24715SOL    HW178992   6.684   4.738   0.198  0.4414  1.4073 -0.8698
24715SOL    HW278993   6.582   4.816   0.118 -2.2245 -0.7734  0.3263
24716SOL     OW78994   7.475   4.064   2.313 -0.1473  0.1230  0.4145
24716SOL    HW178995   7.483   4.058   2.408 -0.4359 -0.3447  0.4132
24716SOL    HW278996   7.429   3.984   2.288  2.3117 -1.0797 -0.4048
24717SOL     OW78997   6.285   6.056   1.205 -0.0791  0.2136 -0.1208
24717SOL    HW178998   6.257   6.009   1.284  2.1845 -0.3437  0.3796
24717SOL    HW278999   6.341   6.126   1.238 -0.1647  0.7689 -1.1521
24718SOL     OW79000   9.312   4.714   0.538 -0.1176 -0.0156  0.1052
24718SOL    HW179001   9.309   4.743   0.630  2.0091 -3.8882  1.5230
24718SOL    HW279002   9.400   4.739   0.508 -0.3507  0.0953 -0.4827
24719SOL     OW79003   8.891   3.931   0.640  0.2741  0.2187 -0.6417
24719SOL    HW179004   8.842   3.908   0.561 -1.0846  1.0853 -0.0469
24719SOL    HW279005   8.838   3.898   0.712  1.8022 -1.0987 -0.0957
24720SOL     OW79006   0.441   4.621   0.120  0.3479  0.1514  0.4566
24720SOL    HW179007   0.530   4.657   0.110 -0.1600  1.5781  0.9259
24720SOL    HW279008   0.453   4.544   0.176  1.3873 -0.1170 -0.1104
24721SOL     OW79009   7.687   5.752   1.443  0.7207 -0.3565  0.2089
24721SOL    HW179010   7.639   5.803   1.379 -2.4607 -0.2404  2.5334
24721SOL    HW279011   7.664   5.661   1.423  1.6407 -0.4936 -0.2611
24722SOL     OW79012   7.985   4.094   1.355 -0.3943 -0.4355 -0.5025
24722SOL    HW179013   7.972   4.000   1.346  1.5991 -0.7691 -0.2046
24722SOL    HW279014   8.054   4.116   1.292 -0.0105  0.6090  0.2509
24723SOL     OW79015   9.697   6.118   7.913  0.1227  0.3022  0.2275
24723SOL    HW179016   9.745   6.079   7.986  1.5247  0.8577 -0.3711
24723SOL    HW279017   9.663   6.200   7.947 -2.2693 -1.0796  1.2956
24724SOL     OW79018   8.119   5.068   2.691 -0.2474 -0.6662 -0.6159
24724SOL    HW179019   8.182   5.005   2.725  0.5016  0.2726 -0.2625
24724SOL    HW279020   8.092   5.119   2.767 -1.1979 -0.8434 -0.8163
24725SOL     OW79021   7.207   4.280   2.142  0.0643  0.0428 -0.2138
24725SOL    HW179022   7.293   4.319   2.130  0.6690 -1.4392 -0.8228
24725SOL    HW279023   7.221   4.208   2.204 -0.8725  0.2918  0.2984
24726SOL     OW79024   8.490   5.263   1.799  0.4079  0.2682  0.0916
24726SOL    HW179025   8.400   5.271   1.831 -0.3082  3.2111 -2.4398
24726SOL    HW279026   8.514   5.172   1.817 -3.5168 -0.9174 -0.3145
24727SOL     OW79027   8.140   4.148   1.610  0.0634  0.5359 -0.2386
24727SOL    HW179028   8.213   4.184   1.659 -0.7777 -0.7123  2.0046
24727SOL    HW279029   8.082   4.110   1.676  0.3039 -3.8240 -2.3006
24728SOL     OW79030   9.097   3.729   0.569  0.1314  0.5883  0.3271
24728SOL    HW179031   9.036   3.777   0.513  0.7117  0.1974 -0.6571
24728SOL    HW279032   9.156   3.685   0.508  0.0645 -0.7944  1.2335
24729SOL     OW79033   0.026   2.136   9.044 -0.5262 -0.9711  0.0122
24729SOL    HW179034   0.079   2.177   9.112 -0.4761 -1.2944  0.1687
24729SOL    HW279035  -0.060   2.176   9.054  0.2897  1.3353 -1.7929
24730SOL     OW79036   9.252   4.913   2.990  0.7366  0.5260 -0.0832
24730SOL    HW179037   9.306   4.840   3.021  1.2364  1.0576  0.2982
24730SOL    HW279038   9.220   4.885   2.905  1.2038  0.0010 -0.0865
24731SOL     OW79039   8.686   4.731   0.226  0.1908  0.2696  0.3480
24731SOL    HW179040   8.762   4.673   0.219  0.2165  0.2662  0.6865
24731SOL    HW279041   8.653   4.718   0.314 -0.3671  0.0729  0.1158
24732SOL     OW79042   8.976   6.629   9.865  0.0584  0.3668 -0.2167
24732SOL    HW179043   8.928   6.546   9.871 -0.9335  0.8696 -1.0665
24732SOL    HW279044   9.053   6.615   9.919 -0.6476 -0.7349  0.5481
24733SOL     OW79045   8.348   5.009   0.845  0.4715  0.1413  0.0691
24733SOL    HW179046   8.375   5.061   0.921  0.8653  0.4979 -0.3138
24733SOL    HW279047   8.417   4.944   0.834  0.2569 -0.1097  0.2105
24734SOL     OW79048   9.150   3.401   9.449 -0.6809  0.6392 -0.1924
24734SOL    HW179049   9.207   3.465   9.492 -0.3492  0.8990 -1.0079
24734SOL    HW279050   9.080   3.385   9.512  1.5148 -1.4650  1.8246
24735SOL     OW79051   8.504   4.087   1.628 -0.1901  0.3507 -0.0878
24735SOL    HW179052   8.525   4.061   1.538  0.1717 -0.5870  0.2652
24735SOL    HW279053   8.491   4.182   1.622 -0.0579  0.3203 -1.1074
24736SOL     OW79054   8.385   5.054   1.996 -0.0105  0.1993  0.5709
24736SOL    HW179055   8.413   5.142   2.019  0.1582  0.6177 -1.1757
24736SOL    HW279056   8.302   5.042   2.043  0.1328  1.1429  1.0841
24737SOL     OW79057   9.158   4.442   1.221 -0.1946 -0.0443  0.0160
24737SOL    HW179058   9.144   4.487   1.304  0.1851 -0.9994  0.6066
24737SOL    HW279059   9.115   4.357   1.232  2.1004 -1.2169  0.2025
24738SOL     OW79060   8.262   3.962   0.616 -0.6067  0.2887  0.1344
24738SOL    HW179061   8.294   4.032   0.673  1.8262 -1.4447  0.9872
24738SOL    HW279062   8.341   3.924   0.577 -1.9232 -1.4166 -0.9735
24739SOL     OW79063   9.674   4.734   1.154  0.1118  0.5148 -0.4438
24739SOL    HW179064   9.599   4.724   1.212 -0.2907 -0.8214 -1.1846
24739SOL    HW279065   9.745   4.761   1.212 -1.0296  2.3138  0.1887
24740SOL     OW79066   8.800   5.287   0.316 -0.1555  0.2126 -0.2036
24740SOL    HW179067   8.754   5.205   0.295  2.1306 -1.0463 -0.4098
24740SOL    HW279068   8.816   5.282   0.410 -1.1178  1.0357  0.0177
24741SOL     OW79069   6.903   4.658   2.391  0.4698 -0.1994 -0.0426
24741SOL    HW179070   6.851   4.587   2.355  1.1671 -0.7280 -0.0107
24741SOL    HW279071   6.991   4.622   2.400  0.7807  0.5935  0.1815
24742SOL     OW79072   7.904   5.138   1.586 -0.1374  0.5258  0.1726
24742SOL    HW179073   7.895   5.082   1.509  0.5492  2.3248 -1.2517
24742SOL    HW279074   7.980   5.102   1.633  1.3594  1.2331 -1.6240
24743SOL     OW79075   7.828   4.358   1.407  0.0301  0.3104  0.2544
24743SOL    HW179076   7.876   4.280   1.380  0.5841  0.9480 -0.6439
24743SOL    HW279077   7.888   4.431   1.387 -1.2656  1.1135 -0.8304
24744SOL     OW79078   8.154   4.805   0.832 -0.1410  0.2620 -0.2074
24744SOL    HW179079   8.124   4.831   0.745 -0.2974  0.4742 -0.0934
24744SOL    HW279080   8.209   4.878   0.861  0.8490 -0.3223 -0.5907
24745SOL     OW79081   8.396   4.021   0.100 -0.8081  0.1793  0.8848
24745SOL    HW179082   8.489   4.031   0.080 -1.4075  1.2586 -1.5481
24745SOL    HW279083   8.388   4.053   0.190  0.9933  1.0672  0.7622
24746SOL     OW79084   0.648   4.364   0.463  0.2750 -0.1007  0.1258
24746SOL    HW179085   0.622   4.370   0.555 -0.3947 -1.1283  0.0186
24746SOL    HW279086   0.621   4.276   0.437  2.2665 -0.5584 -0.4922
24747SOL     OW79087   6.160   5.644   1.843  0.3175  0.3954  0.1338
24747SOL    HW179088   6.198   5.643   1.755  0.1787  1.0527  0.0650
24747SOL    HW279089   6.094   5.713   1.841  1.0969  1.1894  1.0771
24748SOL     OW79090   8.272   3.668   1.990 -1.0398  0.8139  0.0018
24748SOL    HW179091   8.322   3.605   1.940  0.6155  1.2028  1.1340
24748SOL    HW279092   8.180   3.646   1.972 -0.4765 -0.9651 -0.7510
24749SOL     OW79093   8.697   4.903   0.685 -0.0190  0.4717 -0.2926
24749SOL    HW179094   8.767   4.899   0.620  1.1739  2.1765  0.8358
24749SOL    HW279095   8.617   4.882   0.636  1.0861 -0.0808 -1.8993
24750SOL     OW79096   0.039   5.182   9.492  0.4864  0.1984  0.0857
24750SOL    HW179097   0.089   5.182   9.411  1.2472 -3.5939  0.4628
24750SOL    HW279098  -0.052   5.191   9.463  0.8672  0.5626 -1.0450
24751SOL     OW79099   8.038   4.578   8.541 -0.2316  0.3190 -0.0415
24751SOL    HW179100   8.125   4.559   8.507 -0.3641  0.9527 -0.7553
24751SOL    HW279101   8.017   4.505   8.598  0.3714 -0.3181 -0.6358
24752SOL     OW79102   8.868   4.581   1.726  0.1923  0.0939  0.2058
24752SOL    HW179103   8.941   4.644   1.728  0.1721  0.1684 -0.9047
24752SOL    HW279104   8.910   4.496   1.739  0.2497  0.3083  1.4770
24753SOL     OW79105   8.235   5.305   0.889 -0.2733  0.4958  0.4206
24753SOL    HW179106   8.205   5.382   0.937  1.3584  1.3130  0.1470
24753SOL    HW279107   8.319   5.330   0.852  0.2647 -1.3977  0.2794
24754SOL     OW79108   7.673   4.199   1.087 -0.0856 -0.1221  0.4622
24754SOL    HW179109   7.708   4.119   1.048  1.0893  0.2685  0.6992
24754SOL    HW279110   7.673   4.182   1.181 -0.1093  0.0571  0.4946
24755SOL     OW79111   8.283   3.654   0.382  0.1898 -0.1088 -0.0336
24755SOL    HW179112   8.297   3.668   0.288 -0.8047  1.2620  0.0045
24755SOL    HW279113   8.233   3.573   0.387  1.0066 -0.6573 -0.6369
24756SOL     OW79114   9.130   4.085   8.591 -0.3586  0.2486 -0.1460
24756SOL    HW179115   9.125   4.131   8.507 -0.4188  1.9254  0.7597
24756SOL    HW279116   9.181   4.006   8.571 -2.5160 -0.6724 -2.3033
24757SOL     OW79117   6.948   4.453   0.371 -0.0849  0.3903  0.0393
24757SOL    HW179118   6.904   4.415   0.295  1.2978 -1.0519 -0.0850
24757SOL    HW279119   6.970   4.377   0.426 -0.5389  1.3628  1.5919
24758SOL     OW79120   6.626   4.934   2.276  0.8082 -0.1043 -0.1030
24758SOL    HW179121   6.713   4.958   2.246  0.3613 -0.5373 -1.8723
24758SOL    HW279122   6.614   4.844   2.244 -0.9041  0.5377 -1.3874
24759SOL     OW79123   5.868   6.626   1.594  0.4067 -0.1029 -0.0534
24759SOL    HW179124   5.870   6.630   1.498 -1.0772 -0.1841 -0.0952
24759SOL    HW279125   5.841   6.536   1.614  0.8549 -0.1290  0.4395
24760SOL     OW79126   8.704   3.509   8.949  0.1271 -0.2994  0.6042
24760SOL    HW179127   8.681   3.573   9.017 -2.7347 -2.3194  1.6381
24760SOL    HW279128   8.705   3.425   8.995  2.1470 -1.2355 -1.0769
24761SOL     OW79129   8.968   4.094   9.914  0.2469  0.1872  0.5993
24761SOL    HW179130   8.933   4.139   9.991  0.4763  0.9019  0.2852
24761SOL    HW279131   8.939   4.003   9.925 -0.6335  0.5062  0.9815
24762SOL     OW79132   7.730   5.323   0.648  0.3284  0.1691 -0.3462
24762SOL    HW179133   7.755   5.284   0.564  0.6111  1.9927 -1.1184
24762SOL    HW279134   7.733   5.417   0.633  1.4365  0.5418  2.0422
24763SOL     OW79135   0.141   4.897   9.436  0.0224  0.1246 -0.4398
24763SOL    HW179136   0.077   4.922   9.370 -0.1696  0.8867  0.0345
24763SOL    HW279137   0.089   4.879   9.514  0.3167 -0.0227 -0.2759
24764SOL     OW79138   7.383   5.336   0.033  0.2239  0.0148  0.7269
24764SOL    HW179139   7.361   5.244   0.019 -3.2849  1.1042 -1.7070
24764SOL    HW279140   7.369   5.351   0.126 -2.0204 -1.2796  0.6335
24765SOL     OW79141   8.970   3.861   0.343  0.2289  0.3851  0.3539
24765SOL    HW179142   8.899   3.912   0.304 -0.2467 -0.8045 -0.3607
24765SOL    HW279143   8.957   3.772   0.310  1.3908 -0.0840  1.1177
24766SOL     OW79144   8.957   4.331   2.043  0.6456 -0.3492  0.5418
24766SOL    HW179145   8.971   4.330   1.948 -1.2154 -1.7401  0.2589
24766SOL    HW279146   9.017   4.263   2.075  0.4222 -0.6965  0.2328
24767SOL     OW79147   8.344   6.958   1.019  0.1980  0.2610 -0.2464
24767SOL    HW179148   8.314   6.870   0.997  1.7000 -0.9288  2.2082
24767SOL    HW279149   8.435   6.945   1.046  0.8294  2.7730 -1.0953
24768SOL     OW79150   8.437   3.855   9.788  0.0965 -0.2862 -0.5662
24768SOL    HW179151   8.449   3.862   9.694 -2.2935  1.7768 -0.7776
24768SOL    HW279152   8.347   3.822   9.799  0.3562 -0.5404  0.9657
24769SOL     OW79153   6.598   4.802   1.612 -0.4518  0.2093 -0.2735
24769SOL    HW179154   6.594   4.817   1.517 -0.8790 -0.6109 -0.3867
24769SOL    HW279155   6.691   4.814   1.634 -0.2941  0.0904 -0.8488
24770SOL     OW79156   7.854   5.952   2.174 -0.4504 -0.5716 -0.3636
24770SOL    HW179157   7.905   5.903   2.110 -0.5936  2.0771 -2.5702
24770SOL    HW279158   7.919   5.989   2.234 -0.2328 -2.0301  0.3241
24771SOL     OW79159   5.723   4.737   0.775 -0.1702  0.5332  0.4160
24771SOL    HW179160   5.788   4.806   0.780  0.5765 -0.2174  1.2805
24771SOL    HW279161   5.771   4.657   0.795 -1.3087 -0.0560  0.8731
24772SOL     OW79162   8.869   6.222   9.581  0.7168 -0.8204  1.1839
24772SOL    HW179163   8.958   6.245   9.555  0.5010 -1.5661 -0.2775
24772SOL    HW279164   8.833   6.303   9.619  1.1152  0.2527 -0.6817
24773SOL     OW79165   7.855   4.995   9.467  0.1363  0.0473  0.2443
24773SOL    HW179166   7.852   4.902   9.490  0.9110  0.0587  0.3967
24773SOL    HW279167   7.933   5.029   9.512 -1.6445  1.3726  2.4277
24774SOL     OW79168   7.294   5.209   1.079  0.1291 -0.0582  0.7262
24774SOL    HW179169   7.224   5.212   1.013  0.4286  2.1943  0.4727
24774SOL    HW279170   7.302   5.116   1.101 -0.5650 -0.7591 -1.7893
24775SOL     OW79171   9.228   5.656   9.809  0.4585  0.1932  0.1404
24775SOL    HW179172   9.196   5.695   9.891  0.3517 -0.7107  0.5351
24775SOL    HW279173   9.322   5.646   9.823  0.4443  0.0663  0.1433
24776SOL     OW79174   7.163   5.011   9.091  0.3720 -0.2253  0.2069
24776SOL    HW179175   7.166   5.002   9.187 -0.6849 -0.0830  0.2658
24776SOL    HW279176   7.247   4.977   9.061  0.7425 -0.2049  1.1959
24777SOL     OW79177   7.766   1.946   9.274 -0.2720 -0.5580 -0.2404
24777SOL    HW179178   7.838   2.003   9.248 -1.2807  0.4951 -0.7825
24777SOL    HW279179   7.776   1.935   9.368 -0.9626  1.8158  0.1377
24778SOL     OW79180   8.382   3.396   1.338  0.8950  0.2869  0.1615
24778SOL    HW179181   8.382   3.301   1.325  0.7236  0.3591 -0.3811
24778SOL    HW279182   8.465   3.425   1.300 -0.5642  0.7617 -2.8057
24779SOL     OW79183   7.760   2.961   2.427 -0.3888  0.3862 -0.1184
24779SOL    HW179184   7.728   2.872   2.435  0.2830  0.1651  0.2132
24779SOL    HW279185   7.853   2.951   2.404  0.0840  0.9724  1.4699
24780SOL     OW79186   9.108   5.222   1.272 -0.0193 -0.1720 -0.0491
24780SOL    HW179187   9.125   5.197   1.181 -1.5463  0.3962 -0.4943
24780SOL    HW279188   9.052   5.151   1.306 -2.6897  1.5500 -0.7202
24781SOL     OW79189   8.714   3.795   0.826 -0.2441  0.1717 -0.5702
24781SOL    HW179190   8.650   3.723   0.830 -0.6046  0.5572  0.6848
24781SOL    HW279191   8.765   3.786   0.906  0.2497  0.8362 -0.8087
24782SOL     OW79192   7.837   3.394   0.713 -0.2463 -0.3062 -0.2899
24782SOL    HW179193   7.886   3.350   0.643  1.0889 -0.5330  0.7679
24782SOL    HW279194   7.762   3.338   0.730 -0.2595 -0.5470 -1.1434
24783SOL     OW79195   8.479   5.098   1.069  0.5937  0.5176  0.6930
24783SOL    HW179196   8.503   5.089   1.161 -0.3346 -0.3175  0.8605
24783SOL    HW279197   8.563   5.102   1.022  1.0706 -1.2335  1.3669
24784SOL     OW79198   7.506   3.962   1.186  0.9620  0.3587 -1.0715
24784SOL    HW179199   7.426   4.015   1.178  0.2902 -0.4970 -0.1497
24784SOL    HW279200   7.561   4.011   1.247 -0.0673 -0.4680  0.5483
24785SOL     OW79201   9.155   3.703   0.021 -0.0593 -0.1278 -0.2063
24785SOL    HW179202   9.221   3.765  -0.009 -2.1543  1.7381 -1.1556
24785SOL    HW279203   9.170   3.624  -0.031 -0.2098  1.1865 -2.3279
24786SOL     OW79204   9.230   5.596   8.240 -0.5160  0.1366 -0.1941
24786SOL    HW179205   9.286   5.625   8.312 -0.4891 -0.0971 -0.1177
24786SOL    HW279206   9.198   5.510   8.268  1.3492 -0.9948 -1.4701
24787SOL     OW79207   7.899   5.209   0.290  0.1965  0.3142 -0.3470
24787SOL    HW179208   7.918   5.294   0.249 -0.3702  0.3163 -0.6096
24787SOL    HW279209   7.918   5.145   0.221 -1.3198  0.3516 -0.8219
24788SOL     OW79210   8.922   2.404   0.111 -0.3961  0.2643 -0.1793
24788SOL    HW179211   8.891   2.445   0.192  1.4912  1.1641  0.1415
24788SOL    HW279212   8.922   2.310   0.130 -0.5770  0.4266  0.6419
24789SOL     OW79213   7.061   4.719   1.198  0.4465 -0.4824 -0.1804
24789SOL    HW179214   7.122   4.767   1.142  0.5327  0.2952  0.5669
24789SOL    HW279215   7.098   4.725   1.286  0.0361 -1.2323  0.0541
24790SOL     OW79216   7.912   5.724   2.434  0.2708 -0.3319 -0.1482
24790SOL    HW179217   7.916   5.638   2.393  0.5970  0.3517 -1.5669
24790SOL    HW279218   7.953   5.711   2.520  1.9533 -1.2008 -1.0513
24791SOL     OW79219   7.633   3.945   9.104  0.4756  0.1159 -0.0264
24791SOL    HW179220   7.580   3.881   9.151 -0.2096  1.3705  0.9563
24791SOL    HW279221   7.577   3.972   9.030  0.9542 -0.7564 -0.7124
24792SOL     OW79222   8.296   3.985   1.301 -0.2502  0.0241  0.1564
24792SOL    HW179223   8.258   4.067   1.268  1.4112 -0.1097 -2.2003
24792SOL    HW279224   8.388   4.007   1.317  0.2904 -1.4584 -0.8138
24793SOL     OW79225   8.103   4.510   0.369  0.1061 -0.0425  0.1310
24793SOL    HW179226   8.165   4.437   0.365  0.5818  0.3526  0.3328
24793SOL    HW279227   8.079   4.517   0.461  0.5100  0.4299  0.2048
24794SOL     OW79228   8.847   4.909   1.655  0.3202  0.2015  0.4305
24794SOL    HW179229   8.872   4.901   1.562  2.1859 -0.4590  0.9565
24794SOL    HW279230   8.912   4.856   1.701 -0.2847  0.9512  2.1666
24795SOL     OW79231   9.332   6.315   0.495  0.0985 -0.1458  0.1788
24795SOL    HW179232   9.410   6.343   0.447 -0.3103 -0.3868 -0.6266
24795SOL    HW279233   9.297   6.395   0.534 -1.1503  0.5159 -2.2166
24796SOL     OW79234   7.717   5.691   1.153  0.2312  0.7755  0.2894
24796SOL    HW179235   7.714   5.680   1.058  0.1516  1.2736  0.2309
24796SOL    HW279236   7.751   5.608   1.186 -3.1937 -0.7821  0.0945
24797SOL     OW79237   8.653   6.036   9.577  0.0421  0.2068  0.4031
24797SOL    HW179238   8.709   6.113   9.580 -1.3271  1.1788  2.5528
24797SOL    HW279239   8.580   6.058   9.635 -1.3683 -1.9350 -0.5183
24798SOL     OW79240   9.456   3.371   0.857 -0.1188 -0.0937  0.2191
24798SOL    HW179241   9.382   3.410   0.812 -1.4022 -2.2239  0.4214
24798SOL    HW279242   9.442   3.392   0.950  0.2303  0.5952  0.1205
24799SOL     OW79243   7.490   2.974   9.687 -0.2278 -0.3172  0.1777
24799SOL    HW179244   7.541   2.926   9.623 -1.5264 -0.6799 -0.5885
24799SOL    HW279245   7.441   2.907   9.734 -2.4248  0.2579 -1.2263
24800SOL     OW79246   8.686   5.664   0.294  0.4921 -0.0500  0.2086
24800SOL    HW179247   8.774   5.647   0.326  0.5448 -0.8770 -0.3346
24800SOL    HW279248   8.697   5.730   0.226  1.0461 -2.0379 -1.6910
24801SOL     OW79249   7.499   4.893   0.191 -0.1249 -0.6520 -0.0536
24801SOL    HW179250   7.588   4.907   0.226 -0.1649  0.7029 -0.4630
24801SOL    HW279251   7.501   4.804   0.156  0.4902 -1.3517  1.6889
24802SOL     OW79252   8.832   4.007   8.588 -0.1649 -0.4211 -0.1872
24802SOL    HW179253   8.913   3.996   8.537 -0.2336  1.2053 -0.6615
24802SOL    HW279254   8.780   4.069   8.538 -0.4302  0.8687  1.6411
24803SOL     OW79255   7.955   2.789   2.094  0.4253  0.6392  0.0194
24803SOL    HW179256   7.981   2.832   2.175  0.2070 -0.6116  0.7739
24803SOL    HW279257   8.035   2.784   2.042  0.6410  1.1433  0.3032
24804SOL     OW79258   8.632   4.641   1.583  0.7789 -0.3774  0.6347
24804SOL    HW179259   8.715   4.611   1.621  1.0469 -2.5060 -1.5393
24804SOL    HW279260   8.572   4.645   1.658  1.5136 -3.6979  1.4879
24805SOL     OW79261   9.329   3.565   9.559 -0.1018  0.0008  0.2741
24805SOL    HW179262   9.415   3.525   9.575  0.5638  0.7746 -1.1954
24805SOL    HW279263   9.346   3.659   9.566 -0.1944  0.2999 -2.7223
24806SOL     OW79264   9.517   4.800   8.612  0.1203  0.7068  0.2619
24806SOL    HW179265   9.589   4.740   8.598 -1.4818 -1.4151  0.8717
24806SOL    HW279266   9.514   4.811   8.708 -0.6118  0.4578  0.2697
24807SOL     OW79267   9.157   4.115   1.465  0.7118  0.7857 -0.1274
24807SOL    HW179268   9.152   4.156   1.551 -0.0344  0.1051  0.1635
24807SOL    HW279269   9.066   4.112   1.435  0.8807  0.3159 -0.6009
24808SOL     OW79270   5.609   4.975   1.064  0.0778  0.1591 -0.0585
24808SOL    HW179271   5.534   5.030   1.087 -0.1331 -0.1479 -0.0118
24808SOL    HW279272   5.571   4.899   1.020  0.1654 -1.1065  1.9649
24809SOL     OW79273   7.432   4.989   0.829 -0.1036  0.1626 -0.6424
24809SOL    HW179274   7.465   5.079   0.823  1.3895 -0.4048 -1.1460
24809SOL    HW279275   7.435   4.969   0.923  2.2079 -0.2953 -0.7751
24810SOL     OW79276   9.084   4.952   9.837 -0.0195  0.3574  0.4810
24810SOL    HW179277   9.044   5.006   9.769  1.7123 -0.3409 -1.1353
24810SOL    HW279278   9.052   4.863   9.819 -0.4861  0.3437  1.3219
24811SOL     OW79279   8.558   3.415   9.757  0.3256 -0.2514  0.0142
24811SOL    HW179280   8.505   3.493   9.741  0.3521 -0.0666  0.7949
24811SOL    HW279281   8.630   3.420   9.694 -0.7129 -0.6234 -1.2119
24812SOL     OW79282   8.242   6.139   2.197 -0.4669 -0.2428 -0.6360
24812SOL    HW179283   8.219   6.176   2.112 -0.0918  0.2460 -0.5286
24812SOL    HW279284   8.328   6.098   2.184  0.6555  1.7991  0.0476
24813SOL     OW79285   9.164   4.851   0.106  0.4301 -0.3059  0.2238
24813SOL    HW179286   9.091   4.898   0.065  0.5220 -0.7664 -0.4770
24813SOL    HW279287   9.207   4.916   0.161  1.6421  0.9250 -2.1234
24814SOL     OW79288   6.612   3.746   2.805  0.9859 -0.3066 -0.6802
24814SOL    HW179289   6.611   3.654   2.833  0.7121  0.2271  1.0812
24814SOL    HW279290   6.640   3.795   2.882 -1.3450  1.3503 -0.8378
24815SOL     OW79291   7.503   5.248   0.810 -0.1727  0.3684 -0.0156
24815SOL    HW179292   7.580   5.270   0.757  1.1158 -0.6099  1.3788
24815SOL    HW279293   7.440   5.317   0.791  2.3398  3.2029  1.4297
24816SOL     OW79294   8.945   4.395   2.312  0.1797  0.0617 -0.2097
24816SOL    HW179295   8.957   4.397   2.217 -0.7653 -0.4221 -0.3455
24816SOL    HW279296   9.034   4.395   2.347  0.5331  1.3865 -1.0581
24817SOL     OW79297   8.697   6.031   9.887  0.1669  0.0495  0.2311
24817SOL    HW179298   8.640   6.102   9.858 -0.6882 -1.1957 -1.2121
24817SOL    HW279299   8.765   6.074   9.938 -0.6292  1.8454 -0.1937
24818SOL     OW79300   8.672   3.742   9.838  0.4017 -0.1560 -0.2533
24818SOL    HW179301   8.584   3.778   9.821  1.1586  0.8890 -2.0702
24818SOL    HW279302   8.673   3.726   9.933 -1.4263  0.7002 -0.0662
24819SOL     OW79303   8.963   3.392   0.285  0.4202 -0.0537 -0.4832
24819SOL    HW179304   8.992   3.373   0.196  0.8906  2.3170 -0.8655
24819SOL    HW279305   8.919   3.477   0.279  1.4269  0.6618  1.7361
24820SOL     OW79306   8.402   4.588   8.560  0.2615  0.0573 -0.0499
24820SOL    HW179307   8.416   4.522   8.628  1.1426  2.3087  2.0440
24820SOL    HW279308   8.488   4.599   8.519  0.3830  0.6883  0.3644
24821SOL     OW79309   7.945   6.493   3.917 -0.4681 -0.3604  0.3137
24821SOL    HW179310   7.896   6.449   3.847 -1.8090 -0.5376  1.3407
24821SOL    HW279311   7.917   6.448   3.997 -0.4623  1.1745  1.1826
24822SOL     OW79312   8.517   3.362   0.010 -0.2439  0.4394  0.1202
24822SOL    HW179313   8.552   3.361  -0.080 -0.8320 -0.7209 -0.1091
24822SOL    HW279314   8.593   3.347   0.065  0.2744  2.0687 -0.1231
24823SOL     OW79315   7.251   2.672   1.000  0.2918 -0.2414 -0.1148
24823SOL    HW179316   7.305   2.631   1.068 -0.0969  0.7154  0.7890
24823SOL    HW279317   7.184   2.607   0.981 -0.7986  0.2394  1.8822
24824SOL     OW79318   9.223   3.600   0.373  0.2609  0.3196 -0.1578
24824SOL    HW179319   9.232   3.578   0.280 -0.1652 -0.9816  0.1065
24824SOL    HW279320   9.229   3.516   0.419  0.0322  0.9046  0.9624
24825SOL     OW79321   7.909   5.985   0.150  0.1441 -0.4185 -0.1657
24825SOL    HW179322   7.925   6.073   0.183  0.2170 -0.3110 -0.4843
24825SOL    HW279323   7.823   5.990   0.108  0.5863 -0.2515 -1.0517
24826SOL     OW79324   8.121   4.646   1.315  0.3373  0.0785  0.4619
24826SOL    HW179325   8.166   4.619   1.395  2.7816  0.3709 -0.7828
24826SOL    HW279326   8.183   4.702   1.270 -0.9025 -0.2991 -1.7887
24827SOL     OW79327   0.215   4.169   0.696  0.2348  0.3190 -0.8794
24827SOL    HW179328   0.306   4.183   0.671 -0.2169  1.8926 -1.6537
24827SOL    HW279329   0.220   4.116   0.776  1.7842 -0.7362 -1.6660
24828SOL     OW79330   9.134   4.106   3.102  0.2969  0.4254  0.2240
24828SOL    HW179331   9.217   4.149   3.122  0.1901  0.3454  0.8516
24828SOL    HW279332   9.139   4.021   3.146 -0.4706  0.7733  1.0078
24829SOL     OW79333   0.456   2.789   1.575  0.1758  0.0952  0.3640
24829SOL    HW179334   0.533   2.746   1.612 -0.8125  0.0867  2.4963
24829SOL    HW279335   0.417   2.724   1.517 -0.4030 -1.3426  2.3205
24830SOL     OW79336   9.274   4.263   0.588  0.3288  0.0878 -0.1864
24830SOL    HW179337   9.221   4.210   0.528  1.0414 -0.1383 -0.6170
24830SOL    HW279338   9.310   4.200   0.650 -0.9861  0.4055  0.9332
24831SOL     OW79339   9.793   4.994   1.106 -0.5316  0.7352  0.5610
24831SOL    HW179340   9.837   4.950   1.178 -0.0456  0.0899 -0.1214
24831SOL    HW279341   9.780   5.083   1.136  0.8439  0.8089  0.9366
24832SOL     OW79342   7.214   4.606   0.359 -0.2707 -0.1608  0.1889
24832SOL    HW179343   7.231   4.645   0.444  1.8383 -1.3376  0.3268
24832SOL    HW279344   7.132   4.557   0.371 -0.7573  0.8700  1.1131
24833SOL     OW79345   9.246   5.149   8.503 -0.4221  0.4947  0.9548
24833SOL    HW179346   9.223   5.214   8.436  1.1630  0.1647  0.0680
24833SOL    HW279347   9.295   5.199   8.569 -1.5861  0.7289  1.6513
24834SOL     OW79348   7.964   3.640   0.838 -0.0136  0.3232 -0.2645
24834SOL    HW179349   7.920   3.681   0.913 -0.6347 -0.9122  0.0429
24834SOL    HW279350   7.924   3.554   0.830  0.0526  0.4462 -2.0295
24835SOL     OW79351   9.368   4.264   0.011  0.1216 -0.2725 -0.5292
24835SOL    HW179352   9.449   4.312   0.026 -0.2403 -0.2557  1.4913
24835SOL    HW279353   9.361   4.204   0.085 -1.5224 -0.5211 -0.8652
24836SOL     OW79354   7.141   6.500   0.548 -0.0059  0.4354  0.4139
24836SOL    HW179355   7.203   6.562   0.588 -1.2923  1.4487  0.8410
24836SOL    HW279356   7.194   6.421   0.533  2.0842  2.1547 -1.7031
24837SOL     OW79357   7.430   4.906   1.816 -0.2466  0.2975  0.3397
24837SOL    HW179358   7.515   4.916   1.858  0.5028 -0.3533 -0.9872
24837SOL    HW279359   7.377   4.978   1.850  1.0145  1.0583  0.7231
24838SOL     OW79360   8.013   4.176   0.698  0.6705 -0.3005 -0.1748
24838SOL    HW179361   7.946   4.110   0.719  0.4503  0.3731  1.3446
24838SOL    HW279362   8.019   4.175   0.603 -1.2366 -0.6435 -0.3118
24839SOL     OW79363   7.673   4.067   1.372  0.2542  0.1488  0.2065
24839SOL    HW179364   7.768   4.070   1.378  0.3479 -1.1936 -0.4528
24839SOL    HW279365   7.649   3.986   1.418 -0.6137  0.7225  0.7922
24840SOL     OW79366   6.252   5.041   2.040  0.4869  0.3574 -0.6095
24840SOL    HW179367   6.235   5.047   1.946 -0.4375  0.6534 -0.4319
24840SOL    HW279368   6.178   4.990   2.074  1.2727 -0.5018 -0.1690
24841SOL     OW79369   8.888   4.548   1.331  0.0715 -0.3761 -1.1685
24841SOL    HW179370   8.950   4.485   1.367 -1.8853 -1.1412  1.0003
24841SOL    HW279371   8.915   4.632   1.368 -0.9047 -0.9054  0.8560
24842SOL     OW79372   6.273   4.320   8.231  0.1434 -0.7627  0.4645
24842SOL    HW179373   6.209   4.294   8.164 -1.5749  0.3822  1.6211
24842SOL    HW279374   6.251   4.268   8.307  1.7146 -1.6152  0.3558
24843SOL     OW79375   0.913   3.687   1.021 -0.0813 -0.0419 -0.1185
24843SOL    HW179376   0.931   3.730   0.938 -1.2882  1.6921  0.4943
24843SOL    HW279377   0.993   3.637   1.039  1.2297  1.6343 -1.0344
24844SOL     OW79378   8.513   3.995   2.227 -0.1301 -0.2237  0.1699
24844SOL    HW179379   8.601   3.980   2.262  0.9511  1.8580 -1.5308
24844SOL    HW279380   8.517   3.963   2.137 -0.5188  1.6445 -0.5302
24845SOL     OW79381   7.998   5.669   3.065  0.2197 -1.0091 -0.8780
24845SOL    HW179382   8.059   5.616   3.015 -1.0441 -1.1734 -2.2779
24845SOL    HW279383   7.917   5.667   3.014  0.1429  2.3462 -1.0090
24846SOL     OW79384   8.692   4.295   0.682 -0.3077  0.6703  0.1504
24846SOL    HW179385   8.762   4.304   0.746 -0.1084  0.4129 -0.0290
24846SOL    HW279386   8.645   4.216   0.710 -2.0914  2.2584  1.7549
24847SOL     OW79387   7.535   4.112   0.838  0.4143 -0.5855  0.2419
24847SOL    HW179388   7.525   4.175   0.767 -0.9262 -0.0787  0.8605
24847SOL    HW279389   7.544   4.165   0.917 -1.6970 -1.1338  0.8946
24848SOL     OW79390   6.566   4.657   8.924 -0.3647 -0.5183 -0.1647
24848SOL    HW179391   6.647   4.681   8.968 -0.7841  1.5313 -0.4653
24848SOL    HW279392   6.514   4.613   8.992  0.0037  0.3704  0.7020
24849SOL     OW79393   9.696   3.982   1.441  0.3412  0.3609  0.0729
24849SOL    HW179394   9.683   3.887   1.439  1.1870  0.2524 -3.3283
24849SOL    HW279395   9.791   3.993   1.448  0.4135  0.8859 -1.4116
24850SOL     OW79396   9.176   5.895   2.371  0.3859 -0.5620  0.2210
24850SOL    HW179397   9.262   5.934   2.355  1.3586 -2.0672  1.5383
24850SOL    HW279398   9.148   5.862   2.286  2.1970 -2.1031  0.1821
24851SOL     OW79399   5.403   3.291   1.563  0.1161 -0.1781 -0.4522
24851SOL    HW179400   5.384   3.197   1.564 -1.1501  0.0717 -0.1608
24851SOL    HW279401   5.483   3.300   1.615  1.1506 -1.2699 -1.8068
24852SOL     OW79402   9.053   4.269   8.789  0.1790  0.3594  0.1424
24852SOL    HW179403   9.036   4.201   8.724  1.8395 -1.3322  1.4256
24852SOL    HW279404   9.114   4.330   8.746  1.3728 -0.8269  0.1267
24853SOL     OW79405   8.856   4.812   2.687  0.1901  0.1972  0.1180
24853SOL    HW179406   8.855   4.810   2.782 -1.5234 -2.3538  0.0852
24853SOL    HW279407   8.921   4.746   2.662  0.1429  0.3789 -0.5064
24854SOL     OW79408   8.036   3.827   0.576 -0.1043 -0.7445  0.2246
24854SOL    HW179409   8.098   3.899   0.588  0.6391 -1.0914 -1.3272
24854SOL    HW279410   7.983   3.827   0.655 -1.3980  2.7417 -0.5666
24855SOL     OW79411   8.604   4.760   3.532 -0.2547 -0.6929  0.4418
24855SOL    HW179412   8.613   4.669   3.504 -0.1162 -0.6242  0.2584
24855SOL    HW279413   8.664   4.769   3.606  0.5265 -0.4680 -0.2198
24856SOL     OW79414   8.124   4.078   9.702  0.5297  0.1878  0.0933
24856SOL    HW179415   8.180   4.011   9.665 -1.4311 -1.7829  0.6111
24856SOL    HW279416   8.125   4.061   9.796 -1.4283 -0.2878  0.0514
24857SOL     OW79417   9.485   4.297   3.567  0.2501  0.2290  0.1932
24857SOL    HW179418   9.513   4.219   3.520 -0.1524  1.1710 -1.6700
24857SOL    HW279419   9.527   4.290   3.653  1.2739 -1.3639 -0.4159
24858SOL     OW79420   8.268   6.622   1.468  0.3260  0.3558  0.4363
24858SOL    HW179421   8.298   6.639   1.557 -1.1710 -0.3116  1.0891
24858SOL    HW279422   8.317   6.544   1.441  0.3875  0.2377  0.8788
24859SOL     OW79423   7.870   5.449   9.750 -0.1578  0.0422 -0.4749
24859SOL    HW179424   7.805   5.382   9.776  1.5420 -0.9108  1.4878
24859SOL    HW279425   7.907   5.416   9.668 -0.9910 -0.2384 -0.7445
24860SOL     OW79426   7.845   6.846   9.980 -0.2774  0.6873  0.4316
24860SOL    HW179427   7.889   6.817   9.901 -1.6737  2.4120 -1.0160
24860SOL    HW279428   7.758   6.808   9.974  1.0533 -3.2339  3.5848
24861SOL     OW79429   7.189   2.808   2.089  0.3816  0.3390 -0.3946
24861SOL    HW179430   7.137   2.729   2.105 -0.1137  0.9634  1.2026
24861SOL    HW279431   7.266   2.797   2.144 -0.0625  1.3259  0.4211
24862SOL     OW79432   6.475   5.035   9.591 -0.5715  0.1846  0.0003
24862SOL    HW179433   6.567   5.062   9.586  0.2850 -2.3707  1.2238
24862SOL    HW279434   6.460   4.987   9.510 -1.3418  2.0096 -0.9664
24863SOL     OW79435   8.669   4.548   9.321  0.7567 -0.5409  0.2982
24863SOL    HW179436   8.728   4.594   9.381  1.7580 -0.7651 -0.4909
24863SOL    HW279437   8.683   4.455   9.339 -0.0004 -0.5687  0.7184
24864SOL     OW79438   7.180   4.990   1.366 -0.1945 -0.6238 -0.1600
24864SOL    HW179439   7.269   4.988   1.332 -0.3215 -1.2399 -0.4651
24864SOL    HW279440   7.190   5.018   1.457  0.3284 -0.9267 -0.1242
24865SOL     OW79441   8.440   5.181   0.406 -0.4717  0.1179  0.6161
24865SOL    HW179442   8.349   5.208   0.400 -0.1790  1.1952  0.8525
24865SOL    HW279443   8.485   5.234   0.340  0.0007 -0.2968  0.6050
24866SOL     OW79444   1.334   4.362   0.292 -0.1105  0.1912  0.4878
24866SOL    HW179445   1.349   4.441   0.344 -0.9229  0.0121  1.0059
24866SOL    HW279446   1.294   4.300   0.353 -0.5583 -0.2171 -0.2079
24867SOL     OW79447   9.782   4.922   8.692 -0.1876  0.0767 -0.2397
24867SOL    HW179448   9.766   4.828   8.692  1.8120 -0.2989  1.4264
24867SOL    HW279449   9.857   4.934   8.750 -1.3889  2.8829  0.8336
24868SOL     OW79450   8.872   4.764   1.989 -0.3862  0.2445 -0.5473
24868SOL    HW179451   8.885   4.717   1.907  0.7488 -3.0455  1.4325
24868SOL    HW279452   8.951   4.817   2.000 -0.1437  0.0005 -1.1175
24869SOL     OW79453   5.726   5.465   1.808  0.1398  0.0161 -0.2116
24869SOL    HW179454   5.772   5.384   1.787 -0.1808 -0.7598  1.9526
24869SOL    HW279455   5.763   5.530   1.748  2.1042 -1.2086 -0.3842
24870SOL     OW79456   6.605   5.187   1.112  0.1751 -0.1795 -0.3981
24870SOL    HW179457   6.614   5.094   1.089  0.5288  0.0825 -1.3587
24870SOL    HW279458   6.541   5.221   1.049 -0.4103  0.1003  0.3372
24871SOL     OW79459   6.881   3.317   0.951 -0.4856  0.1764 -0.3462
24871SOL    HW179460   6.810   3.256   0.973 -1.1880  0.9369 -0.4349
24871SOL    HW279461   6.961   3.265   0.955 -1.0919 -0.7838 -0.5965
24872SOL     OW79462   8.447   4.310   9.237 -0.0374 -0.2472  0.7173
24872SOL    HW179463   8.521   4.291   9.294 -0.4757 -0.5238  1.1944
24872SOL    HW279464   8.487   4.350   9.159  0.5843 -0.1146  1.0977
24873SOL     OW79465   7.112   4.292   0.916 -0.6040  0.3858 -0.2418
24873SOL    HW179466   7.060   4.211   0.921 -0.0295 -0.0278 -0.9631
24873SOL    HW279467   7.202   4.262   0.906 -0.5162  1.1257 -1.7521
24874SOL     OW79468   8.790   5.249   9.036  0.7246 -0.3747 -0.7028
24874SOL    HW179469   8.699   5.222   9.038  0.9688 -1.2033  0.1132
24874SOL    HW279470   8.802   5.290   8.951 -0.4406 -0.1309 -0.7572
24875SOL     OW79471   0.187   4.690   2.828 -0.0003 -0.0652  0.4186
24875SOL    HW179472   0.271   4.661   2.864 -0.4188 -1.0550  0.6100
24875SOL    HW279473   0.167   4.771   2.876  1.0238  0.3774  0.1012
24876SOL     OW79474   8.252   4.829   2.970 -0.3912  0.2517 -0.4760
24876SOL    HW179475   8.266   4.912   2.924 -1.3217  0.8807  0.3586
24876SOL    HW279476   8.338   4.807   3.007 -0.2781  1.1522 -0.1960
24877SOL     OW79477   9.520   5.329   2.633 -0.0634 -0.1062 -0.0449
24877SOL    HW179478   9.475   5.370   2.559  0.9323 -2.5321 -2.0655
24877SOL    HW279479   9.608   5.366   2.631 -0.6363  1.3840  1.2459
24878SOL     OW79480   8.372   4.755   1.193 -0.8150  0.0532  0.4471
24878SOL    HW179481   8.369   4.846   1.225  0.1221 -0.3964  1.8613
24878SOL    HW279482   8.398   4.763   1.101  0.5662  1.1565  0.9055
24879SOL     OW79483   9.769   6.176   0.325  0.0498 -0.0939  0.7245
24879SOL    HW179484   9.773   6.154   0.418 -0.3603 -1.1327  0.5042
24879SOL    HW279485   9.686   6.138   0.295  0.0419  0.4861 -0.0080
24880SOL     OW79486   6.861   5.551   0.287  0.6005 -0.0457 -0.7717
24880SOL    HW179487   6.847   5.463   0.252  0.4226 -0.1768 -0.3786
24880SOL    HW279488   6.775   5.593   0.281  0.3363 -0.3961  0.3915
24881SOL     OW79489   9.393   4.556   1.502  0.8120 -0.1830  0.2310
24881SOL    HW179490   9.308   4.582   1.537  0.4785  0.3464 -0.9419
24881SOL    HW279491   9.402   4.464   1.526 -0.9938 -0.8177 -1.3834
24882SOL     OW79492   7.825   5.719   9.798  0.2727  0.2242  0.1368
24882SOL    HW179493   7.839   5.627   9.774 -1.2757 -0.1849  0.7474
24882SOL    HW279494   7.795   5.716   9.889 -1.9484  1.1674 -0.5304
24883SOL     OW79495   7.523   4.778   0.649 -0.0670 -0.4960 -0.3472
24883SOL    HW179496   7.477   4.855   0.684 -0.4137 -0.4023 -0.9886
24883SOL    HW279497   7.573   4.813   0.574 -1.4927 -1.1715 -1.6440
24884SOL     OW79498   6.925   5.623   9.635 -0.0818  0.2486  0.1558
24884SOL    HW179499   7.006   5.627   9.685 -1.5541  0.4821  2.6479
24884SOL    HW279500   6.858   5.652   9.697 -1.9271  1.0369 -2.1483
24885SOL     OW79501   8.801   3.966   9.321 -0.1331  0.0829  0.6073
24885SOL    HW179502   8.896   3.956   9.323  0.0449  1.6225  0.1440
24885SOL    HW279503   8.772   3.942   9.409  0.6074 -1.0057  0.5691
24886SOL     OW79504   9.052   6.534   8.923 -0.4179  0.8020  0.3988
24886SOL    HW179505   9.019   6.448   8.948  1.7646  0.7028  3.1523
24886SOL    HW279506   9.016   6.594   8.988  1.4399  1.2996  1.0037
24887SOL     OW79507   7.790   5.420   1.233  0.0933 -0.7030  0.3107
24887SOL    HW179508   7.718   5.373   1.191 -0.2050 -0.7014  0.8173
24887SOL    HW279509   7.864   5.359   1.230 -0.6489 -1.7346  2.1699
24888SOL     OW79510   9.345   5.067   2.363  0.0940  0.3303  0.3105
24888SOL    HW179511   9.309   5.031   2.282 -2.3635  1.8485  0.6578
24888SOL    HW279512   9.345   4.994   2.424 -0.2667 -0.2578 -0.3802
24889SOL     OW79513   7.330   5.526   0.874  0.2433 -0.1750  0.0251
24889SOL    HW179514   7.333   5.622   0.884  0.8363 -0.2560  0.6787
24889SOL    HW279515   7.248   5.500   0.915 -0.0839  0.0912 -0.4624
24890SOL     OW79516   8.879   7.313   1.888 -0.3997 -0.3474  0.0603
24890SOL    HW179517   8.844   7.234   1.847 -0.2318 -0.7309  0.6538
24890SOL    HW279518   8.814   7.336   1.954 -0.2589 -0.2090  0.1503
24891SOL     OW79519   8.428   4.334   1.246  0.0307 -0.3001  0.3650
24891SOL    HW179520   8.463   4.264   1.192  1.4193 -0.2634  1.1859
24891SOL    HW279521   8.500   4.357   1.305 -0.1148  2.3930 -0.4499
24892SOL     OW79522   9.488   7.418   9.851 -0.1224  0.1253  0.0516
24892SOL    HW179523   9.541   7.339   9.859 -0.4459  0.1339  2.5315
24892SOL    HW279524   9.431   7.417   9.928  1.0612  3.6742  1.0556
24893SOL     OW79525   7.883   3.532   0.421 -0.2032 -0.2050  0.0284
24893SOL    HW179526   7.817   3.568   0.480  1.2145  2.3283  0.1350
24893SOL    HW279527   7.953   3.501   0.478 -0.1156 -0.4514 -0.2088
24894SOL     OW79528   7.098   4.107   0.310 -0.4139 -0.4940 -0.3659
24894SOL    HW179529   7.160   4.177   0.289 -1.4225  0.5019 -0.1072
24894SOL    HW279530   7.150   4.041   0.355  0.7384 -0.3363 -1.4480
24895SOL     OW79531   8.238   5.301   1.878 -0.2692 -0.3280 -0.0619
24895SOL    HW179532   8.187   5.325   1.955 -1.5984 -1.3988 -0.5810
24895SOL    HW279533   8.222   5.371   1.814 -0.4226 -0.2391  0.0757
24896SOL     OW79534   9.951   4.829   9.651  0.6418 -0.4841 -0.0881
24896SOL    HW179535   9.883   4.778   9.696  1.1774 -1.8769 -0.8297
24896SOL    HW279536  10.031   4.779   9.665  1.1677  0.1474 -0.8447
24897SOL     OW79537   8.487   5.141   9.453 -0.0659  0.2478 -0.3376
24897SOL    HW179538   8.453   5.230   9.446 -0.6467  0.0869  0.3193
24897SOL    HW279539   8.443   5.105   9.530 -1.0381 -1.1452 -1.5203
24898SOL     OW79540   7.335   5.071   0.061 -0.2812 -1.1665 -0.1966
24898SOL    HW179541   7.254   5.027   0.085 -0.0398 -1.9534 -0.8020
24898SOL    HW279542   7.404   5.018   0.101 -0.0336 -0.8555 -0.2078
24899SOL     OW79543   5.902   5.343   2.365 -0.8161 -0.1024  0.7862
24899SOL    HW179544   5.813   5.319   2.390 -2.0162  1.5716 -1.6963
24899SOL    HW279545   5.933   5.269   2.313 -1.9633  0.6764 -1.0410
24900SOL     OW79546   7.060   4.466   1.382 -0.5727  0.4775 -0.2665
24900SOL    HW179547   7.004   4.518   1.439  0.0255  0.5667  0.2436
24900SOL    HW279548   7.006   4.449   1.304 -1.6824 -0.3474  0.6597
24901SOL     OW79549   8.015   3.263   2.436  0.4855  0.5355  0.6371
24901SOL    HW179550   8.036   3.278   2.528  0.8552  2.1676  0.2985
24901SOL    HW279551   8.043   3.343   2.391 -0.1464 -0.0409 -0.8222
24902SOL     OW79552   8.485   5.928   2.472 -0.0524  1.1671 -0.3688
24902SOL    HW179553   8.407   5.884   2.506 -1.1725  3.0716 -0.3776
24902SOL    HW279554   8.467   6.021   2.484  2.6273  1.6315  0.4740
24903SOL     OW79555   8.632   5.383   3.559 -0.2030 -0.5579 -0.1808
24903SOL    HW179556   8.703   5.367   3.621  0.8102 -1.6143 -1.5783
24903SOL    HW279557   8.559   5.331   3.593 -0.2624  0.3544  1.1357
24904SOL     OW79558   8.664   3.915   2.762 -0.2791  0.4985  0.0035
24904SOL    HW179559   8.629   3.966   2.836  1.2735  0.3793  0.8243
24904SOL    HW279560   8.639   3.825   2.782 -3.3361  0.9138 -1.6236
24905SOL     OW79561   9.908   4.021   1.220  0.3511 -0.3285  0.4664
24905SOL    HW179562   9.978   4.057   1.274 -1.0890 -1.3604  3.1497
24905SOL    HW279563   9.888   3.936   1.260 -1.8785 -0.4104 -0.7136
24906SOL     OW79564   8.528   5.016   3.983  0.4930 -0.0454 -0.1210
24906SOL    HW179565   8.579   4.995   3.904 -1.3039 -1.0841 -1.0353
24906SOL    HW279566   8.437   5.001   3.957 -0.2586  1.4536  1.5966
24907SOL     OW79567   8.158   5.556   3.266  0.0580  0.0940  0.0413
24907SOL    HW179568   8.130   5.630   3.320  2.1539  1.6389 -0.9051
24907SOL    HW279569   8.076   5.517   3.235 -1.1360  3.1024 -0.8309
24908SOL     OW79570   9.133   3.981   3.563 -0.3212 -0.4535  0.1571
24908SOL    HW179571   9.148   3.886   3.567  0.0473 -0.3563  1.3033
24908SOL    HW279572   9.190   4.017   3.630 -0.8628  0.5360  0.0977
24909SOL     OW79573   6.958   5.505   3.099  0.3539 -0.1996  0.3176
24909SOL    HW179574   7.007   5.576   3.140  1.7049 -0.0518 -1.4834
24909SOL    HW279575   6.867   5.522   3.123  1.0899 -0.1792  3.2761
24910SOL     OW79576   8.572   5.344   3.939 -0.0115  0.1922  0.2077
24910SOL    HW179577   8.592   5.311   4.026 -0.1965 -0.8943 -0.1504
24910SOL    HW279578   8.651   5.328   3.888 -0.3299 -0.2758 -0.1362
24911SOL     OW79579   9.050   4.621   3.409  0.3938 -0.0872  0.0910
24911SOL    HW179580   9.052   4.699   3.354  1.5179  0.3287  0.7000
24911SOL    HW279581   9.062   4.654   3.498 -2.6145 -0.6087  0.7775
24912SOL     OW79582   7.622   4.781   2.371  0.1138 -0.2233  0.7769
24912SOL    HW179583   7.698   4.839   2.362  0.1886 -0.2238  1.3818
24912SOL    HW279584   7.546   4.839   2.363  0.1719 -0.2355  0.0841
24913SOL     OW79585   9.295   4.149   4.390 -0.1881 -0.2312 -0.2657
24913SOL    HW179586   9.241   4.083   4.434  0.7890 -0.5493  0.4569
24913SOL    HW279587   9.234   4.222   4.373 -0.7429 -0.4065  0.9273
24914SOL     OW79588   6.629   4.901   1.363 -0.1408  0.0645 -0.0551
24914SOL    HW179589   6.607   4.856   1.282  0.8957  0.3333 -0.5003
24914SOL    HW279590   6.721   4.927   1.352 -0.3017  1.0278  0.7683
24915SOL     OW79591   6.774   4.689   1.030  0.5873 -0.0736 -0.2472
24915SOL    HW179592   6.844   4.709   0.969  0.5039 -1.1621 -0.7162
24915SOL    HW279593   6.725   4.618   0.988 -0.8683  0.7594  0.0088
24916SOL     OW79594   6.593   4.250   4.223  0.0496 -0.2869 -0.2100
24916SOL    HW179595   6.611   4.168   4.268  0.9637  0.2848  0.4657
24916SOL    HW279596   6.580   4.314   4.292 -0.7971  0.1169 -0.7333
24917SOL     OW79597   8.487   5.982   2.187  0.3362 -0.0287 -0.4591
24917SOL    HW179598   8.559   5.931   2.148  0.8830 -0.4283  1.0327
24917SOL    HW279599   8.486   5.954   2.279 -1.6705  0.0520 -0.4465
24918SOL     OW79600   8.224   4.618   2.769 -0.6375 -0.2246 -0.2301
24918SOL    HW179601   8.272   4.540   2.799 -2.4755 -1.0965  0.5225
24918SOL    HW279602   8.254   4.688   2.827 -0.8187 -0.9181  0.7107
24919SOL     OW79603   5.529   4.526   2.239  0.7980 -0.6627  0.0573
24919SOL    HW179604   5.549   4.611   2.278  0.2918 -1.2771  1.6775
24919SOL    HW279605   5.538   4.540   2.145  0.7291  1.1816  0.3186
24920SOL     OW79606   9.616   5.899   0.399 -0.2003  0.3520 -0.0412
24920SOL    HW179607   9.596   5.805   0.399 -0.6185  0.4346  0.7370
24920SOL    HW279608   9.609   5.924   0.491  0.8897  0.9373 -0.1144
24921SOL     OW79609   7.005   7.213   3.256  0.0431 -0.5922  0.2747
24921SOL    HW179610   7.015   7.222   3.161 -0.7489 -2.8891 -0.0512
24921SOL    HW279611   7.082   7.163   3.284  0.0075 -0.3744  0.7665
24922SOL     OW79612   9.642   4.953   2.799 -1.0830 -0.2494 -0.1779
24922SOL    HW179613   9.580   5.020   2.770 -0.5304  0.2742 -0.1670
24922SOL    HW279614   9.594   4.870   2.790 -1.0098 -0.0871 -2.3034
24923SOL     OW79615   0.341   4.942   2.967  0.0984  0.4142 -0.5111
24923SOL    HW179616   0.382   4.857   2.956 -0.6285 -0.4175  2.6458
24923SOL    HW279617   0.329   4.975   2.878  0.9159 -2.4932 -1.7511
24924SOL     OW79618   6.833   7.015   4.652  0.2578  0.5149  0.3406
24924SOL    HW179619   6.897   7.052   4.591  0.7874 -0.5553  0.2355
24924SOL    HW279620   6.772   6.966   4.596  0.6655 -0.3546  0.6478
24925SOL     OW79621   6.835   4.837   2.093  0.1264 -0.0830 -0.2030
24925SOL    HW179622   6.908   4.791   2.133 -0.3939 -1.1668 -0.4733
24925SOL    HW279623   6.869   4.870   2.010  0.0690 -1.4020 -0.7765
24926SOL     OW79624   9.137   5.429   3.046 -0.2443  0.1942 -0.0089
24926SOL    HW179625   9.080   5.399   3.117 -1.5906 -1.2674 -1.6652
24926SOL    HW279626   9.214   5.464   3.091 -1.1979 -0.3824  2.1775
24927SOL     OW79627   6.810   4.266   4.054 -0.3141  0.3145 -0.4844
24927SOL    HW179628   6.746   4.246   4.123  0.1574  0.7845  0.0971
24927SOL    HW279629   6.860   4.340   4.089  1.3996 -0.8747 -0.3813
24928SOL     OW79630   7.506   3.283   3.979 -0.0985  0.4492  0.4413
24928SOL    HW179631   7.581   3.314   4.030  0.4982 -1.2483  0.6204
24928SOL    HW279632   7.433   3.280   4.042 -0.2443  1.7746  0.3455
24929SOL     OW79633   9.275   4.622   2.147  0.3571 -0.5129 -0.1180
24929SOL    HW179634   9.224   4.594   2.072 -1.4319  0.0177  0.8821
24929SOL    HW279635   9.222   4.599   2.223  0.5209  2.1572  0.8529
24930SOL     OW79636   9.977   4.950   2.137  0.5390  0.1617  0.4621
24930SOL    HW179637   9.932   5.015   2.083 -0.6527 -2.1296 -1.4120
24930SOL    HW279638   9.929   4.949   2.219 -0.1227  0.8584  0.0855
24931SOL     OW79639   6.109   2.742   3.023  0.2678  0.2221 -0.9278
24931SOL    HW179640   6.132   2.699   2.941 -2.1794  0.7391 -1.9186
24931SOL    HW279641   6.021   2.777   3.009  0.3696  1.5709  1.4270
24932SOL     OW79642   9.054   5.567   2.321 -0.7865  0.0995 -0.0172
24932SOL    HW179643   9.087   5.512   2.250  1.1342 -0.9299  1.6181
24932SOL    HW279644   9.000   5.633   2.278 -0.3477 -1.0278 -2.3396
24933SOL     OW79645   8.625   4.951   1.786  0.3385  0.1402 -0.3670
24933SOL    HW179646   8.549   4.938   1.729 -0.0252 -0.9104  0.3346
24933SOL    HW279647   8.698   4.915   1.736  0.2719  0.6033 -0.7989
24934SOL     OW79648   7.514   3.701   1.790  0.3856 -0.2435 -0.0010
24934SOL    HW179649   7.606   3.710   1.764  0.6081 -1.0856  0.4765
24934SOL    HW279650   7.510   3.617   1.836 -0.5111  0.0483  0.4712
24935SOL     OW79651   9.509   4.656   2.532  0.1182 -0.4710  0.2660
24935SOL    HW179652   9.501   4.749   2.510 -0.2877 -0.8762 -1.3426
24935SOL    HW279653   9.516   4.655   2.628  3.6406  1.4580  0.1131
24936SOL     OW79654   0.167   4.057   1.408  0.2994  0.1368 -0.1008
24936SOL    HW179655   0.235   4.014   1.460 -0.1616  0.5464  0.8621
24936SOL    HW279656   0.092   3.998   1.412  0.3431  0.0520 -0.5102
24937SOL     OW79657   7.512   4.170   3.875  0.3783 -0.2839 -0.4869
24937SOL    HW179658   7.496   4.211   3.960  0.5822 -0.2612 -0.4604
24937SOL    HW279659   7.607   4.167   3.867  0.3570  0.8127 -1.2370
24938SOL     OW79660   8.842   3.092   2.696 -0.2323  0.3189  0.5990
24938SOL    HW179661   8.895   3.158   2.741  2.7226 -1.7690  0.3348
24938SOL    HW279662   8.867   3.099   2.604 -0.9094 -0.2507  0.3698
24939SOL     OW79663   9.865   4.371   3.847 -0.1055 -0.5631 -0.6686
24939SOL    HW179664   9.886   4.370   3.940  0.1002 -1.2789 -0.7176
24939SOL    HW279665   9.935   4.424   3.807 -0.1457 -0.3317 -0.4304
24940SOL     OW79666   9.938   4.291   4.643  0.0946  0.3458 -0.1155
24940SOL    HW179667   9.961   4.224   4.707  0.0312 -0.5780 -1.0482
24940SOL    HW279668   9.989   4.269   4.565 -0.7751  0.7227 -0.8018
24941SOL     OW79669   8.131   3.547   0.605  0.2858  0.3680  0.2929
24941SOL    HW179670   8.059   3.577   0.661 -0.8104  0.3285 -1.0517
24941SOL    HW279671   8.163   3.627   0.563 -0.0220  0.1917 -0.2904
24942SOL     OW79672   7.359   4.563   3.116  0.4779 -0.1323 -0.1847
24942SOL    HW179673   7.427   4.605   3.169 -0.5375  1.3499 -0.0233
24942SOL    HW279674   7.306   4.636   3.083 -0.5340 -1.2151 -0.9766
24943SOL     OW79675   8.078   5.182   2.314 -0.6569  0.1948 -0.4237
24943SOL    HW179676   8.164   5.210   2.347 -1.8629  0.8444  2.3764
24943SOL    HW279677   8.066   5.232   2.233  1.2783  0.6797 -0.4428
24944SOL     OW79678   8.470   4.960   4.699 -0.6098 -0.8968 -0.3192
24944SOL    HW179679   8.545   5.020   4.697 -0.3067 -1.2473  0.2259
24944SOL    HW279680   8.409   4.995   4.635  0.1127 -0.7222 -0.9196
24945SOL     OW79681   7.934   4.425   2.051  0.6277 -0.0344 -0.2769
24945SOL    HW179682   7.950   4.339   2.011  1.3457 -0.7333  1.4536
24945SOL    HW279683   8.020   4.453   2.082  0.8457  2.4188 -2.8794
24946SOL     OW79684   8.875   5.766   2.282  0.2750  0.5838 -0.5442
24946SOL    HW179685   8.881   5.837   2.346 -3.8705  0.6231 -0.0664
24946SOL    HW279686   8.857   5.810   2.199 -1.1359  0.2238 -0.4543
24947SOL     OW79687   8.420   4.808   3.754 -0.1328  0.5240  0.4591
24947SOL    HW179688   8.391   4.889   3.796  2.9188  2.4979 -1.0029
24947SOL    HW279689   8.390   4.816   3.663 -2.0001 -1.2056  0.8883
24948SOL     OW79690   7.943   5.360   3.120 -0.1880  0.2683  0.1936
24948SOL    HW179691   7.854   5.360   3.085 -0.0181 -3.7689 -0.5023
24948SOL    HW279692   7.998   5.382   3.045 -0.4609  1.0598  0.2177
24949SOL     OW79693   7.279   4.651   0.634  0.5330 -0.3094 -0.7042
24949SOL    HW179694   7.363   4.687   0.604  0.6990  2.0539  2.3333
24949SOL    HW279695   7.296   4.626   0.725 -1.2615 -2.6935 -0.9838
24950SOL     OW79696   0.526   4.176   3.286 -0.0231  0.1733  0.2459
24950SOL    HW179697   0.458   4.212   3.229  0.7439  2.5037  0.7477
24950SOL    HW279698   0.516   4.224   3.369  1.2258 -0.5543  0.8342
24951SOL     OW79699   9.086   4.951   1.937  0.3028 -1.0389  0.0945
24951SOL    HW179700   9.087   4.877   1.876  0.7086 -1.9735  1.2167
24951SOL    HW279701   9.025   5.013   1.898  1.1686 -1.2857 -1.6569
24952SOL     OW79702   7.810   4.333   4.153 -0.6679 -0.2747  0.0408
24952SOL    HW179703   7.894   4.289   4.165 -0.9574 -0.6029  0.8533
24952SOL    HW279704   7.832   4.426   4.144 -0.3411 -0.1597  1.8742
24953SOL     OW79705   9.956   4.240   1.814 -0.2172  0.4216  0.4796
24953SOL    HW179706  10.009   4.270   1.741 -1.0626 -0.0647 -0.3378
24953SOL    HW279707   9.879   4.296   1.813 -0.8451 -0.4347  0.1941
24954SOL     OW79708   0.163   5.327   2.071  0.7975 -0.0160 -0.6976
24954SOL    HW179709   0.181   5.373   1.989  1.9123  1.3383  0.2808
24954SOL    HW279710   0.240   5.271   2.084  1.0829  0.5325 -0.0530
24955SOL     OW79711   7.881   4.665   2.552 -0.0748 -0.2433 -0.2347
24955SOL    HW179712   7.935   4.729   2.504  0.3552 -0.9358 -0.6812
24955SOL    HW279713   7.850   4.605   2.485  0.1455 -0.9460  0.2934
24956SOL     OW79714   9.367   5.943   3.720  0.3800 -0.5749  1.3411
24956SOL    HW179715   9.420   6.018   3.748 -0.6421  0.3741  0.7461
24956SOL    HW279716   9.341   5.901   3.802  1.8667 -0.9483  1.6554
24957SOL     OW79717   6.639   3.834   1.961  0.1261 -0.1447  0.1198
24957SOL    HW179718   6.571   3.770   1.941 -0.3739  0.3152  0.3399
24957SOL    HW279719   6.686   3.796   2.035 -1.8472  0.9627  1.9890
24958SOL     OW79720   9.330   4.830   4.661 -0.2327 -0.3850 -0.8864
24958SOL    HW179721   9.310   4.875   4.580 -0.0440  0.0277 -0.7054
24958SOL    HW279722   9.393   4.887   4.706 -1.2690 -0.0095  0.1193
24959SOL     OW79723   9.152   3.023   1.614  0.2758  0.1040  0.1477
24959SOL    HW179724   9.245   3.001   1.623  0.0057 -1.0475  0.1280
24959SOL    HW279725   9.152   3.111   1.576  1.3631  0.4429  0.9069
24960SOL     OW79726   7.464   4.034   4.534  0.1212 -0.4797  0.5901
24960SOL    HW179727   7.417   4.005   4.612 -0.7654 -1.7644 -0.3882
24960SOL    HW279728   7.532   3.968   4.521 -0.4007 -0.8523 -0.3033
24961SOL     OW79729   8.783   6.068   1.898 -0.3413 -0.1587  0.0050
24961SOL    HW179730   8.877   6.085   1.890 -0.4891  0.3542 -0.7075
24961SOL    HW279731   8.762   6.089   1.989  0.1231  0.2594  0.0159
24962SOL     OW79732   8.272   3.655   4.594 -0.3541 -0.2294 -0.7350
24962SOL    HW179733   8.291   3.612   4.511 -0.0770  1.9214 -1.8292
24962SOL    HW279734   8.226   3.735   4.569 -0.8805  0.1087  1.2306
24963SOL     OW79735   8.490   4.414   2.574 -0.3290 -0.4914 -0.1987
24963SOL    HW179736   8.503   4.403   2.668  0.0539 -2.8124 -0.5016
24963SOL    HW279737   8.564   4.369   2.534 -0.8046 -0.0307 -1.6264
24964SOL     OW79738   8.239   4.802   2.265 -0.1472  0.4183 -0.0172
24964SOL    HW179739   8.269   4.731   2.321  0.6411  1.4519  0.8903
24964SOL    HW279740   8.317   4.855   2.250 -1.1269  2.1737  0.9221
24965SOL     OW79741   7.676   3.739   2.345 -0.5242  0.6011 -0.4929
24965SOL    HW179742   7.633   3.671   2.295  0.8194 -0.7843  0.1954
24965SOL    HW279743   7.605   3.786   2.388 -1.7542  2.0237 -3.8606
24966SOL     OW79744   9.317   4.920   2.120 -0.0157  0.1720  0.2605
24966SOL    HW179745   9.305   4.827   2.138  0.8088 -0.2372 -1.2438
24966SOL    HW279746   9.239   4.946   2.071  0.7327 -0.2454 -1.1840
24967SOL     OW79747   6.507   4.094   1.200 -0.6668 -0.3626  0.0771
24967SOL    HW179748   6.468   4.055   1.278  2.3020 -2.9054  0.3859
24967SOL    HW279749   6.564   4.164   1.233  0.0419 -0.9657  0.1278
24968SOL     OW79750   0.971   4.177   2.517 -0.5068 -0.0497  0.1329
24968SOL    HW179751   0.881   4.147   2.527 -0.3456 -0.9546 -1.0021
24968SOL    HW279752   1.008   4.119   2.450  1.1335 -0.1551  1.1004
24969SOL     OW79753   7.592   3.545   3.779  0.1667 -0.0934  0.1315
24969SOL    HW179754   7.662   3.500   3.732  0.4336  1.0578 -0.5968
24969SOL    HW279755   7.571   3.487   3.852  1.9803 -0.3945  0.4409
24970SOL     OW79756   9.159   6.617   2.829  0.4789 -0.5658 -0.2088
24970SOL    HW179757   9.151   6.526   2.858 -0.9632 -0.7809 -1.1690
24970SOL    HW279758   9.181   6.610   2.736 -0.6614  0.0345 -0.5397
24971SOL     OW79759   6.034   6.122   1.589 -0.1905 -0.4954  0.4821
24971SOL    HW179760   6.081   6.186   1.535 -0.0943  1.3323  2.6870
24971SOL    HW279761   5.953   6.166   1.614 -0.4761 -1.5308  1.3955
24972SOL     OW79762   8.755   6.636   3.165 -0.5990  0.2026 -0.4353
24972SOL    HW179763   8.828   6.662   3.109  2.3011 -1.2799  2.4965
24972SOL    HW279764   8.709   6.569   3.115 -0.7676  2.0352 -2.8362
24973SOL     OW79765   8.059   4.481   1.748 -0.3731 -0.7032  0.1936
24973SOL    HW179766   8.115   4.455   1.674  0.5310  1.3529  0.1464
24973SOL    HW279767   8.120   4.507   1.816 -1.2586  0.1658  0.6568
24974SOL     OW79768   6.360   5.590   2.396 -0.2965  0.6041  0.0153
24974SOL    HW179769   6.275   5.552   2.418 -0.4373 -0.4046 -2.1600
24974SOL    HW279770   6.421   5.517   2.405 -0.1827  0.4772 -1.7418
24975SOL     OW79771   9.031   3.293   2.795  0.4378  0.5027 -0.2424
24975SOL    HW179772   9.094   3.318   2.863  0.5956 -1.1430  0.2495
24975SOL    HW279773   8.946   3.304   2.837  0.5594 -1.3687  0.5707
24976SOL     OW79774   8.012   3.594   2.010 -0.1365  0.1187  0.2706
24976SOL    HW179775   7.971   3.616   1.926 -0.1968  3.9548  1.1926
24976SOL    HW279776   7.940   3.564   2.065 -0.4786 -0.1476 -0.3140
24977SOL     OW79777   7.009   5.411   2.295  0.2384 -0.5009 -0.1094
24977SOL    HW179778   7.093   5.426   2.338 -0.1716 -0.4351  0.6789
24977SOL    HW279779   7.032   5.384   2.206  1.0793  0.5805 -0.2395
24978SOL     OW79780   7.787   4.446   1.676  0.7435  0.5812 -0.0804
24978SOL    HW179781   7.778   4.427   1.583  0.9851  0.3638 -0.0611
24978SOL    HW279782   7.879   4.428   1.695  0.5516  0.0170  0.3364
24979SOL     OW79783   0.353   4.818   1.766 -0.5178 -0.7176  0.3630
24979SOL    HW179784   0.263   4.848   1.782 -0.2776 -0.5698  1.4446
24979SOL    HW279785   0.373   4.762   1.841  0.5301 -0.2097  0.4656
24980SOL     OW79786   7.584   4.493   1.364 -0.1445  0.1133  0.3369
24980SOL    HW179787   7.517   4.451   1.418  0.0140 -1.8062 -0.9313
24980SOL    HW279788   7.661   4.437   1.373  0.2711  0.4840 -0.8874
24981SOL     OW79789   9.168   4.038   2.694 -0.4527 -0.0664 -0.0308
24981SOL    HW179790   9.184   4.102   2.764 -1.3946  0.3544 -0.2054
24981SOL    HW279791   9.256   4.005   2.672 -0.1027  0.1255  1.0337
24982SOL     OW79792   7.177   4.202   1.640  0.0836 -0.6150 -0.1280
24982SOL    HW179793   7.122   4.131   1.671  1.2836 -0.4982  2.3292
24982SOL    HW279794   7.261   4.189   1.683  0.9566  1.1114 -1.2389
24983SOL     OW79795   1.022   5.682   3.652 -0.1969  0.3159  0.4255
24983SOL    HW179796   0.994   5.689   3.743 -1.0187  0.9011  0.1349
24983SOL    HW279797   1.043   5.772   3.626 -0.0032  0.1588  0.0335
24984SOL     OW79798   8.372   5.045   2.840  0.0521 -0.4720 -0.3994
24984SOL    HW179799   8.442   5.040   2.775 -1.4095 -0.0665 -2.0721
24984SOL    HW279800   8.369   5.138   2.864  1.4398 -0.8296  1.2557
24985SOL     OW79801   7.087   4.495   1.699 -0.4631 -0.4275  0.2200
24985SOL    HW179802   7.088   4.423   1.636 -0.1256  0.1551 -0.4503
24985SOL    HW279803   7.026   4.559   1.661  0.9097  0.5967 -0.2857
24986SOL     OW79804   8.284   5.270   2.518 -0.1363  0.2805 -0.3768
24986SOL    HW179805   8.320   5.192   2.476  2.3400  0.6658  0.9278
24986SOL    HW279806   8.333   5.343   2.480 -1.5433  1.0962 -0.6607
24987SOL     OW79807   8.968   4.244   4.576  0.0430 -0.0780 -0.1328
24987SOL    HW179808   9.026   4.169   4.562  1.1983  1.0515 -1.4093
24987SOL    HW279809   8.896   4.230   4.514  1.9399  1.5839 -2.7764
24988SOL     OW79810   8.608   4.646   2.848  1.0952  0.5137 -0.1764
24988SOL    HW179811   8.555   4.723   2.827 -0.4436 -0.2192  0.9123
24988SOL    HW279812   8.651   4.667   2.931  1.2700  0.4884 -0.2602
24989SOL     OW79813   8.170   3.689   2.660 -0.2462 -0.1670 -0.2061
24989SOL    HW179814   8.248   3.721   2.614  0.4848 -2.8899 -0.9488
24989SOL    HW279815   8.204   3.624   2.721 -1.8886 -1.0257 -0.1934
24990SOL     OW79816   7.632   5.372   3.713 -0.1775 -0.0618 -0.0412
24990SOL    HW179817   7.637   5.339   3.803 -0.2890  0.9364  0.3344
24990SOL    HW279818   7.555   5.429   3.713  0.4837  0.8409 -0.4706
24991SOL     OW79819   5.948   6.056   3.046 -0.4187  0.5866 -0.9143
24991SOL    HW179820   5.975   6.004   3.122 -1.3374 -0.5721 -1.3673
24991SOL    HW279821   5.894   6.126   3.083  2.6515  2.6217 -0.0481
24992SOL     OW79822   7.702   4.338   2.562  0.0286  0.3017 -0.3929
24992SOL    HW179823   7.746   4.378   2.487  0.7777  0.4241  0.1071
24992SOL    HW279824   7.730   4.390   2.637 -1.1620  0.5247 -0.0966
24993SOL     OW79825   6.877   3.900   2.779 -0.7887 -0.2339  0.0296
24993SOL    HW179826   6.928   3.873   2.855 -0.6887 -0.2222 -0.0338
24993SOL    HW279827   6.846   3.818   2.741  3.0126 -0.5707 -2.6337
24994SOL     OW79828   8.151   4.385   1.471  0.1895 -0.3112 -0.5437
24994SOL    HW179829   8.223   4.391   1.408  0.2503 -0.9557 -0.5374
24994SOL    HW279830   8.134   4.292   1.480 -1.2172 -0.1385 -1.1954
24995SOL     OW79831   8.667   7.643   2.566 -0.1482  0.4060  0.4157
24995SOL    HW179832   8.641   7.735   2.562 -2.0363 -0.1926 -2.7272
24995SOL    HW279833   8.758   7.642   2.535 -0.4787  1.0800 -0.5650
24996SOL     OW79834   9.014   4.216   3.458 -0.1953  0.3304  0.4303
24996SOL    HW179835   8.969   4.282   3.512 -2.1638 -2.0409  1.7612
24996SOL    HW279836   9.018   4.138   3.514  0.4945 -1.2548 -1.7812
24997SOL     OW79837   8.023   4.912   2.482 -0.3240  0.1475  0.0442
24997SOL    HW179838   8.076   4.932   2.404  0.3530 -1.4124  0.0803
24997SOL    HW279839   8.056   4.972   2.549 -0.0360  0.6253 -0.5204
24998SOL     OW79840   8.553   6.612   4.107  0.3405  0.9500 -0.2009
24998SOL    HW179841   8.556   6.700   4.070 -0.6719  0.0937 -2.4329
24998SOL    HW279842   8.470   6.576   4.076  1.3097 -1.2238 -0.3929
24999SOL     OW79843   8.353   4.409   3.561  0.1724 -0.3313  0.0162
24999SOL    HW179844   8.319   4.321   3.573 -1.0021 -0.0753 -1.2271
24999SOL    HW279845   8.290   4.465   3.607 -0.9690  0.1174 -2.0213
25000SOL     OW79846   8.050   4.405   3.752 -0.5896 -0.2600 -0.4042
25000SOL    HW179847   8.086   4.347   3.818 -1.5342 -0.1644  0.2175
25000SOL    HW279848   8.011   4.347   3.687 -0.6438 -0.3426 -0.2985
25001SOL     OW79849   9.152   3.781   2.773 -0.0689 -0.6805 -0.5777
25001SOL    HW179850   9.220   3.810   2.712  1.7902  1.4344  2.3634
25001SOL    HW279851   9.084   3.848   2.767  0.8348  0.3889  0.7546
25002SOL     OW79852   9.280   3.652   3.244  0.1939  0.1030 -0.2800
25002SOL    HW179853   9.236   3.570   3.223  0.0971  0.1964 -0.4490
25002SOL    HW279854   9.323   3.677   3.162  3.4095 -1.7384  0.7654
25003SOL     OW79855   8.981   4.330   2.703  0.7133 -0.0455 -0.4790
25003SOL    HW179856   8.992   4.256   2.643  0.5532 -1.1394  0.8172
25003SOL    HW279857   8.886   4.343   2.708  0.5010 -2.3143  2.3161
25004SOL     OW79858   8.644   4.288   2.993 -0.8830  0.3765 -0.3703
25004SOL    HW179859   8.674   4.325   2.910 -1.7416 -0.8319 -1.2392
25004SOL    HW279860   8.563   4.243   2.972 -0.4409 -1.0628  0.8624
25005SOL     OW79861   7.062   3.945   1.692  0.0591 -0.3250 -0.7635
25005SOL    HW179862   7.023   3.928   1.606  0.2096 -1.8098 -0.5564
25005SOL    HW279863   7.146   3.899   1.689  0.2674 -0.0012  0.0133
25006SOL     OW79864   7.127   5.121   3.855  0.4326 -0.2106 -0.1022
25006SOL    HW179865   7.137   5.059   3.783  0.5090 -0.4803  0.1400
25006SOL    HW279866   7.204   5.177   3.849 -0.3391  0.7471 -1.1795
25007SOL     OW79867   8.944   4.295   3.903  0.4484  0.3321  0.7547
25007SOL    HW179868   8.994   4.374   3.882 -1.7647  1.7772  0.8134
25007SOL    HW279869   8.856   4.313   3.871 -0.1773 -1.9798  1.1089
25008SOL     OW79870   0.162   5.162   2.414 -0.4913  0.4931 -0.1537
25008SOL    HW179871   0.246   5.191   2.377 -1.4904  2.0279 -1.2996
25008SOL    HW279872   0.169   5.067   2.417  2.3432  0.6967  2.3760
25009SOL     OW79873   5.654   1.786   4.871 -0.6713 -0.2983  0.0842
25009SOL    HW179874   5.720   1.812   4.935  1.0953  0.3595 -1.9719
25009SOL    HW279875   5.622   1.701   4.903  1.6598 -0.9686  0.7109
25010SOL     OW79876   9.604   4.690   3.104  0.0287  0.6914  0.0203
25010SOL    HW179877   9.664   4.641   3.161 -0.2997  0.7720  0.4337
25010SOL    HW279878   9.658   4.762   3.070  0.4500  0.1709 -0.4186
25011SOL     OW79879   7.842   5.982   3.364 -0.0504  0.2445 -0.2596
25011SOL    HW179880   7.919   6.000   3.417  0.3411  0.7026 -0.9645
25011SOL    HW279881   7.858   6.029   3.282 -0.3965 -0.8942 -0.9891
25012SOL     OW79882   0.035   5.223   2.982  0.4125  0.0557 -0.4775
25012SOL    HW179883   0.040   5.178   2.898 -1.0099  1.0010 -1.0893
25012SOL    HW279884   0.124   5.220   3.017  0.3968 -2.9729 -0.6301
25013SOL     OW79885   8.879   3.086   3.026 -0.3703 -0.6291 -0.1071
25013SOL    HW179886   8.807   3.149   3.018  0.4445  0.3112 -0.1440
25013SOL    HW279887   8.840   3.002   3.000 -0.6980  0.3907 -3.1850
25014SOL     OW79888   7.028   4.865   4.323 -0.1590  0.4034  0.3720
25014SOL    HW179889   6.959   4.903   4.378  1.0900  1.9289  0.9123
25014SOL    HW279890   7.017   4.906   4.238 -0.8069 -0.4269  0.0509
25015SOL     OW79891   9.091   2.777   2.513 -0.1133 -0.0812  0.0659
25015SOL    HW179892   9.089   2.727   2.595 -0.8298  0.1881  0.2189
25015SOL    HW279893   9.179   2.814   2.510 -0.0481 -0.1766  0.6685
25016SOL     OW79894   8.727   4.751   1.049 -0.4290  0.4540 -0.2950
25016SOL    HW179895   8.765   4.663   1.044 -0.6755  0.3217  0.1083
25016SOL    HW279896   8.718   4.767   1.143 -3.7041 -0.5476 -0.3718
25017SOL     OW79897   6.789   3.858   2.519 -0.1003 -0.6087 -0.6593
25017SOL    HW179898   6.870   3.868   2.568 -1.1640 -0.2348  1.0796
25017SOL    HW279899   6.774   3.943   2.478 -0.3087 -0.2447  0.1510
25018SOL     OW79900   7.586   3.891   3.170  0.1846 -0.1828 -0.1613
25018SOL    HW179901   7.618   3.929   3.088 -0.5289 -1.1599 -0.8954
25018SOL    HW279902   7.614   3.800   3.167 -0.1665 -0.3159  0.5153
25019SOL     OW79903   8.844   4.787   3.677  0.2039  0.0912 -0.7523
25019SOL    HW179904   8.862   4.861   3.736  2.6662 -0.0929 -1.2003
25019SOL    HW279905   8.905   4.800   3.603 -1.6520 -0.5901 -2.4444
25020SOL     OW79906   8.857   4.444   3.566 -0.0323 -0.9250 -0.1256
25020SOL    HW179907   8.900   4.478   3.645 -1.2736  1.0347 -0.2609
25020SOL    HW279908   8.890   4.500   3.496 -0.8748 -1.0450 -0.6175
25021SOL     OW79909   7.926   3.479   3.367  0.5368  0.5386 -0.0401
25021SOL    HW179910   7.947   3.428   3.446 -1.3001  0.7509  0.5957
25021SOL    HW279911   8.009   3.522   3.345  1.5738 -1.0431  0.6376
25022SOL     OW79912   8.575   5.348   2.924  0.0440  0.2332 -0.8938
25022SOL    HW179913   8.502   5.335   2.986  1.3109 -0.5505  0.4671
25022SOL    HW279914   8.623   5.422   2.960  1.2677 -0.7597 -0.4426
25023SOL     OW79915   7.686   5.157   4.135  0.4021 -0.0957 -0.0122
25023SOL    HW179916   7.771   5.182   4.172  0.7646  0.6735 -1.2939
25023SOL    HW279917   7.643   5.107   4.203  0.6086  2.1589  1.8253
25024SOL     OW79918   9.341   4.700   3.198 -0.2691 -0.4041  0.3653
25024SOL    HW179919   9.432   4.688   3.169 -0.4066 -0.1772 -0.1713
25024SOL    HW279920   9.348   4.757   3.275 -0.0043  0.2096 -0.1052
25025SOL     OW79921   6.648   3.961   1.682 -0.3795 -0.0922 -0.0111
25025SOL    HW179922   6.624   3.958   1.774 -0.2408  0.2081  0.0354
25025SOL    HW279923   6.577   3.915   1.637 -0.3793 -0.3538  0.2583
25026SOL     OW79924   7.402   2.857   3.692 -0.2795 -0.1422  0.4652
25026SOL    HW179925   7.487   2.863   3.648  0.6049 -0.6823  2.0521
25026SOL    HW279926   7.422   2.814   3.775 -2.0356  0.1775  1.0586
25027SOL     OW79927   9.419   4.210   4.662  0.4039  0.0427  0.2731
25027SOL    HW179928   9.417   4.300   4.632 -1.0558  0.1262  0.6027
25027SOL    HW279929   9.370   4.161   4.595  1.4383 -0.5662 -0.0628
25028SOL     OW79930   9.935   3.831   2.681 -0.3997  0.1737  0.2245
25028SOL    HW179931   9.869   3.895   2.708 -1.5936 -1.4791  1.2701
25028SOL    HW279932   9.940   3.841   2.586 -2.6573 -0.1576  0.0515
25029SOL     OW79933   8.735   4.828   3.257  0.0310 -0.7132 -0.3218
25029SOL    HW179934   8.759   4.803   3.346 -1.2339  0.5747  0.4073
25029SOL    HW279935   8.800   4.893   3.232 -0.0771 -0.4904 -0.0317
25030SOL     OW79936   7.083   3.688   4.447  0.1726  0.0069  0.6682
25030SOL    HW179937   7.140   3.616   4.474  0.2566 -0.6912 -1.2786
25030SOL    HW279938   7.124   3.723   4.368 -0.6358  1.2934  0.7981
25031SOL     OW79939   8.164   5.738   3.585  0.4869 -0.1622 -0.3789
25031SOL    HW179940   8.209   5.754   3.668 -2.3694  0.0263  1.1715
25031SOL    HW279941   8.132   5.648   3.592 -0.0652 -0.0322 -1.1385
25032SOL     OW79942   6.199   3.181   3.004 -0.7971  0.4280 -0.6954
25032SOL    HW179943   6.247   3.264   3.001 -2.2380  1.3233  0.3614
25032SOL    HW279944   6.253   3.124   3.059 -0.2283  0.9506 -0.7104
25033SOL     OW79945   5.920   3.327   3.148  0.4581  0.6910 -0.2382
25033SOL    HW179946   5.947   3.343   3.058 -0.8451 -0.3643 -0.8204
25033SOL    HW279947   5.851   3.391   3.165 -1.1187 -0.8031 -0.8650
25034SOL     OW79948   7.759   2.936   2.734 -0.0289 -0.6001 -0.2161
25034SOL    HW179949   7.762   2.957   2.641 -0.3476 -1.0258 -0.3297
25034SOL    HW279950   7.801   3.010   2.777 -0.4599 -0.0953 -0.6513
25035SOL     OW79951   9.739   3.430   2.350  0.1218  0.3440  0.3911
25035SOL    HW179952   9.676   3.502   2.338 -0.4474 -0.2598 -0.3278
25035SOL    HW279953   9.760   3.402   2.262  1.8973  0.9406  0.6125
25036SOL     OW79954   6.371   6.351   3.817 -0.0472  0.0170 -0.7860
25036SOL    HW179955   6.314   6.274   3.816  1.5359 -1.2104  0.8899
25036SOL    HW279956   6.390   6.368   3.725  1.8407 -3.3195 -1.0810
25037SOL     OW79957   9.733   7.188   1.735  0.6102  0.5309 -0.2013
25037SOL    HW179958   9.811   7.225   1.778  0.8430 -1.8663  1.5814
25037SOL    HW279959   9.769   7.126   1.671  0.1809  0.3048 -0.2207
25038SOL     OW79960   9.776   5.216   3.080 -0.2313 -0.0491  0.1507
25038SOL    HW179961   9.741   5.234   2.993 -0.5945  0.6581  0.4423
25038SOL    HW279962   9.871   5.215   3.067 -0.3046 -0.7069 -0.3960
25039SOL     OW79963   7.926   5.352   3.421 -0.6599  0.1038  0.0769
25039SOL    HW179964   7.994   5.288   3.439 -0.5925  0.8525  2.6015
25039SOL    HW279965   7.934   5.369   3.327  1.5949 -0.9893  0.0363
25040SOL     OW79966   8.201   3.283   3.358 -0.0771  0.2238  0.3448
25040SOL    HW179967   8.273   3.233   3.398 -0.5152 -0.7561 -0.0670
25040SOL    HW279968   8.242   3.330   3.285  0.0960 -0.5762 -0.0811
25041SOL     OW79969   8.805   6.014   2.190  0.3757 -0.0239  0.1964
25041SOL    HW179970   8.786   6.039   2.280 -1.1644  1.4695 -0.5225
25041SOL    HW279971   8.894   6.047   2.174  1.3395 -1.7920  1.6759
25042SOL     OW79972   8.655   5.029   3.738  0.1230  0.5372 -0.6210
25042SOL    HW179973   8.680   5.041   3.646  0.4377 -3.1518 -1.1142
25042SOL    HW279974   8.736   5.040   3.787  0.8393 -1.6302 -1.2544
25043SOL     OW79975   6.362   5.043   2.282 -0.4621  0.1534  0.1828
25043SOL    HW179976   6.326   5.044   2.193  0.8624 -0.2334 -0.3699
25043SOL    HW279977   6.451   5.008   2.272 -0.0480  0.7607  1.5619
25044SOL     OW79978   7.346   4.468   2.809 -0.2092 -0.1137  0.2392
25044SOL    HW179979   7.303   4.543   2.851  1.8555  0.3075  1.6970
25044SOL    HW279980   7.331   4.482   2.716 -2.7027  0.3140  0.6667
25045SOL     OW79981   9.566   6.206   4.290 -0.1140  0.4942  0.5153
25045SOL    HW179982   9.602   6.170   4.371 -0.1681 -0.5785  0.0638
25045SOL    HW279983   9.477   6.232   4.313  0.3750  1.6436  1.2034
25046SOL     OW79984   0.110   3.357   2.567 -0.1263 -0.1288  0.1833
25046SOL    HW179985   0.073   3.387   2.485  1.3301 -0.9239 -0.7818
25046SOL    HW279986   0.135   3.438   2.613  0.8644  0.2624 -1.0179
25047SOL     OW79987   8.143   3.626   3.337  0.3644 -0.2216 -0.1308
25047SOL    HW179988   8.236   3.609   3.352  0.8281  2.1112 -0.2043
25047SOL    HW279989   8.136   3.640   3.242 -0.2506 -1.4106 -0.2721
25048SOL     OW79990   9.452   4.918   2.566  0.2989 -0.3391  0.0313
25048SOL    HW179991   9.419   4.977   2.634 -0.5492 -0.2021 -0.4997
25048SOL    HW279992   9.504   4.975   2.509 -0.2397 -0.1697 -0.2900
25049SOL     OW79993   8.334   4.734   3.312 -0.2304  0.9284 -0.9159
25049SOL    HW179994   8.393   4.806   3.292  0.2105  0.8226 -0.0205
25049SOL    HW279995   8.289   4.762   3.392  0.2222  0.0369 -0.3470
25050SOL     OW79996   8.251   3.703   1.167  0.2232 -0.5405  0.4351
25050SOL    HW179997   8.338   3.727   1.136 -0.3309  0.5372 -0.3084
25050SOL    HW279998   8.254   3.717   1.262 -0.2497  3.0805 -0.0287
25051SOL     OW79999   8.723   5.059   5.283 -0.9506 -0.2930 -0.2296
25051SOL    HW180000   8.734   5.154   5.284 -0.2461 -0.3531 -1.2652
25051SOL    HW280001   8.749   5.033   5.195 -1.4083 -1.4209 -0.0422
25052SOL     OW80002   7.915   5.074   2.963  0.1863  0.0396  0.3441
25052SOL    HW180003   7.973   5.149   2.949  1.9872 -1.4950 -0.5154
25052SOL    HW280004   7.943   5.036   3.046  0.8099 -1.0461 -0.3526
25053SOL     OW80005   7.245   6.067   2.797  0.0222 -0.2251 -0.8259
25053SOL    HW180006   7.170   6.017   2.766  0.8517 -0.0386 -3.3107
25053SOL    HW280007   7.211   6.122   2.867 -1.9171 -0.8553 -1.2493
25054SOL     OW80008   8.829   4.577   3.196 -0.2691  0.0154 -0.7122
25054SOL    HW180009   8.805   4.669   3.199  0.1596  0.1904 -2.1501
25054SOL    HW280010   8.917   4.573   3.232  0.8065  0.5852 -3.1670
25055SOL     OW80011   7.426   4.645   3.380 -0.3306 -0.3065  0.4840
25055SOL    HW180012   7.422   4.725   3.431 -2.6018 -0.2423  0.2698
25055SOL    HW280013   7.490   4.590   3.424  0.6338  1.3055  1.0982
25056SOL     OW80014   8.593   4.978   2.702  0.1369 -0.2551  0.0633
25056SOL    HW180015   8.666   5.034   2.730  0.0194  1.1626 -2.3942
25056SOL    HW280016   8.636   4.907   2.654 -0.0443  0.1959 -0.7668
25057SOL     OW80017   7.829   3.807   4.137 -0.8058  0.3365  0.1007
25057SOL    HW180018   7.762   3.873   4.121  0.7436  1.6665 -1.0138
25057SOL    HW280019   7.835   3.758   4.055 -1.3119 -0.6439  0.6304
25058SOL     OW80020   8.998   7.251   2.651 -0.4243  0.0364 -0.3191
25058SOL    HW180021   9.057   7.178   2.635 -0.3401  0.5021 -2.3062
25058SOL    HW280022   9.048   7.311   2.707  0.4989 -0.1856 -0.8934
25059SOL     OW80023   8.336   4.844   1.798 -0.8197 -0.2673 -0.0701
25059SOL    HW180024   8.295   4.776   1.851 -0.7022 -0.4330 -0.1899
25059SOL    HW280025   8.367   4.909   1.861 -0.1419 -0.7606  0.1109
25060SOL     OW80026   8.147   4.398   2.319 -0.5401 -0.4984  0.1681
25060SOL    HW180027   8.189   4.349   2.248 -2.2835 -1.2390 -0.3923
25060SOL    HW280028   8.217   4.450   2.357  0.4435 -0.0805 -2.0950
25061SOL     OW80029   7.386   3.343   1.364  0.4103  0.0262 -0.1999
25061SOL    HW180030   7.356   3.304   1.446 -0.1460 -0.1271 -0.4791
25061SOL    HW280031   7.369   3.276   1.298  1.7812 -0.2418 -0.2902
25062SOL     OW80032   8.438   4.605   1.396 -0.0472  0.2621 -0.9138
25062SOL    HW180033   8.435   4.643   1.309  0.5137  2.2274 -0.1097
25062SOL    HW280034   8.531   4.591   1.414 -0.2749 -1.9650 -1.3840
25063SOL     OW80035   7.208   4.040   3.341  0.1160 -0.7817 -0.1089
25063SOL    HW180036   7.230   3.964   3.287  0.0559 -1.6162  1.0211
25063SOL    HW280037   7.114   4.029   3.359  0.6630 -1.8567  2.2208
25064SOL     OW80038   0.150   5.238   0.606 -0.3973 -0.6286  0.0183
25064SOL    HW180039   0.195   5.157   0.583 -1.2985 -1.3356  0.7011
25064SOL    HW280040   0.082   5.211   0.668 -1.2332  0.5312 -0.3779
25065SOL     OW80041   7.956   4.214   3.589 -0.4646  0.7130 -0.5878
25065SOL    HW180042   8.011   4.164   3.650 -2.0850 -0.9675 -0.4478
25065SOL    HW280043   7.999   4.206   3.505  0.2400  0.5729 -0.2174
25066SOL     OW80044   8.952   5.390   3.261  0.2804 -0.0995 -0.8517
25066SOL    HW180045   8.975   5.317   3.319  0.1464 -2.0792 -3.2332
25066SOL    HW280046   8.856   5.393   3.262  0.2396 -0.9178 -1.9037
25067SOL     OW80047   7.397   6.966   2.572  0.2064 -0.2294 -0.1397
25067SOL    HW180048   7.484   6.926   2.565 -0.4360 -1.8489  0.7909
25067SOL    HW280049   7.409   7.037   2.636  1.4724  1.4793 -2.1977
25068SOL     OW80050   9.150   3.856   2.022  0.0285 -0.5179 -0.8336
25068SOL    HW180051   9.201   3.890   1.948  0.0612 -0.6475 -0.8715
25068SOL    HW280052   9.204   3.786   2.057  0.2453 -0.1209 -0.3716
25069SOL     OW80053   8.239   3.741   0.800  0.3408 -0.6489 -0.7403
25069SOL    HW180054   8.151   3.720   0.831 -0.2494  1.2789 -1.0650
25069SOL    HW280055   8.229   3.823   0.752  2.7721  1.1406  1.6609
25070SOL     OW80056   7.669   4.172   2.153 -0.3832  0.5790 -0.4400
25070SOL    HW180057   7.624   4.252   2.124 -1.4731  0.1325 -0.0041
25070SOL    HW280058   7.607   4.130   2.213 -0.7556 -1.7464 -2.4065
25071SOL     OW80059   9.404   4.198   3.247  0.1985  0.4729  0.6490
25071SOL    HW180060   9.422   4.117   3.295  0.8211  0.9549  1.2372
25071SOL    HW280061   9.383   4.261   3.315 -0.7091  0.7014  0.1599
25072SOL     OW80062   9.932   4.528   2.908 -0.6852 -0.1363 -0.7179
25072SOL    HW180063   9.991   4.542   2.833 -1.1729  1.3730 -0.8449
25072SOL    HW280064   9.980   4.470   2.966  0.6680  0.5354 -1.1382
25073SOL     OW80065   7.539   5.434   1.868  0.1610 -0.0424 -0.2506
25073SOL    HW180066   7.514   5.455   1.779  0.5038  0.1757 -0.2955
25073SOL    HW280067   7.505   5.506   1.920  2.7033  1.4493 -0.5988
25074SOL     OW80068   8.654   5.558   3.100 -0.4496 -0.6392 -0.3180
25074SOL    HW180069   8.567   5.586   3.128  0.7357  2.3838  0.5090
25074SOL    HW280070   8.685   5.501   3.170 -1.3230 -0.8343 -0.0893
25075SOL     OW80071   8.908   5.361   2.881  0.3163  0.2996  0.5687
25075SOL    HW180072   8.992   5.337   2.920  1.0670  2.5527  0.4398
25075SOL    HW280073   8.883   5.285   2.829  3.8452  0.7420 -1.9561
25076SOL     OW80074   8.422   5.641   3.204 -0.1077 -0.5598 -0.0569
25076SOL    HW180075   8.335   5.599   3.208 -0.1901 -0.2181  1.8109
25076SOL    HW280076   8.434   5.680   3.290  1.3591  0.5305 -0.7440
25077SOL     OW80077   7.640   7.135   3.636 -0.3423  0.1483  0.0573
25077SOL    HW180078   7.548   7.123   3.661 -0.0934 -0.7687  0.5406
25077SOL    HW280079   7.689   7.081   3.698  0.4963  0.2747 -0.4907
25078SOL     OW80080   6.959   4.365   1.116  0.5734 -0.3793 -0.0892
25078SOL    HW180081   6.957   4.458   1.093  0.7836 -0.5518 -0.8094
25078SOL    HW280082   6.974   4.320   1.033  0.3811 -1.0628  0.2444
25079SOL     OW80083   8.697   4.405   2.759 -0.1738 -0.1795  0.4569
25079SOL    HW180084   8.735   4.421   2.672  0.4509 -0.6120  0.6457
25079SOL    HW280085   8.662   4.490   2.785 -0.6125 -0.1105 -0.3393
25080SOL     OW80086   7.723   4.011   1.885  0.3789 -0.2309 -0.1898
25080SOL    HW180087   7.711   3.921   1.854  0.6079  0.5457 -2.6013
25080SOL    HW280088   7.697   4.066   1.811  0.7370  1.7006  1.0805
25081SOL     OW80089   0.733   4.175   4.175  0.1240 -0.0509  0.2908
25081SOL    HW180090   0.823   4.167   4.145  0.3877  0.1112  1.0344
25081SOL    HW280091   0.686   4.211   4.100  0.5342 -0.8090 -0.3402
25082SOL     OW80092   6.634   5.897   2.378  0.0943  0.1154  0.0820
25082SOL    HW180093   6.585   5.869   2.301 -1.6964  1.1528  0.8245
25082SOL    HW280094   6.720   5.923   2.343 -0.0278 -1.2332 -1.2915
25083SOL     OW80095   8.436   5.292   2.139 -0.3242 -0.1567  0.2821
25083SOL    HW180096   8.452   5.320   2.229 -0.3661 -1.3926  0.6805
25083SOL    HW280097   8.378   5.359   2.103 -0.4593  0.2390  1.2353
25084SOL     OW80098   7.228   2.516   1.297 -0.7368 -0.0605 -0.9622
25084SOL    HW180099   7.236   2.458   1.221 -1.4795 -0.1784 -0.9526
25084SOL    HW280100   7.158   2.477   1.350  1.7422 -1.6481  1.2864
25085SOL     OW80101   8.020   4.434   2.791  0.2713  0.1273  0.2786
25085SOL    HW180102   7.988   4.461   2.877 -0.3084 -0.8831  0.3896
25085SOL    HW280103   8.084   4.501   2.767  0.3026  0.5151  1.4100
25086SOL     OW80104   8.108   5.009   1.743  0.3260 -0.1801  0.1080
25086SOL    HW180105   8.195   5.020   1.704  0.2700 -1.4781 -0.4217
25086SOL    HW280106   8.075   4.928   1.704 -0.4598 -0.5607  1.5561
25087SOL     OW80107   7.910   4.634   3.690  0.7565 -0.6470  0.7677
25087SOL    HW180108   7.866   4.587   3.620  0.4690 -0.1057  0.5865
25087SOL    HW280109   7.997   4.593   3.696  0.8105 -0.6329  0.0434
25088SOL     OW80110   9.261   3.393   2.191  0.2329 -0.4934 -0.1865
25088SOL    HW180111   9.250   3.346   2.108 -0.0052  0.4379 -0.6889
25088SOL    HW280112   9.176   3.383   2.235 -0.1762  0.3410 -0.7591
25089SOL     OW80113   8.602   4.507   2.311 -0.1904  0.2459 -0.1211
25089SOL    HW180114   8.543   4.505   2.385  0.7658  0.5057  0.6605
25089SOL    HW280115   8.601   4.418   2.276 -1.0433  0.2564 -0.1148
25090SOL     OW80116   8.341   3.471   2.776  0.0333  0.1731  0.2514
25090SOL    HW180117   8.392   3.510   2.705  0.5058  1.5271  1.3130
25090SOL    HW280118   8.406   3.445   2.841 -0.5751  1.2566  1.3030
25091SOL     OW80119   7.179   5.409   0.333  0.2930  0.6477  0.5512
25091SOL    HW180120   7.129   5.464   0.394 -0.5345  0.6456 -0.1142
25091SOL    HW280121   7.206   5.333   0.385 -0.3204  0.6955  0.9424
25092SOL     OW80122   7.837   5.004   2.293  0.3922  0.8149  1.1927
25092SOL    HW180123   7.903   5.071   2.308  1.4593  0.5303 -1.9289
25092SOL    HW280124   7.886   4.924   2.280 -0.7251  0.0709  1.4762
25093SOL     OW80125   8.742   4.836   4.072 -0.3352  0.0758  0.3083
25093SOL    HW180126   8.674   4.899   4.048 -0.4323  0.3662  1.3294
25093SOL    HW280127   8.822   4.873   4.036 -0.3298  0.9901  1.2172
25094SOL     OW80128   8.190   4.725   5.374  0.5649 -0.4926  0.3378
25094SOL    HW180129   8.180   4.630   5.368 -0.8952 -0.4364  1.5333
25094SOL    HW280130   8.280   4.742   5.347  0.2048 -2.0015 -1.9522
25095SOL     OW80131   7.016   3.788   2.990 -0.3754  0.0070 -0.2330
25095SOL    HW180132   7.075   3.720   3.023 -0.5123 -0.1929 -0.4035
25095SOL    HW280133   7.032   3.863   3.048  0.4363  0.1353 -0.6113
25096SOL     OW80134   7.360   3.745   5.324 -0.7596  0.2261 -0.2856
25096SOL    HW180135   7.265   3.745   5.331 -0.6801 -1.4520  1.3878
25096SOL    HW280136   7.391   3.754   5.414  0.6432 -0.4373 -0.6795
25097SOL     OW80137   8.202   4.524   5.898  0.2470  0.1020  0.5291
25097SOL    HW180138   8.109   4.543   5.905 -0.0998 -0.6866 -1.6069
25097SOL    HW280139   8.220   4.464   5.971 -0.8135  0.5601  1.1773
25098SOL     OW80140   0.653   4.238   5.033  0.2426 -0.0620  0.0399
25098SOL    HW180141   0.693   4.168   4.982 -1.1788  1.1063 -2.8390
25098SOL    HW280142   0.719   4.307   5.034 -0.8484  1.1253 -3.0568
25099SOL     OW80143   8.385   5.411   5.377  0.1363  0.0109  0.5942
25099SOL    HW180144   8.448   5.471   5.337 -2.2034  2.3214  0.3348
25099SOL    HW280145   8.342   5.368   5.303 -2.5199  2.5615  0.5801
25100SOL     OW80146   8.786   6.152   6.102  0.0080 -0.1024 -0.0672
25100SOL    HW180147   8.704   6.105   6.116 -0.3442  0.3972 -0.4470
25100SOL    HW280148   8.766   6.243   6.120  0.8266 -0.1589  1.1718
25101SOL     OW80149   7.534   5.722   5.625 -0.0387  0.0114 -0.2372
25101SOL    HW180150   7.629   5.710   5.618 -0.0731  0.8854 -3.0558
25101SOL    HW280151   7.508   5.752   5.538 -2.8758  0.0495  0.5837
25102SOL     OW80152   8.706   4.678   7.063  0.0050  0.0702 -0.0891
25102SOL    HW180153   8.659   4.676   7.147 -0.0966 -0.9777 -0.1694
25102SOL    HW280154   8.760   4.757   7.069  0.2468 -0.1643  1.0938
25103SOL     OW80155   7.512   5.507   4.230 -0.2736  0.5337  0.4066
25103SOL    HW180156   7.545   5.595   4.249  4.2935 -0.8574 -0.5909
25103SOL    HW280157   7.534   5.456   4.307 -0.7628 -0.2775  0.0125
25104SOL     OW80158   8.699   4.883   4.989 -0.4002  0.0126  0.0544
25104SOL    HW180159   8.777   4.938   4.981 -0.4976 -0.1534 -2.5781
25104SOL    HW280160   8.630   4.944   5.014  0.1802  0.4993  0.4880
25105SOL     OW80161   9.590   3.465   4.495  0.4745 -0.0833 -0.2620
25105SOL    HW180162   9.536   3.486   4.419  0.6945 -1.7478 -0.8875
25105SOL    HW280163   9.535   3.407   4.548  0.9507 -0.2799  0.0166
25106SOL     OW80164   6.681   4.653   4.207  0.4973  0.1733 -0.0315
25106SOL    HW180165   6.593   4.689   4.216 -0.1388 -1.7972  2.1645
25106SOL    HW280166   6.732   4.698   4.275  0.4805 -0.6609  0.5491
25107SOL     OW80167   8.297   5.152   6.504 -0.2131  0.4708  0.0536
25107SOL    HW180168   8.320   5.167   6.595  0.2486 -1.8215  0.3557
25107SOL    HW280169   8.281   5.057   6.499 -0.6368  0.6347 -2.1404
25108SOL     OW80170   7.804   4.857   4.879  0.2011  0.2475 -0.0590
25108SOL    HW180171   7.840   4.913   4.811 -0.2145  0.2621 -0.2731
25108SOL    HW280172   7.805   4.911   4.958 -0.1979  0.5609 -0.2649
25109SOL     OW80173   5.377   5.180   1.822  0.1432  0.3369  0.3979
25109SOL    HW180174   5.324   5.197   1.899  1.2977  1.0548  1.0504
25109SOL    HW280175   5.314   5.161   1.753 -0.9693  1.7962  1.0036
25110SOL     OW80176   6.837   4.980   4.492  0.0274  0.8592 -0.1713
25110SOL    HW180177   6.825   5.075   4.495  0.3421  0.9308 -1.0436
25110SOL    HW280178   6.849   4.955   4.583  0.0964  1.6775  0.0507
25111SOL     OW80179   8.645   4.667   3.855 -0.2027  0.0168 -0.3622
25111SOL    HW180180   8.712   4.726   3.820 -0.0574  0.1808  0.1923
25111SOL    HW280181   8.562   4.712   3.837 -0.3074 -1.0486 -2.7463
25112SOL     OW80182   6.908   4.919   1.266  0.3745 -0.2428  0.0821
25112SOL    HW180183   6.992   4.957   1.292  1.3218 -1.2424 -1.4628
25112SOL    HW280184   6.931   4.838   1.221 -1.3733 -0.1236 -1.0596
25113SOL     OW80185   0.647   7.237   4.066  0.2008 -0.1466 -0.4231
25113SOL    HW180186   0.647   7.141   4.068 -2.7886 -0.2656 -2.8521
25113SOL    HW280187   0.709   7.262   4.135  0.9369 -3.8027  0.3576
25114SOL     OW80188   7.377   3.662   2.444  0.1380 -0.1316  0.0229
25114SOL    HW180189   7.297   3.612   2.430  0.0066  0.0694  0.0534
25114SOL    HW280190   7.443   3.616   2.392  0.3420 -1.1501  1.1798
25115SOL     OW80191   0.118   3.689   4.435  0.0593 -0.5773  0.1158
25115SOL    HW180192   0.078   3.774   4.455 -0.2230 -0.5674 -0.4876
25115SOL    HW280193   0.196   3.686   4.491 -0.7008 -0.5341  1.1984
25116SOL     OW80194   9.103   3.460   4.815  0.1045 -0.2734  0.3069
25116SOL    HW180195   9.120   3.397   4.885  1.4866 -2.1376 -1.6397
25116SOL    HW280196   9.055   3.411   4.749  0.1826  1.0368 -0.7537
25117SOL     OW80197   6.918   3.646   5.462  0.1173  0.3050  0.8098
25117SOL    HW180198   6.956   3.727   5.428  2.4381 -0.6023  1.1264
25117SOL    HW280199   6.885   3.601   5.384 -0.5482  1.2246  0.5523
25118SOL     OW80200   9.245   5.222   5.464  0.1180  0.3642  0.3724
25118SOL    HW180201   9.296   5.151   5.504 -0.7867 -1.9420 -2.3458
25118SOL    HW280202   9.307   5.266   5.405  0.6386  1.7605  1.9479
25119SOL     OW80203   0.054   6.281   5.837  0.0687 -0.3823 -0.0485
25119SOL    HW180204  -0.026   6.333   5.844  0.0564 -0.6268  1.9103
25119SOL    HW280205   0.022   6.190   5.832  0.1799 -0.3809 -0.8190
25120SOL     OW80206   7.454   3.932   4.167 -0.2984 -0.4666  0.8136
25120SOL    HW180207   7.474   3.888   4.250 -2.1508 -0.5432  1.2447
25120SOL    HW280208   7.534   3.979   4.145  0.4530 -1.0244  2.2792
25121SOL     OW80209   8.457   4.451   1.946  0.4429  0.4647 -0.4788
25121SOL    HW180210   8.545   4.430   1.917  0.1576 -1.4433 -0.0523
25121SOL    HW280211   8.470   4.505   2.025  1.2637 -1.2341  0.5856
25122SOL     OW80212   8.056   5.737   4.724  0.3530 -0.1235  0.3086
25122SOL    HW180213   8.026   5.827   4.718 -0.3700 -0.3432  0.5285
25122SOL    HW280214   8.078   5.712   4.634 -0.3036 -0.0139  0.1154
25123SOL     OW80215   6.929   7.741   4.327 -0.3688 -0.3309 -0.2174
25123SOL    HW180216   6.970   7.723   4.242 -1.2069  1.2384 -0.9614
25123SOL    HW280217   6.873   7.665   4.343 -1.6563  0.2338 -1.9654
25124SOL     OW80218   0.897   4.630   4.374  0.5455  0.0439 -0.7049
25124SOL    HW180219   0.924   4.714   4.412  0.0864 -0.2653  0.3193
25124SOL    HW280220   0.862   4.653   4.287 -0.9823  1.1076  0.1642
25125SOL     OW80221   9.928   4.578   3.526  0.7485  0.0896  0.4042
25125SOL    HW180222   9.854   4.630   3.555 -0.9772 -1.6098 -0.7732
25125SOL    HW280223   9.915   4.492   3.566  1.1945 -0.6982 -1.0685
25126SOL     OW80224   8.446   4.430   5.273  0.2734 -0.3054 -0.4114
25126SOL    HW180225   8.441   4.334   5.276  1.9804 -0.3985  2.8545
25126SOL    HW280226   8.360   4.460   5.301 -0.2670 -0.9013 -1.4473
25127SOL     OW80227   6.983   5.634   3.471  0.2067  0.2152 -0.2636
25127SOL    HW180228   6.992   5.541   3.452 -1.3302  0.2656 -1.3018
25127SOL    HW280229   7.005   5.678   3.390  2.3753  0.8464  0.6381
25128SOL     OW80230   8.903   4.237   5.782 -0.1559 -0.3871 -0.7547
25128SOL    HW180231   8.856   4.155   5.769 -1.4543  0.4560 -1.4820
25128SOL    HW280232   8.957   4.247   5.704  0.7390 -1.0252 -0.2232
25129SOL     OW80233   8.496   4.014   4.004  0.0606 -0.0567 -0.3704
25129SOL    HW180234   8.486   3.921   4.022 -1.4829 -0.7159 -4.1332
25129SOL    HW280235   8.407   4.046   3.989  0.7601  1.5277 -1.3110
25130SOL     OW80236   8.352   3.737   2.320 -0.6281 -0.0884  0.0956
25130SOL    HW180237   8.402   3.791   2.382 -1.0540  1.7969 -1.1952
25130SOL    HW280238   8.266   3.778   2.315 -0.4752  0.0318 -2.0572
25131SOL     OW80239   9.593   4.974   4.309 -0.4739 -0.6766  0.1662
25131SOL    HW180240   9.548   4.961   4.226 -0.0033  3.2096 -0.8202
25131SOL    HW280241   9.684   4.950   4.292  0.1704  2.4909 -1.2947
25132SOL     OW80242   9.674   3.528   5.500 -0.2225  0.2289  0.3259
25132SOL    HW180243   9.757   3.572   5.486 -0.5670  0.3452 -1.4525
25132SOL    HW280244   9.676   3.501   5.592  3.1858 -2.7591 -0.5741
25133SOL     OW80245   0.561   4.039   4.826  0.4783  0.3706 -0.4763
25133SOL    HW180246   0.500   4.068   4.893 -0.6463 -0.6765 -1.0439
25133SOL    HW280247   0.565   4.112   4.764 -0.8820  0.0811 -0.9065
25134SOL     OW80248   0.777   4.226   3.589  0.6529  0.0227 -0.1845
25134SOL    HW180249   0.791   4.281   3.512  0.0786  0.8994  0.3310
25134SOL    HW280250   0.777   4.137   3.554  1.2516  0.3556 -1.0758
25135SOL     OW80251   7.239   2.355   2.676 -0.2491 -0.0203  0.1942
25135SOL    HW180252   7.236   2.429   2.736 -2.0146  1.1299 -1.2642
25135SOL    HW280253   7.311   2.375   2.616  1.7745 -1.3561  2.0718
25136SOL     OW80254   9.699   5.297   6.137  0.3378 -0.2019  0.2389
25136SOL    HW180255   9.749   5.359   6.084 -1.1141  0.9055  0.1197
25136SOL    HW280256   9.608   5.326   6.128 -0.0885 -0.8583  2.1838
25137SOL     OW80257   7.293   6.945   4.704 -0.0290 -0.1038 -0.3517
25137SOL    HW180258   7.309   6.858   4.667 -1.9869 -0.8709  0.5192
25137SOL    HW280259   7.254   6.995   4.632  3.3701  0.8715 -1.6036
25138SOL     OW80260   8.941   6.518   3.871  0.4680 -0.7502  0.4918
25138SOL    HW180261   8.970   6.555   3.788  1.3327  0.6229  1.3841
25138SOL    HW280262   8.845   6.516   3.864  0.3972  1.6067  0.3650
25139SOL     OW80263   9.779   4.772   6.451  0.3276  0.0378 -0.0997
25139SOL    HW180264   9.729   4.852   6.434  0.2526 -0.2609 -1.2723
25139SOL    HW280265   9.765   4.717   6.374  1.4320 -0.5808  0.1316
25140SOL     OW80266   6.349   2.888   3.091 -0.2916 -0.1445 -0.1552
25140SOL    HW180267   6.346   2.884   3.186  1.4027  1.8548  0.0230
25140SOL    HW280268   6.273   2.838   3.062 -1.1338 -0.3113  2.2581
25141SOL     OW80269   7.703   4.171   4.883  0.8110  0.5507 -0.1497
25141SOL    HW180270   7.654   4.175   4.965  0.4522  2.9676 -0.4602
25141SOL    HW280271   7.722   4.078   4.871  0.0681  0.0796  2.1911
25142SOL     OW80272   8.209   5.517   3.965  0.6229 -0.7006 -0.5524
25142SOL    HW180273   8.256   5.557   3.891 -3.3224  0.0508 -2.7603
25142SOL    HW280274   8.224   5.423   3.955  1.8817 -0.4600 -1.0223
25143SOL     OW80275   6.057   4.453   2.789  0.3508  0.1559  0.4043
25143SOL    HW180276   6.146   4.468   2.821  0.0306 -0.1422  1.4439
25143SOL    HW280277   6.006   4.526   2.825  0.3992  1.0095 -1.1827
25144SOL     OW80278   9.268   3.975   4.825  0.1232 -0.1443  0.6312
25144SOL    HW180279   9.257   3.884   4.799 -0.5043 -0.2359  1.2008
25144SOL    HW280280   9.197   4.022   4.781  0.7998  0.1784 -0.1469
25145SOL     OW80281   9.157   4.776   3.655  0.3955 -0.9155 -0.1422
25145SOL    HW180282   9.214   4.806   3.584 -1.2130  0.0557 -1.0457
25145SOL    HW280283   9.148   4.853   3.712 -0.2448 -0.9878 -0.1448
25146SOL     OW80284   8.816   4.226   3.286  0.2211  0.7141 -0.1760
25146SOL    HW180285   8.774   4.141   3.287 -0.9356  1.2841  0.3646
25146SOL    HW280286   8.890   4.217   3.345 -0.3418  0.3095  0.4704
25147SOL     OW80287   8.713   7.461   4.812 -0.4751 -0.3961  0.5991
25147SOL    HW180288   8.776   7.395   4.781 -0.8315  0.1693 -1.3579
25147SOL    HW280289   8.745   7.544   4.777 -0.9601  0.2553  1.6651
25148SOL     OW80290   7.440   5.782   5.380 -0.3205  0.1303 -0.3005
25148SOL    HW180291   7.457   5.871   5.412 -0.4836 -0.4204  1.4157
25148SOL    HW280292   7.488   5.776   5.297  2.0438  0.9042  0.9459
25149SOL     OW80293   7.401   4.073   3.576  0.1193 -0.1410 -0.0298
25149SOL    HW180294   7.475   4.075   3.515  0.1901  1.3683  0.0973
25149SOL    HW280295   7.323   4.072   3.520  0.2124 -1.6187 -0.1619
25150SOL     OW80296   8.449   5.833   5.429 -0.2800 -0.4151  0.0712
25150SOL    HW180297   8.482   5.775   5.497  1.5903  2.0609  1.3662
25150SOL    HW280298   8.489   5.802   5.348  1.8052 -0.1383  0.9598
25151SOL     OW80299   8.027   3.035   4.371  0.2606 -0.0587 -0.2336
25151SOL    HW180300   8.058   2.972   4.306 -0.9291  0.0694 -0.9511
25151SOL    HW280301   7.946   2.998   4.404  1.5720 -0.8122  2.2614
25152SOL     OW80302   9.023   4.436   4.767  0.5263  0.3630  0.2367
25152SOL    HW180303   9.018   4.363   4.705 -0.1991 -0.2652  1.0329
25152SOL    HW280304   9.112   4.469   4.757  0.3212  0.4908 -1.3886
25153SOL     OW80305   9.339   3.534   5.259 -0.3394 -0.2085  0.1739
25153SOL    HW180306   9.263   3.530   5.201  0.8986  0.7676 -1.5730
25153SOL    HW280307   9.321   3.608   5.316 -1.2590 -0.7463  0.5953
25154SOL     OW80308   8.124   5.081   5.020 -0.0140  0.2731  0.3300
25154SOL    HW180309   8.139   5.126   4.936 -0.3258 -0.6707 -0.2388
25154SOL    HW280310   8.174   4.999   5.012 -0.6964 -0.1850  0.7465
25155SOL     OW80311   9.172   6.065   6.560 -0.1901 -0.0489 -0.4330
25155SOL    HW180312   9.217   6.140   6.597  0.2532  0.2530 -1.5531
25155SOL    HW280313   9.213   5.989   6.602  1.0213  0.2453 -1.0416
25156SOL     OW80314   8.708   4.076   2.534  0.6274 -0.4482 -0.1235
25156SOL    HW180315   8.678   4.017   2.604  0.6097 -0.4513 -0.1333
25156SOL    HW280316   8.803   4.065   2.532  0.6216 -0.4943 -0.1416
25157SOL     OW80317   6.296   2.229   5.369  0.2310  0.1876 -0.5260
25157SOL    HW180318   6.247   2.278   5.436  1.3145 -1.3852  1.4856
25157SOL    HW280319   6.236   2.160   5.341 -0.0088  0.4778 -0.7277
25158SOL     OW80320   9.086   1.807   2.662  0.2932  0.1764 -0.0741
25158SOL    HW180321   9.046   1.879   2.711  1.1365 -0.1547  1.1441
25158SOL    HW280322   9.033   1.799   2.583 -0.0521  1.8811 -0.0453
25159SOL     OW80323   8.920   3.229   8.073  0.5999  0.5059 -0.2238
25159SOL    HW180324   8.922   3.322   8.047  1.6014  0.5201 -0.1137
25159SOL    HW280325   8.998   3.218   8.127 -0.4853  0.0335  1.2921
25160SOL     OW80326   8.345   4.698   4.644  0.1223  0.4427  0.8654
25160SOL    HW180327   8.440   4.696   4.641  0.0670 -0.9784 -0.9811
25160SOL    HW280328   8.324   4.706   4.737  2.0199 -3.2025  1.7141
25161SOL     OW80329   8.434   4.515   3.163  0.4842 -0.4746 -0.2319
25161SOL    HW180330   8.385   4.446   3.209 -0.3045 -0.2492 -0.7395
25161SOL    HW280331   8.431   4.590   3.223  0.5509 -0.5839 -0.0899
25162SOL     OW80332   9.199   5.094   5.778  0.3511  0.8157 -0.3290
25162SOL    HW180333   9.247   5.011   5.774  1.5498  1.2935  2.8535
25162SOL    HW280334   9.265   5.160   5.757 -0.2830  1.0751 -1.5347
25163SOL     OW80335   7.868   4.317   3.234 -0.2577  0.4246 -0.3009
25163SOL    HW180336   7.924   4.394   3.224 -1.3135  1.7524  3.1353
25163SOL    HW280337   7.928   4.246   3.255  0.3364  1.4698  1.6682
25164SOL     OW80338   0.164   3.666   5.252  0.0947 -0.1298  0.1352
25164SOL    HW180339   0.247   3.619   5.262  0.7522  0.8004 -0.8805
25164SOL    HW280340   0.097   3.601   5.275  1.0696 -1.0314  0.4831
25165SOL     OW80341   9.143   4.358   4.332  0.0910 -0.2237  0.0789
25165SOL    HW180342   9.050   4.337   4.330 -0.1441  0.7601  0.6852
25165SOL    HW280343   9.161   4.402   4.250 -0.0374 -0.1451  0.0948
25166SOL     OW80344   8.901   4.055   3.720 -0.3689  0.2671  0.0856
25166SOL    HW180345   8.808   4.070   3.740  0.0383 -0.5130  2.8014
25166SOL    HW280346   8.900   3.990   3.650 -1.8991  0.1860  0.1601
25167SOL     OW80347   8.750   3.805   4.204  0.2418 -0.0216 -0.1535
25167SOL    HW180348   8.668   3.762   4.227  0.1159  1.1386  1.6944
25167SOL    HW280349   8.815   3.735   4.203 -0.9847 -1.2017 -3.0978
25168SOL     OW80350   8.317   5.258   3.998  0.3250  0.2962 -0.2156
25168SOL    HW180351   8.409   5.232   3.989 -0.0382 -1.0682 -0.1786
25168SOL    HW280352   8.270   5.204   3.934 -0.6767 -0.3991  1.0672
25169SOL     OW80353   9.271   3.774   4.433  0.2799 -0.6531 -0.5429
25169SOL    HW180354   9.284   3.818   4.350 -0.9110  0.3523 -0.2180
25169SOL    HW280355   9.187   3.729   4.424  0.0983 -0.4690  0.1287
25170SOL     OW80356   9.212   4.334   3.722 -0.2659  0.1151  0.1290
25170SOL    HW180357   9.289   4.355   3.668 -0.8777 -0.0764 -0.8440
25170SOL    HW280358   9.153   4.409   3.709 -0.8432 -0.4036 -0.2840
25171SOL     OW80359   8.639   2.079   4.526  0.0675  0.8845 -0.0957
25171SOL    HW180360   8.547   2.103   4.525 -0.0761  0.3445 -0.0339
25171SOL    HW280361   8.685   2.160   4.549 -0.4468  0.9922  0.5826
25172SOL     OW80362   0.029   4.573   6.362  0.1054 -0.1766 -0.0196
25172SOL    HW180363   0.096   4.573   6.295 -0.6332  0.8689 -0.7713
25172SOL    HW280364  -0.028   4.500   6.339 -0.2686  0.3124 -0.6630
25173SOL     OW80365   8.255   5.859   6.453  0.7217  0.3235 -0.0251
25173SOL    HW180366   8.264   5.764   6.454 -1.1795  0.1336 -0.0177
25173SOL    HW280367   8.197   5.878   6.527 -0.3098  1.3239 -1.0774
25174SOL     OW80368   7.719   4.889   6.238  0.5833  0.1528 -0.0261
25174SOL    HW180369   7.813   4.882   6.222  0.8962  0.0770  1.7100
25174SOL    HW280370   7.690   4.798   6.250  0.1125  0.1077 -1.4632
25175SOL     OW80371   8.680   4.642   5.103 -0.1579  0.2739  0.1282
25175SOL    HW180372   8.772   4.620   5.087 -0.6539 -1.6898 -0.2459
25175SOL    HW280373   8.669   4.728   5.063  0.9426 -0.5191 -1.9647
25176SOL     OW80374   0.702   5.449   5.164  0.5993 -0.1602  0.6496
25176SOL    HW180375   0.642   5.477   5.095  0.7053  0.0948  0.6606
25176SOL    HW280376   0.652   5.387   5.217  0.8117 -1.0848 -0.2100
25177SOL     OW80377   6.385   3.378   4.979 -0.3857  0.4760  0.1933
25177SOL    HW180378   6.304   3.342   4.944  0.2814 -1.8055  0.8947
25177SOL    HW280379   6.419   3.433   4.909 -0.9480 -1.0808 -1.3446
25178SOL     OW80380   8.594   4.609   6.204 -0.0463 -0.1575 -0.1242
25178SOL    HW180381   8.529   4.549   6.167 -0.0129 -1.3071  1.5869
25178SOL    HW280382   8.626   4.660   6.130 -2.8014  0.3403 -1.0215
25179SOL     OW80383   6.029   7.337   3.500  0.5984  0.2994 -0.3013
25179SOL    HW180384   5.968   7.408   3.523 -0.0893 -0.8405  1.5316
25179SOL    HW280385   6.001   7.309   3.413 -0.5795  0.7645 -0.0846
25180SOL     OW80386   7.591   4.248   4.368 -0.0594 -0.1071  0.0640
25180SOL    HW180387   7.581   4.170   4.422 -2.5801  0.7761  0.9850
25180SOL    HW280388   7.653   4.303   4.415 -1.5554  0.2640  1.6729
25181SOL     OW80389   8.166   6.045   5.013  0.2171 -0.2152  0.0374
25181SOL    HW180390   8.187   6.033   5.105  0.5949  3.6149  0.5506
25181SOL    HW280391   8.239   6.097   4.979 -0.2490 -1.0087 -2.2659
25182SOL     OW80392   7.857   4.713   4.339 -0.0852 -0.0048 -1.1302
25182SOL    HW180393   7.904   4.758   4.409  0.5917 -0.0379 -1.5580
25182SOL    HW280394   7.780   4.677   4.381 -0.5074  1.3418 -0.7301
25183SOL     OW80395   7.323   4.542   2.553  0.1769 -0.4192  0.1079
25183SOL    HW180396   7.259   4.608   2.529  0.1349 -0.7338 -0.6513
25183SOL    HW280397   7.317   4.476   2.484  1.2389 -0.5014  0.0878
25184SOL     OW80398   7.548   4.907   4.210 -0.2471 -0.4171 -0.5058
25184SOL    HW180399   7.580   4.861   4.288 -1.8088  0.9842  1.0141
25184SOL    HW280400   7.619   4.899   4.147  0.0500 -3.7618  0.1527
25185SOL     OW80401   8.169   4.683   4.218  0.1727  0.3968 -0.3197
25185SOL    HW180402   8.128   4.765   4.192 -1.8933 -0.4306  0.2509
25185SOL    HW280403   8.192   4.641   4.136  0.9020  1.3688 -0.6228
25186SOL     OW80404   0.177   4.718   3.290 -0.3207 -0.5718  0.1910
25186SOL    HW180405   0.180   4.624   3.303  3.4701 -0.5276  0.3839
25186SOL    HW280406   0.267   4.747   3.309 -1.3942  3.0464  0.0823
25187SOL     OW80407   8.055   4.624   7.015 -0.3663 -0.6950 -0.4705
25187SOL    HW180408   8.079   4.682   7.087 -1.2122 -0.9556  0.0344
25187SOL    HW280409   8.122   4.639   6.948 -0.6524  0.9452 -0.4000
25188SOL     OW80410   7.668   4.873   5.896  0.3243 -0.2916 -0.2060
25188SOL    HW180411   7.762   4.878   5.880  0.2196  0.3434 -0.6441
25188SOL    HW280412   7.629   4.926   5.827 -0.4522 -1.7944 -0.9355
25189SOL     OW80413   9.460   4.914   6.559  0.4112 -0.0495 -0.4229
25189SOL    HW180414   9.522   4.955   6.499  0.4808  1.9211  0.9431
25189SOL    HW280415   9.466   4.965   6.640 -3.9396  1.0975 -0.6738
25190SOL     OW80416   9.013   4.617   6.950  0.2906 -0.0455 -0.3176
25190SOL    HW180417   8.965   4.699   6.954 -0.0065 -0.2738  1.2801
25190SOL    HW280418   9.100   4.638   6.986  0.2388 -0.4025  0.0222
25191SOL     OW80419   9.063   4.345   2.962  0.4535  0.4512  0.3574
25191SOL    HW180420   9.054   4.321   2.870  1.9139 -0.6465  0.4729
25191SOL    HW280421   9.081   4.262   3.007 -2.1296  0.6834  1.9274
25192SOL     OW80422   8.519   4.512   5.522 -0.3240 -0.7560  0.2848
25192SOL    HW180423   8.432   4.509   5.563 -0.0198  0.7005  1.0952
25192SOL    HW280424   8.577   4.541   5.593  0.8141 -1.6144 -0.2780
25193SOL     OW80425   7.827   3.054   4.099 -0.2756 -0.4896 -0.6332
25193SOL    HW180426   7.912   3.011   4.100  1.0420  1.9940  0.7936
25193SOL    HW280427   7.822   3.100   4.183 -3.5565 -1.5510 -0.1766
25194SOL     OW80428   8.340   2.512   2.633 -0.1546 -0.6010  0.0130
25194SOL    HW180429   8.251   2.523   2.599 -0.6639 -1.3000  1.0908
25194SOL    HW280430   8.351   2.585   2.694  0.1931 -0.2274 -0.4990
25195SOL     OW80431   8.702   4.660   4.335 -0.2992 -0.6048 -0.0339
25195SOL    HW180432   8.696   4.755   4.349 -1.1231 -0.5123 -1.0026
25195SOL    HW280433   8.717   4.624   4.423 -0.7036  0.3605  0.4373
25196SOL     OW80434   9.217   4.488   5.365 -0.0867  0.0434 -0.0610
25196SOL    HW180435   9.162   4.566   5.363  0.1617  0.2254  0.2517
25196SOL    HW280436   9.305   4.521   5.381  0.0502 -0.2837 -0.1343
25197SOL     OW80437   0.540   4.132   6.112 -0.5297 -0.0215 -0.3331
25197SOL    HW180438   0.587   4.095   6.037  1.6210  1.1152  0.3953
25197SOL    HW280439   0.473   4.188   6.072 -0.3908 -0.5933 -1.3990
25198SOL     OW80440   9.373   5.430   2.390 -0.3054 -0.1938  0.7819
25198SOL    HW180441   9.397   5.400   2.302  1.4943 -2.3070  1.9281
25198SOL    HW280442   9.434   5.501   2.408 -0.1487 -0.2855  0.6150
25199SOL     OW80443   8.886   4.087   3.020  0.6493 -0.0063  0.0906
25199SOL    HW180444   8.972   4.120   3.048  1.2006  0.6753 -2.1959
25199SOL    HW280445   8.828   4.163   3.028  0.5181 -0.1645  0.6070
25200SOL     OW80446   8.027   5.756   5.208  0.4269 -0.2328  0.4335
25200SOL    HW180447   8.038   5.692   5.279  0.2759  0.3956  1.0383
25200SOL    HW280448   8.004   5.837   5.254 -1.9065 -0.3372 -0.4716
25201SOL     OW80449   8.500   5.958   6.341  0.3143 -0.2445 -0.1563
25201SOL    HW180450   8.489   6.045   6.377  1.7590 -0.4016  0.6878
25201SOL    HW280451   8.420   5.911   6.366 -0.0322  0.5432  0.2096
25202SOL     OW80452   0.105   5.751   6.233  0.7784 -0.2243 -0.2637
25202SOL    HW180453   0.059   5.785   6.156  3.9498 -0.1044 -2.2409
25202SOL    HW280454   0.154   5.676   6.200 -0.6145 -2.4303  2.5098
25203SOL     OW80455   8.530   6.029   6.056 -0.1660 -0.3279  0.7216
25203SOL    HW180456   8.495   5.973   5.986  0.9740  0.1763 -0.2559
25203SOL    HW280457   8.515   5.978   6.136  0.1381 -1.6935 -0.0738
25204SOL     OW80458   0.118   2.695   3.208 -0.3999 -0.1797  0.0494
25204SOL    HW180459   0.210   2.671   3.221  0.4340  2.7199 -0.1339
25204SOL    HW280460   0.113   2.721   3.116 -1.4793 -0.5819 -0.0091
25205SOL     OW80461   7.827   4.871   4.095 -0.0329  0.0552  0.0039
25205SOL    HW180462   7.905   4.926   4.090 -0.3131  0.4861  0.3041
25205SOL    HW280463   7.836   4.823   4.178  0.4342 -0.6909 -0.4798
25206SOL     OW80464   8.926   4.574   4.988 -0.0315 -0.5316  0.4372
25206SOL    HW180465   8.985   4.579   5.063 -0.6866 -1.7621  1.0377
25206SOL    HW280466   8.965   4.509   4.930 -0.9486 -1.5697  0.9766
25207SOL     OW80467   7.281   4.817   4.464  0.0156 -0.3978  0.6394
25207SOL    HW180468   7.347   4.886   4.459  1.3779 -1.8328 -2.5332
25207SOL    HW280469   7.212   4.844   4.404 -1.5745  0.3198  2.7467
25208SOL     OW80470   7.906   4.302   5.259  0.0870  0.3294  0.0817
25208SOL    HW180471   7.977   4.288   5.321  0.8690 -0.8548 -1.0636
25208SOL    HW280472   7.868   4.216   5.246  0.2361  0.4810 -1.4509
25209SOL     OW80473   0.124   5.583   6.011 -0.2549  0.1698  0.0701
25209SOL    HW180474   0.171   5.523   5.952 -0.5364  0.9472 -0.9595
25209SOL    HW280475   0.068   5.526   6.063  1.1481 -0.6797  0.6662
25210SOL     OW80476   8.639   3.957   3.754  0.0907 -0.2302 -0.4089
25210SOL    HW180477   8.620   3.981   3.844  1.3199  0.3378 -0.2829
25210SOL    HW280478   8.560   3.912   3.723 -0.3951 -0.2789  0.8862
25211SOL     OW80479   8.361   4.557   4.374  0.2707  0.4244 -0.3779
25211SOL    HW180480   8.378   4.594   4.461  0.9551 -3.6411  1.3509
25211SOL    HW280481   8.280   4.599   4.346  0.2386  2.1196  2.0664
25212SOL     OW80482   8.391   6.474   4.887 -0.0705  0.0008  0.1995
25212SOL    HW180483   8.351   6.558   4.864 -1.8128 -1.2682 -1.5746
25212SOL    HW280484   8.444   6.451   4.811  1.0759 -0.1081  1.0272
25213SOL     OW80485   7.833   7.788   3.696  0.0813  0.3350 -0.4409
25213SOL    HW180486   7.873   7.855   3.639  1.3651  0.2245  0.3181
25213SOL    HW280487   7.844   7.822   3.784  0.5738 -0.7885 -0.0589
25214SOL     OW80488   8.308   4.948   5.735  0.7015 -0.1570 -0.3154
25214SOL    HW180489   8.363   4.871   5.750  1.9012  0.9260  0.9413
25214SOL    HW280490   8.369   5.022   5.737 -0.7481  1.0263  0.7616
25215SOL     OW80491   5.827   2.875   5.626  0.1888  0.1075  0.1855
25215SOL    HW180492   5.781   2.798   5.658 -2.4992  0.5685 -2.3314
25215SOL    HW280493   5.820   2.939   5.697 -2.7097 -0.0201  0.0807
25216SOL     OW80494   6.524   2.912   4.477  0.1540 -0.6182  0.2053
25216SOL    HW180495   6.607   2.882   4.438  1.4022  1.9827  0.7804
25216SOL    HW280496   6.487   2.833   4.516  2.5598 -1.7703  0.2657
25217SOL     OW80497   8.519   4.315   6.006  0.3821  0.1357  0.8486
25217SOL    HW180498   8.545   4.322   5.914  0.8196  0.7558  1.0200
25217SOL    HW280499   8.445   4.254   6.005 -0.3869  1.0755 -0.0524
25218SOL     OW80500   0.075   3.613   4.970  0.4594  0.4413  0.3337
25218SOL    HW180501   0.081   3.517   4.964 -1.2834  0.3675 -0.4899
25218SOL    HW280502   0.049   3.629   5.061 -0.1650  0.0759  0.2256
25219SOL     OW80503   9.545   4.134   5.630 -0.0216 -0.6891 -0.4109
25219SOL    HW180504   9.473   4.076   5.605 -0.2544 -0.9121  0.7594
25219SOL    HW280505   9.507   4.222   5.628 -0.5241 -0.8622  0.8490
25220SOL     OW80506   6.960   4.813   4.728  0.1235 -0.0124 -0.2969
25220SOL    HW180507   7.005   4.731   4.743  0.4242  0.3661  0.9338
25220SOL    HW280508   6.946   4.849   4.816  0.6065  1.5663 -0.8494
25221SOL     OW80509   8.459   4.766   4.090  0.5405 -0.7866 -0.3932
25221SOL    HW180510   8.379   4.723   4.060  0.1097 -0.2615 -0.0035
25221SOL    HW280511   8.462   4.848   4.041  0.5112 -0.5183  0.0527
25222SOL     OW80512   8.021   4.453   4.352  0.1965 -0.4113  0.0665
25222SOL    HW180513   8.041   4.542   4.324  2.1527 -0.7115  0.4502
25222SOL    HW280514   8.035   4.400   4.274 -3.0659 -0.1781 -0.7787
25223SOL     OW80515   9.088   4.913   5.165  0.4387 -0.5748 -0.2514
25223SOL    HW180516   9.078   5.007   5.180  2.4137 -0.5878  1.4025
25223SOL    HW280517   9.043   4.897   5.082 -0.4710  1.7055 -0.2416
25224SOL     OW80518   0.272   5.793   4.624 -0.0682 -0.1805 -0.4258
25224SOL    HW180519   0.260   5.736   4.699  0.5919 -1.0784 -0.9808
25224SOL    HW280520   0.353   5.760   4.582  0.3339  1.1781 -0.7283
25225SOL     OW80521   7.793   6.337   3.666 -0.9529 -0.7514 -0.8701
25225SOL    HW180522   7.850   6.263   3.688 -0.9718 -0.8034 -0.9993
25225SOL    HW280523   7.706   6.299   3.658 -1.1588 -0.5339  0.1920
25226SOL     OW80524   8.757   4.493   5.880 -0.3523 -0.2672  0.3522
25226SOL    HW180525   8.684   4.443   5.842 -0.2226 -1.8292  2.1300
25226SOL    HW280526   8.819   4.427   5.910  0.4168  0.9869  1.5817
25227SOL     OW80527   0.413   3.727   5.576 -0.2930 -0.7883  0.1430
25227SOL    HW180528   0.428   3.821   5.591  1.2512 -0.9280 -0.4588
25227SOL    HW280529   0.474   3.704   5.506 -0.9107 -2.1817  0.0473
25228SOL     OW80530   8.973   5.903   5.395  0.4509  0.0510 -0.0152
25228SOL    HW180531   8.883   5.881   5.369  0.1305  1.1520  0.1225
25228SOL    HW280532   8.962   5.955   5.475  1.1922  0.4385 -0.1643
25229SOL     OW80533   7.369   5.016   7.289 -0.0205 -0.1954  0.3594
25229SOL    HW180534   7.409   5.085   7.235  0.4610 -1.2485 -0.6464
25229SOL    HW280535   7.323   4.960   7.227 -1.4835 -0.0734  1.3132
25230SOL     OW80536   9.379   4.913   5.919  0.2916 -0.0391 -0.1333
25230SOL    HW180537   9.467   4.877   5.914 -0.1218 -0.8726 -1.9264
25230SOL    HW280538   9.327   4.845   5.962 -0.0758 -0.8041 -1.7448
25231SOL     OW80539   8.860   6.055   4.813 -0.9494  0.2527 -0.1303
25231SOL    HW180540   8.925   6.009   4.866  0.0565  0.6529 -1.0087
25231SOL    HW280541   8.877   6.027   4.723 -1.4652  0.9878 -0.4668
25232SOL     OW80542   9.429   5.858   3.396 -0.2089 -0.1120 -0.0349
25232SOL    HW180543   9.381   5.913   3.333  0.3272  0.0174 -0.3344
25232SOL    HW280544   9.377   5.863   3.476 -0.0240  1.0552  0.0219
25233SOL     OW80545   9.110   5.539   4.866  0.5129 -0.0444 -0.8263
25233SOL    HW180546   9.172   5.504   4.931 -0.6556 -1.5273 -0.4919
25233SOL    HW280547   9.141   5.504   4.782  1.7561  1.4996 -1.0343
25234SOL     OW80548   8.597   4.287   5.742  0.1449  0.3053  0.1264
25234SOL    HW180549   8.505   4.271   5.724  0.6561 -0.7848 -1.5980
25234SOL    HW280550   8.640   4.283   5.657  1.9818 -0.5798  1.0473
25235SOL     OW80551   6.525   3.141   5.270 -0.5026 -0.0585 -0.1366
25235SOL    HW180552   6.437   3.122   5.236 -0.5371 -1.3346  0.6338
25235SOL    HW280553   6.569   3.188   5.199 -1.6067  0.0553 -0.7537
25236SOL     OW80554   8.951   4.940   3.874  0.4781  0.3588  0.3695
25236SOL    HW180555   9.028   4.904   3.919  0.2397 -0.8223 -0.1320
25236SOL    HW280556   8.923   5.012   3.929  0.8962 -0.3253  1.5075
25237SOL     OW80557   7.396   4.097   6.034  0.4310  0.2643 -0.0924
25237SOL    HW180558   7.460   4.099   5.963 -1.7122  0.5824 -2.0776
25237SOL    HW280559   7.321   4.148   6.000 -2.6013 -3.6215  0.4348
25238SOL     OW80560   7.887   4.690   3.292 -0.5935 -0.2684  0.2574
25238SOL    HW180561   7.875   4.615   3.351 -0.9475 -0.2829  0.1654
25238SOL    HW280562   7.945   4.749   3.340 -1.5439  0.1060  0.9681
25239SOL     OW80563   5.404   2.086   2.752  0.0621 -0.1948  0.4300
25239SOL    HW180564   5.483   2.046   2.719  0.1690 -1.5164  2.2303
25239SOL    HW280565   5.434   2.152   2.815 -0.1968  1.0474 -0.7212
25240SOL     OW80566   8.156   4.445   5.299 -0.2081  0.3418 -0.1057
25240SOL    HW180567   8.126   4.380   5.363  0.6559  1.0239  0.9998
25240SOL    HW280568   8.116   4.417   5.217  0.0493 -1.5273  0.3774
25241SOL     OW80569   8.690   4.205   5.468  0.0705 -0.4421  0.8042
25241SOL    HW180570   8.601   4.213   5.436  0.2438 -0.9890  0.1639
25241SOL    HW280571   8.744   4.207   5.389  0.6444  0.1909  1.2078
25242SOL     OW80572   7.070   2.434   4.438 -0.4512 -0.4766  0.7648
25242SOL    HW180573   7.118   2.435   4.520 -1.1254  0.8295  1.1631
25242SOL    HW280574   6.999   2.370   4.453 -0.3140 -0.5664  1.0376
25243SOL     OW80575   8.331   7.394   3.926 -0.4637 -0.5981 -0.0601
25243SOL    HW180576   8.319   7.303   3.897 -1.3590 -1.2285  2.1631
25243SOL    HW280577   8.256   7.410   3.984  0.4560  1.0965  0.6701
25244SOL     OW80578   9.813   5.054   3.703  0.4949  0.0184  0.6977
25244SOL    HW180579   9.770   5.045   3.618  0.8908 -0.8586  0.5819
25244SOL    HW280580   9.801   4.969   3.745 -0.9367  0.8925  2.1263
25245SOL     OW80581   6.212   5.731   3.426  0.2643 -0.3245  0.5938
25245SOL    HW180582   6.254   5.667   3.482  0.7674 -0.0164  0.5684
25245SOL    HW280583   6.160   5.785   3.486 -0.3542 -0.9017  0.5856
25246SOL     OW80584   7.526   3.418   4.502 -0.4493  0.7496  0.4935
25246SOL    HW180585   7.602   3.470   4.526  0.5440 -0.0931 -0.7954
25246SOL    HW280586   7.523   3.347   4.566 -0.4490  1.0643  0.8427
25247SOL     OW80587   8.159   3.891   4.495 -0.5769  0.1837 -0.9610
25247SOL    HW180588   8.108   3.929   4.566  0.4114 -0.0183 -0.1390
25247SOL    HW280589   8.241   3.940   4.495 -0.0053 -0.7519 -1.0484
25248SOL     OW80590   6.530   5.363   1.893  0.3217  0.2036 -0.3637
25248SOL    HW180591   6.462   5.346   1.958 -0.8353  0.0621 -1.5904
25248SOL    HW280592   6.542   5.279   1.848  0.4960  0.5079 -0.8922
25249SOL     OW80593   8.866   5.460   4.105 -0.5036  0.0604 -0.0695
25249SOL    HW180594   8.950   5.415   4.113 -0.5724 -0.8308 -3.4638
25249SOL    HW280595   8.845   5.455   4.011 -2.4086  3.7701  0.0694
25250SOL     OW80596   8.260   4.612   3.935  0.0934  0.1507  0.6896
25250SOL    HW180597   8.273   4.622   3.841 -0.7843  0.5623  0.6070
25250SOL    HW280598   8.238   4.519   3.946 -1.3625  0.4383  0.2943
25251SOL     OW80599   8.688   3.996   3.331 -0.0384  0.2912 -0.3364
25251SOL    HW180600   8.653   4.017   3.418 -0.2055 -0.9097 -0.1005
25251SOL    HW280601   8.745   3.921   3.346 -0.4259 -0.2128 -1.3323
25252SOL     OW80602   6.778   4.150   6.044 -0.5424  0.4571  0.2585
25252SOL    HW180603   6.820   4.170   5.961  0.9525 -0.9422  0.6608
25252SOL    HW280604   6.720   4.225   6.060 -0.8874  0.7141 -2.0399
25253SOL     OW80605   8.967   4.526   6.431 -0.1751  0.7425  0.0572
25253SOL    HW180606   9.048   4.555   6.473  1.0222 -1.9586 -0.2654
25253SOL    HW280607   8.920   4.478   6.499 -0.8242  1.0781 -0.1497
25254SOL     OW80608   9.746   4.802   6.734 -0.2520 -0.0696  0.5324
25254SOL    HW180609   9.711   4.891   6.743  1.6408  0.8875 -1.1489
25254SOL    HW280610   9.719   4.774   6.647  0.0560 -0.7277  0.6509
25255SOL     OW80611   6.431   6.682   7.085  0.0262  0.3239 -0.0007
25255SOL    HW180612   6.418   6.772   7.115 -2.1017  0.6572 -1.8031
25255SOL    HW280613   6.343   6.645   7.079  0.8638 -1.9211  0.7417
25256SOL     OW80614   8.390   3.907   3.289 -0.1913  0.3973  0.0009
25256SOL    HW180615   8.326   3.911   3.361 -3.0514 -0.9738 -2.3420
25256SOL    HW280616   8.354   3.964   3.222  1.5594  0.3360 -1.0128
25257SOL     OW80617   7.343   3.811   2.824  0.0212  0.8662  0.3755
25257SOL    HW180618   7.306   3.724   2.812 -1.2330  1.5457 -0.6995
25257SOL    HW280619   7.341   3.851   2.737  3.6278  0.7961  0.1884
25258SOL     OW80620   7.337   5.048   4.094  0.9699  0.0798 -0.2101
25258SOL    HW180621   7.375   5.102   4.024  2.4631  0.6592  1.0127
25258SOL    HW280622   7.412   5.003   4.133  0.3509  0.8691  1.9481
25259SOL     OW80623   8.665   4.224   6.596  0.3149  0.0906 -0.2099
25259SOL    HW180624   8.715   4.164   6.651 -0.2418 -0.2258 -0.0426
25259SOL    HW280625   8.712   4.308   6.602  1.5217 -0.5113 -1.0408
25260SOL     OW80626   0.058   5.314   5.486 -0.0503  0.1051  0.1087
25260SOL    HW180627  -0.001   5.390   5.482 -0.1621 -0.0474 -1.9835
25260SOL    HW280628   0.017   5.250   5.427 -0.1129 -1.7073  2.0796
25261SOL     OW80629   7.444   5.071   4.598 -0.2332  0.4131  0.2628
25261SOL    HW180630   7.513   5.030   4.651  0.1722 -1.5200 -1.6705
25261SOL    HW280631   7.363   5.031   4.628 -0.1660  0.4149  0.4468
25262SOL     OW80632   0.197   5.564   4.815 -0.4627 -0.0753  0.4603
25262SOL    HW180633   0.226   5.543   4.904 -1.3779  0.7105  0.9587
25262SOL    HW280634   0.103   5.549   4.817 -0.4359 -0.3538 -0.4678
25263SOL     OW80635   8.687   4.375   3.793  0.0715 -0.0857  0.2100
25263SOL    HW180636   8.677   4.342   3.704  1.3268 -0.8064  0.3245
25263SOL    HW280637   8.683   4.470   3.785  0.0113 -0.1565 -0.5919
25264SOL     OW80638   0.651   6.758   4.329  0.3434  0.3960  0.0454
25264SOL    HW180639   0.600   6.749   4.410 -0.5123 -2.6155 -0.7504
25264SOL    HW280640   0.588   6.738   4.260  1.9660 -0.7627 -1.1227
25265SOL     OW80641   8.065   4.770   4.540  0.1855  0.3005  0.2663
25265SOL    HW180642   8.044   4.699   4.601  0.8266  0.8162  1.0985
25265SOL    HW280643   8.158   4.758   4.521  0.0522  0.3068 -0.4158
25266SOL     OW80644   7.439   6.246   4.820  0.3714  0.0243 -0.2259
25266SOL    HW180645   7.485   6.277   4.742  0.8746 -1.9108 -0.7305
25266SOL    HW280646   7.349   6.233   4.790  0.5378 -0.6052 -0.4631
25267SOL     OW80647   0.142   4.915   4.086 -0.5621  0.0525 -0.0717
25267SOL    HW180648   0.118   4.829   4.119  1.0366 -0.6639 -0.7168
25267SOL    HW280649   0.177   4.899   3.998 -1.8426  1.5600 -0.8942
25268SOL     OW80650   8.823   4.481   5.328 -0.5649  0.0403  0.3651
25268SOL    HW180651   8.906   4.527   5.334 -1.3028  1.3877  0.4480
25268SOL    HW280652   8.845   4.396   5.288  0.8380  0.3698  0.4186
25269SOL     OW80653   9.798   3.613   4.588 -0.1035 -0.0976  0.4922
25269SOL    HW180654   9.716   3.577   4.555 -1.0184  0.9859  1.5247
25269SOL    HW280655   9.851   3.628   4.509 -1.2921  0.1270 -0.2827
25270SOL     OW80656   6.965   4.026   4.458 -0.0458  0.9372 -0.0616
25270SOL    HW180657   7.043   4.019   4.512 -0.0661 -1.6107 -0.3217
25270SOL    HW280658   6.954   4.120   4.444  1.9372  1.4219  1.4503
25271SOL     OW80659   8.655   6.732   2.246 -0.5833 -0.1037 -0.1452
25271SOL    HW180660   8.625   6.733   2.155 -0.3962  1.2876 -0.1940
25271SOL    HW280661   8.717   6.659   2.250 -0.5432 -0.1269 -1.1433
25272SOL     OW80662   7.178   5.021   4.644 -1.1431 -0.0433 -0.6830
25272SOL    HW180663   7.164   5.008   4.550  0.6264  0.1983 -1.0055
25272SOL    HW280664   7.157   4.936   4.683  0.3305 -0.8426 -1.5813
25273SOL     OW80665   9.136   3.725   4.187  0.5210  0.6427 -0.1604
25273SOL    HW180666   9.217   3.699   4.143 -0.1608 -0.2325 -0.9242
25273SOL    HW280667   9.096   3.789   4.128  0.6724  1.1001  0.2324
25274SOL     OW80668   7.577   4.814   5.137  0.1462  0.3287 -0.0303
25274SOL    HW180669   7.488   4.806   5.103  0.2835  0.5097 -0.4277
25274SOL    HW280670   7.630   4.761   5.078  0.0163 -1.3613  1.3293
25275SOL     OW80671   7.266   4.715   5.132  0.5201 -0.5210  0.1316
25275SOL    HW180672   7.257   4.619   5.129  0.5167 -0.5245  0.2827
25275SOL    HW280673   7.232   4.740   5.217 -2.6342 -0.0741 -1.1735
25276SOL     OW80674   9.192   2.691   4.749  0.2354  0.0308  0.1900
25276SOL    HW180675   9.212   2.779   4.715  1.6100 -0.0500  0.7809
25276SOL    HW280676   9.269   2.666   4.799 -0.0427 -1.6451 -0.1979
25277SOL     OW80677   9.354   5.750   6.167  0.0523  0.3322  0.1554
25277SOL    HW180678   9.266   5.729   6.138  0.5571  0.1536 -1.2589
25277SOL    HW280679   9.341   5.801   6.247 -1.3612  1.5296 -0.8167
25278SOL     OW80680   9.356   3.401   5.517  0.4053 -0.0542 -0.4695
25278SOL    HW180681   9.295   3.363   5.454 -0.7395  0.5703  0.2378
25278SOL    HW280682   9.431   3.427   5.464 -0.5278  0.4510 -1.5766
25279SOL     OW80683   8.018   4.286   4.586 -0.0149  0.3860  0.5280
25279SOL    HW180684   8.037   4.340   4.509  0.1012  0.2640  0.4727
25279SOL    HW280685   8.096   4.292   4.640  0.0552  0.1565  0.4538
25280SOL     OW80686   7.562   5.976   3.309 -0.4091 -0.0312  0.6269
25280SOL    HW180687   7.656   5.994   3.310 -0.4897  0.7017 -1.7540
25280SOL    HW280688   7.539   5.974   3.216 -2.0051 -4.2312  0.9934
25281SOL     OW80689   6.863   3.740   7.007 -0.3997  0.3722  0.6961
25281SOL    HW180690   6.913   3.818   7.030  1.0779 -1.1843  3.0378
25281SOL    HW280691   6.917   3.667   7.037 -2.4591 -1.4890  0.0360
25282SOL     OW80692   8.042   3.417   5.983  0.0811  0.5392 -0.4647
25282SOL    HW180693   8.134   3.398   5.970  0.3815  2.5049 -1.3860
25282SOL    HW280694   8.001   3.395   5.900 -0.0355  1.0750 -0.5517
25283SOL     OW80695   7.470   3.626   4.038 -0.1561 -0.1334 -0.3536
25283SOL    HW180696   7.491   3.698   3.979  1.6683  0.5963  1.1106
25283SOL    HW280697   7.444   3.668   4.120  0.8395 -1.0989  0.4936
25284SOL     OW80698   7.849   6.252   7.126  0.4730  0.5419  0.1126
25284SOL    HW180699   7.933   6.283   7.158  0.4623 -0.7229  1.4213
25284SOL    HW280700   7.870   6.180   7.066  0.3275 -0.1515  0.8738
25285SOL     OW80701   8.779   6.400   6.233  0.5324  0.4861  0.0510
25285SOL    HW180702   8.730   6.480   6.215  0.3512 -0.3741 -3.6662
25285SOL    HW280703   8.865   6.416   6.194  0.9001 -0.6648  0.3767
25286SOL     OW80704   8.088   3.919   6.525 -0.4703  0.0748  0.4887
25286SOL    HW180705   8.174   3.959   6.539 -0.4734 -0.3237  1.7189
25286SOL    HW280706   8.091   3.886   6.435  1.2943 -1.4429  1.0729
25287SOL     OW80707   9.549   3.864   4.918  0.3754 -0.2269 -0.2885
25287SOL    HW180708   9.605   3.804   4.867  1.1684  0.3695 -0.1251
25287SOL    HW280709   9.505   3.807   4.980  0.7883 -0.7125 -0.4311
25288SOL     OW80710   7.033   4.677   6.966  0.1828  0.7578 -0.2800
25288SOL    HW180711   7.003   4.693   7.056 -0.0161 -0.2167 -0.1671
25288SOL    HW280712   6.989   4.596   6.941  0.1102  1.1185 -1.3218
25289SOL     OW80713   8.283   5.500   7.914  0.2425 -0.0579 -0.1862
25289SOL    HW180714   8.372   5.506   7.949 -0.0624 -1.6289  0.9159
25289SOL    HW280715   8.231   5.468   7.987 -1.2971  1.1563 -0.7375
25290SOL     OW80716   8.729   5.834   8.126  0.5969  0.2448  0.3469
25290SOL    HW180717   8.642   5.835   8.166  1.2495 -0.6712  1.8133
25290SOL    HW280718   8.739   5.921   8.087  0.3503  1.5204  3.0395
25291SOL     OW80719   9.325   4.330   6.960 -0.3239 -0.1786  0.0801
25291SOL    HW180720   9.358   4.319   6.871  0.5651  1.5678  0.1851
25291SOL    HW280721   9.362   4.413   6.990 -1.0788 -0.4599  1.8745
25292SOL     OW80722   8.966   5.245   8.559 -0.2411 -0.3520 -0.2102
25292SOL    HW180723   9.028   5.312   8.587  0.1780 -0.1942 -1.4805
25292SOL    HW280724   9.004   5.163   8.589 -0.7079 -0.0334  1.2647
25293SOL     OW80725   7.613   5.409   5.925 -0.7694 -0.0716  0.1326
25293SOL    HW180726   7.624   5.326   5.971  0.1880  0.3851  0.7413
25293SOL    HW280727   7.525   5.438   5.948 -0.4624 -0.0643  1.3260
25294SOL     OW80728   8.727   4.757   5.453  0.3233 -0.4620  0.2646
25294SOL    HW180729   8.708   4.790   5.541  0.1281  0.5065 -0.1336
25294SOL    HW280730   8.804   4.807   5.426 -0.1921 -0.0603 -0.4866
25295SOL     OW80731   0.172   4.921   6.858  0.2296  0.4371 -0.0745
25295SOL    HW180732   0.105   4.972   6.813 -0.2300 -0.9838 -1.0002
25295SOL    HW280733   0.153   4.933   6.951 -1.9730 -0.8192 -0.3291
25296SOL     OW80734   9.305   5.634   5.818 -0.3028 -0.2611  0.5209
25296SOL    HW180735   9.310   5.540   5.833 -0.3245 -0.3037  0.2632
25296SOL    HW280736   9.263   5.642   5.733  3.2247 -0.1030 -1.2723
25297SOL     OW80737   7.639   4.395   6.449  0.3793 -0.6144  0.3118
25297SOL    HW180738   7.722   4.401   6.496  0.4563 -2.1242  0.3993
25297SOL    HW280739   7.655   4.331   6.380 -0.3906 -0.0675 -0.3844
25298SOL     OW80740   8.638   5.336   6.397 -0.1190  0.5686 -0.0883
25298SOL    HW180741   8.705   5.324   6.464 -0.3694 -0.4783 -0.0139
25298SOL    HW280742   8.627   5.430   6.391  0.3313  0.6955  0.9280
25299SOL     OW80743   9.127   5.603   4.558  0.3635 -0.5823  0.0651
25299SOL    HW180744   9.214   5.612   4.519  0.2254 -1.4891 -0.4710
25299SOL    HW280745   9.082   5.539   4.502 -1.5122  1.6905 -1.1214
25300SOL     OW80746   8.989   2.433   6.677 -0.0948 -0.4205 -0.0908
25300SOL    HW180747   8.953   2.511   6.634 -0.3901 -1.0940 -1.0547
25300SOL    HW280748   9.076   2.461   6.707 -0.3339  0.3829 -0.1177
25301SOL     OW80749   7.149   5.108   5.324  0.0444 -0.0242 -0.2963
25301SOL    HW180750   7.168   5.097   5.231 -0.6714 -0.3172 -0.4138
25301SOL    HW280751   7.056   5.132   5.327 -0.0917 -0.5880  0.3650
25302SOL     OW80752   8.435   4.917   6.783 -0.0398 -0.0350  0.4273
25302SOL    HW180753   8.383   4.897   6.705  0.3323 -3.2942  0.9447
25302SOL    HW280754   8.525   4.900   6.756  0.2430  0.3492  1.1168
25303SOL     OW80755   8.795   4.452   4.124 -0.1026  0.4831 -0.0381
25303SOL    HW180756   8.731   4.382   4.131 -0.7855  1.2261  1.3133
25303SOL    HW280757   8.874   4.409   4.093 -0.7440 -0.7418 -0.0187
25304SOL     OW80758   8.139   2.882   4.685 -0.3482  0.4287  0.8594
25304SOL    HW180759   8.055   2.861   4.726 -0.5739  1.6930  1.0708
25304SOL    HW280760   8.131   2.851   4.595  0.2486 -2.6248  1.7734
25305SOL     OW80761   9.026   5.708   6.464 -1.2600 -0.1167 -0.5816
25305SOL    HW180762   9.067   5.734   6.546  0.3843 -2.8273 -0.4648
25305SOL    HW280763   9.016   5.789   6.415  1.6552  1.0204  0.5777
25306SOL     OW80764   7.700   4.968   7.964  0.0366 -0.1986  0.0667
25306SOL    HW180765   7.766   4.983   8.032  1.6509 -0.6254 -1.3662
25306SOL    HW280766   7.716   4.878   7.935  1.0848  0.8437 -2.6894
25307SOL     OW80767   0.467   7.431   7.201 -0.5074  0.3655 -0.1857
25307SOL    HW180768   0.484   7.464   7.113 -0.4156 -1.5439 -0.9067
25307SOL    HW280769   0.487   7.337   7.196  3.3865  0.9103  2.8974
25308SOL     OW80770   8.769   6.003   6.944 -0.3669 -0.2973 -0.4325
25308SOL    HW180771   8.694   6.061   6.931  1.0002  1.4114 -0.9631
25308SOL    HW280772   8.803   6.028   7.030  1.1322  0.7753 -1.3178
25309SOL     OW80773   7.726   4.992   6.678  0.1050  0.3169  0.2986
25309SOL    HW180774   7.706   5.014   6.769 -0.6749  3.6914 -0.6509
25309SOL    HW280775   7.810   4.946   6.683  0.8656  1.8785  2.5686
25310SOL     OW80776   9.636   5.752   6.097 -0.3056 -0.0560 -0.1302
25310SOL    HW180777   9.547   5.778   6.120 -0.4018 -0.4678 -0.0128
25310SOL    HW280778   9.691   5.795   6.162 -0.5652 -1.1070  0.8050
25311SOL     OW80779   7.707   5.704   6.143 -0.8757 -0.7581  0.8457
25311SOL    HW180780   7.727   5.618   6.180  2.3071  0.1027  1.2940
25311SOL    HW280781   7.680   5.757   6.217 -0.4211 -0.7174  0.9875
25312SOL     OW80782   7.977   3.807   7.460 -0.4893  0.1480 -0.0441
25312SOL    HW180783   8.048   3.762   7.414 -0.1971 -0.3514  0.8856
25312SOL    HW280784   7.972   3.763   7.545 -1.1158  0.9728  0.3484
25313SOL     OW80785   8.317   5.728   7.199  0.3968 -0.6433 -0.2228
25313SOL    HW180786   8.339   5.663   7.133 -0.2070 -0.6605 -0.4086
25313SOL    HW280787   8.221   5.729   7.201  0.4087 -0.1777  0.1906
25314SOL     OW80788   9.381   4.998   5.545 -0.1630 -0.0836  0.2688
25314SOL    HW180789   9.352   4.959   5.462 -1.8804  1.7395 -0.0579
25314SOL    HW280790   9.463   5.042   5.523  2.2965 -4.1309  0.8624
25315SOL     OW80791   9.534   4.939   7.064  0.4919 -0.4283  0.5854
25315SOL    HW180792   9.448   4.944   7.023  1.7767  2.6485 -2.0130
25315SOL    HW280793   9.580   4.870   7.016  0.6979  0.5182 -0.5985
25316SOL     OW80794   7.709   3.487   5.839 -0.1750 -0.0895  0.4521
25316SOL    HW180795   7.703   3.561   5.780 -1.4263 -2.1788 -2.1535
25316SOL    HW280796   7.796   3.451   5.824 -0.0266  0.1100  0.8183
25317SOL     OW80797   8.654   5.547   6.666  0.1654 -0.4866 -0.1599
25317SOL    HW180798   8.717   5.522   6.598  0.0115 -1.5975  0.0944
25317SOL    HW280799   8.683   5.634   6.694  0.3969 -0.1332 -1.4374
25318SOL     OW80800   9.065   3.414   7.557 -0.1627 -0.5081 -0.3588
25318SOL    HW180801   9.139   3.353   7.556  0.4393  0.2264 -0.8996
25318SOL    HW280802   9.031   3.411   7.467  0.5764  0.8071 -0.6929
25319SOL     OW80803   7.258   3.341   6.365 -0.3229  0.0620 -0.3918
25319SOL    HW180804   7.274   3.293   6.446  0.6660 -1.5574 -1.5355
25319SOL    HW280805   7.322   3.306   6.303  0.5593  2.9740 -1.2121
25320SOL     OW80806   8.170   5.664   5.994  0.4057  0.1989 -0.4041
25320SOL    HW180807   8.082   5.656   6.031 -0.1025 -2.1204 -2.0151
25320SOL    HW280808   8.157   5.708   5.910  1.0859  1.8635  0.3360
25321SOL     OW80809   8.461   4.327   6.394  0.6288 -0.0124 -0.2014
25321SOL    HW180810   8.534   4.363   6.344  2.0049 -2.8163 -0.3039
25321SOL    HW280811   8.427   4.257   6.340  1.4970 -2.4504  2.3057
25322SOL     OW80812   7.901   5.451   5.571  0.3082  0.2117 -0.1387
25322SOL    HW180813   7.912   5.363   5.605 -1.1320 -0.2382 -0.7822
25322SOL    HW280814   7.897   5.508   5.648  2.0736 -0.1797  0.2441
25323SOL     OW80815   7.522   6.462   7.676  0.1710 -0.5165  0.4043
25323SOL    HW180816   7.588   6.409   7.720  1.3479  0.4443 -0.1590
25323SOL    HW280817   7.516   6.541   7.729  1.3812  0.5157 -0.9661
25324SOL     OW80818   9.015   4.694   5.312  0.5978  0.5516  0.2422
25324SOL    HW180819   9.042   4.766   5.254  0.3427 -0.0597 -0.6511
25324SOL    HW280820   8.980   4.737   5.389  0.4076  1.3946 -0.3097
25325SOL     OW80821   7.704   3.271   6.790  0.3605 -0.1544 -0.1246
25325SOL    HW180822   7.714   3.202   6.725  0.7024 -0.8246  0.6255
25325SOL    HW280823   7.609   3.285   6.796  0.3428  0.0437 -0.9019
25326SOL     OW80824   7.518   5.048   6.852 -0.0264 -0.3001 -0.3305
25326SOL    HW180825   7.491   5.103   6.926 -0.4334  1.6789 -1.8975
25326SOL    HW280826   7.439   5.040   6.799  1.1872  1.5150 -2.4956
25327SOL     OW80827   8.675   5.757   6.427  0.2991 -0.3234  0.3406
25327SOL    HW180828   8.748   5.748   6.366 -0.6406 -1.0438 -0.7118
25327SOL    HW280829   8.627   5.834   6.394 -0.0736 -0.5651  0.3190
25328SOL     OW80830   8.828   4.010   6.733 -0.3040 -0.3409  0.0508
25328SOL    HW180831   8.760   4.029   6.798  0.9677  0.8411  1.0847
25328SOL    HW280832   8.850   3.918   6.746 -0.1438 -0.1386  1.2438
25329SOL     OW80833   0.259   6.128   6.841 -0.1867  0.4418 -0.0588
25329SOL    HW180834   0.269   6.222   6.829 -1.1375  0.3978 -1.3039
25329SOL    HW280835   0.334   6.090   6.794  1.4236  0.6349  2.2657
25330SOL     OW80836   0.288   5.252   4.614  0.0938 -0.0043 -0.0216
25330SOL    HW180837   0.364   5.232   4.559 -0.0999 -2.1703  0.4576
25330SOL    HW280838   0.237   5.314   4.563  0.0636 -1.7481 -2.2013
25331SOL     OW80839   9.120   2.602   6.380 -0.1346 -0.2563 -0.1649
25331SOL    HW180840   9.147   2.595   6.471 -1.0775  0.7059  0.1987
25331SOL    HW280841   9.121   2.512   6.347  1.5415 -0.4513  0.4016
25332SOL     OW80842   7.261   4.811   7.116  0.4196  0.3702 -0.3723
25332SOL    HW180843   7.199   4.775   7.053  1.5900 -0.2981 -1.1736
25332SOL    HW280844   7.254   4.755   7.193  0.7619 -0.3230 -0.8431
25333SOL     OW80845   8.799   5.814   5.083  0.1580  0.3700  0.3129
25333SOL    HW180846   8.821   5.888   5.139  1.1961 -0.2593  0.7568
25333SOL    HW280847   8.704   5.816   5.077 -0.0094  0.1708  2.5107
25334SOL     OW80848   8.869   4.278   7.965  0.1406  0.3151  0.4166
25334SOL    HW180849   8.830   4.223   7.898 -1.9814 -1.2439  2.8603
25334SOL    HW280850   8.961   4.251   7.968 -0.1631 -0.8581 -0.6240
25335SOL     OW80851   9.954   5.071   4.879 -0.3431 -0.5710  0.0614
25335SOL    HW180852   9.905   5.085   4.959  0.4411  0.4950  0.3676
25335SOL    HW280853   9.985   4.980   4.885 -2.8889 -1.5215 -0.5125
25336SOL     OW80854   9.656   4.937   5.936  0.0551 -0.0653  0.0257
25336SOL    HW180855   9.650   4.931   5.841 -2.1045  0.3993  0.1129
25336SOL    HW280856   9.722   5.004   5.952  0.3427 -0.0660 -1.1492
25337SOL     OW80857   8.359   3.463   5.538  0.1818 -0.1565  0.1679
25337SOL    HW180858   8.393   3.508   5.616 -1.4487 -0.4382  1.0594
25337SOL    HW280859   8.382   3.371   5.551  0.9577 -0.0221 -0.2560
25338SOL     OW80860   8.357   4.980   9.196 -0.3452  0.1105  0.0439
25338SOL    HW180861   8.387   4.891   9.178  0.5588  0.4305 -0.0793
25338SOL    HW280862   8.388   4.998   9.284 -0.4334  0.3370  0.0285
25339SOL     OW80863   8.822   6.692   5.789  0.0394  0.5735  0.0851
25339SOL    HW180864   8.902   6.735   5.761  0.4567  0.0973  0.5280
25339SOL    HW280865   8.811   6.619   5.728  1.2043 -0.7458  1.4027
25340SOL     OW80866   8.700   4.264   7.748  0.4138 -0.3747 -0.0141
25340SOL    HW180867   8.753   4.309   7.683 -1.0496 -0.1698 -1.0961
25340SOL    HW280868   8.609   4.278   7.719 -0.2256 -0.8806  1.6721
25341SOL     OW80869   9.251   3.773   6.529 -0.0800  0.7090 -0.4847
25341SOL    HW180870   9.319   3.839   6.516 -0.5806  0.8681 -2.3209
25341SOL    HW280871   9.180   3.820   6.574  0.2953  0.9634 -0.1490
25342SOL     OW80872   7.296   3.204   4.134  0.0672 -0.1203  0.7266
25342SOL    HW180873   7.280   3.124   4.084 -2.1186  0.0734  1.0619
25342SOL    HW280874   7.336   3.175   4.215 -0.0341 -0.8025  0.5347
25343SOL     OW80875   0.028   3.642   8.279  0.4054 -0.2572  0.0787
25343SOL    HW180876  -0.046   3.592   8.244 -1.2774  1.1613  1.4712
25343SOL    HW280877   0.072   3.677   8.202  0.8300 -2.7675 -0.8514
25344SOL     OW80878   9.353   4.324   7.663 -0.3723 -0.5923 -0.6307
25344SOL    HW180879   9.404   4.388   7.613 -2.8401  1.6649 -0.3845
25344SOL    HW280880   9.385   4.333   7.752 -0.4717  0.0965 -0.6575
25345SOL     OW80881   7.269   6.233   8.203  0.1031 -0.4460  0.1431
25345SOL    HW180882   7.239   6.306   8.149  0.1196 -0.1310  0.5619
25345SOL    HW280883   7.259   6.263   8.293  0.1564 -0.9413  0.3173
25346SOL     OW80884   8.057   2.478   7.218 -0.0683 -0.3791  0.0756
25346SOL    HW180885   8.152   2.472   7.211  0.0738  1.5311  0.1122
25346SOL    HW280886   8.033   2.549   7.158 -1.4570 -0.7960  0.1295
25347SOL     OW80887   6.941   2.874   4.654  0.6965 -0.0605  0.1108
25347SOL    HW180888   6.901   2.838   4.733  1.7723 -0.2521  0.5782
25347SOL    HW280889   7.025   2.829   4.647  1.7112  1.7677  0.2482
25348SOL     OW80890   9.597   5.252   6.693  0.2044 -0.2305 -0.0380
25348SOL    HW180891   9.537   5.244   6.619  1.0156 -1.2607 -0.6076
25348SOL    HW280892   9.671   5.302   6.659 -0.6872  1.7642  0.8988
25349SOL     OW80893   7.567   4.155   5.145  0.2346 -0.4849 -0.6345
25349SOL    HW180894   7.538   4.244   5.128  0.7118 -0.8386 -3.5906
25349SOL    HW280895   7.646   4.165   5.197 -1.7730  0.6570  2.3309
25350SOL     OW80896   8.742   3.696   7.565  0.5126 -0.0797 -0.5031
25350SOL    HW180897   8.799   3.680   7.640 -1.6614  1.7449  1.6209
25350SOL    HW280898   8.704   3.782   7.582 -3.0077 -1.3263 -1.7581
25351SOL     OW80899   8.194   5.995   6.916  0.2974  0.2026  0.1604
25351SOL    HW180900   8.260   5.928   6.899 -0.5865 -0.6862  0.2606
25351SOL    HW280901   8.245   6.072   6.942  1.2351 -0.8634  1.5583
25352SOL     OW80902   7.215   4.226   6.251 -0.4724  0.2993 -0.1240
25352SOL    HW180903   7.186   4.296   6.192 -1.2428  0.8948  0.9513
25352SOL    HW280904   7.191   4.257   6.338  2.2056  0.2077  0.6998
25353SOL     OW80905   7.039   6.371   7.204  0.4875 -0.0231 -0.4057
25353SOL    HW180906   7.128   6.341   7.188 -0.5987 -3.5561 -0.3416
25353SOL    HW280907   7.001   6.304   7.261 -2.6988  0.5025 -1.7709
25354SOL     OW80908   9.039   3.717   5.047  0.4313  0.0136 -0.0203
25354SOL    HW180909   9.106   3.752   4.988 -0.9268 -0.4136 -1.8474
25354SOL    HW280910   9.006   3.795   5.094 -1.2629  0.9758 -2.7202
25355SOL     OW80911   8.899   5.273   7.946 -0.4745 -0.0516  0.2736
25355SOL    HW180912   8.941   5.201   7.899 -2.5620 -0.1263 -1.5131
25355SOL    HW280913   8.972   5.326   7.977  1.0041 -0.6043 -2.1085
25356SOL     OW80914   7.434   3.717   7.724 -0.1486  0.1621 -0.3278
25356SOL    HW180915   7.523   3.750   7.713  0.0908 -0.1001  0.7900
25356SOL    HW280916   7.436   3.629   7.685  0.8108 -0.9378  2.1535
25357SOL     OW80917   9.330   6.187   5.908  0.9439  0.4878  0.2710
25357SOL    HW180918   9.323   6.106   5.858  0.5776  1.3638 -1.1487
25357SOL    HW280919   9.340   6.159   5.999  0.8446 -1.1359 -0.2027
25358SOL     OW80920   8.417   4.223   6.801 -0.6764 -0.0284  0.1872
25358SOL    HW180921   8.497   4.173   6.811  0.6829  2.0999  0.2382
25358SOL    HW280922   8.428   4.298   6.860 -0.8391  2.5340 -2.9109
25359SOL     OW80923   9.131   4.110   4.109  0.5823 -0.1255 -0.0620
25359SOL    HW180924   9.170   4.186   4.065  1.2983 -0.8818 -0.7647
25359SOL    HW280925   9.195   4.084   4.175  1.7368 -1.9170 -1.8150
25360SOL     OW80926   8.403   5.840   5.906 -0.0638  0.2519 -0.5735
25360SOL    HW180927   8.366   5.761   5.945  2.9016 -1.1246 -0.3841
25360SOL    HW280928   8.440   5.811   5.823 -0.5678  1.8277 -1.3730
25361SOL     OW80929   9.437   3.394   7.725 -0.1600  0.1654 -0.7074
25361SOL    HW180930   9.442   3.473   7.672  0.7907  0.1158 -0.6927
25361SOL    HW280931   9.494   3.331   7.681 -1.1216 -0.6132 -0.8757
25362SOL     OW80932   7.731   3.864   5.103 -0.1400 -0.0178  0.3146
25362SOL    HW180933   7.804   3.871   5.164 -1.0881 -0.3110  1.5137
25362SOL    HW280934   7.672   3.935   5.128  0.1262  0.7718 -1.2150
25363SOL     OW80935   0.205   5.869   6.927  0.2085 -0.5662 -0.5835
25363SOL    HW180936   0.241   5.926   6.859  0.8225 -0.0012  0.2172
25363SOL    HW280937   0.154   5.804   6.878  2.4983 -1.5353 -1.7490
25364SOL     OW80938   8.328   4.193   5.713 -0.2430  0.8689 -0.0647
25364SOL    HW180939   8.236   4.205   5.690 -0.3359 -0.3263 -0.3461
25364SOL    HW280940   8.328   4.117   5.772  0.6700  0.2543 -0.8426
25365SOL     OW80941   7.903   4.975   8.160  0.1284  0.5413  0.0013
25365SOL    HW180942   7.981   4.943   8.115 -0.8019 -0.6184 -0.8191
25365SOL    HW280943   7.910   5.070   8.156  2.1034  0.4823  1.0096
25366SOL     OW80944   7.951   3.592   7.624  0.0449  0.2785 -0.5248
25366SOL    HW180945   7.910   3.540   7.555  0.8363 -1.0271 -0.0220
25366SOL    HW280946   8.024   3.538   7.655  0.2448  1.2411  0.7185
25367SOL     OW80947   8.412   5.597   6.531 -0.0618  0.5885  0.1894
25367SOL    HW180948   8.504   5.604   6.558  0.2796 -1.2872 -0.4657
25367SOL    HW280949   8.415   5.604   6.436 -0.3929 -1.4458  0.0214
25368SOL     OW80950   9.085   3.480   5.166 -0.0233 -0.6118  0.2513
25368SOL    HW180951   9.117   3.426   5.093 -1.2201 -1.5553  0.3932
25368SOL    HW280952   9.053   3.560   5.125  1.5515 -0.0943  0.0072
25369SOL     OW80953   9.663   4.435   7.434 -0.0847  0.4980  0.2197
25369SOL    HW180954   9.708   4.407   7.354 -0.5414 -4.1487  1.4389
25369SOL    HW280955   9.734   4.451   7.497  0.1002 -0.6841  0.3149
25370SOL     OW80956   9.565   4.846   6.168  0.0594 -0.0900 -0.1034
25370SOL    HW180957   9.593   4.754   6.161  1.4530  0.3029  0.0676
25370SOL    HW280958   9.580   4.881   6.080  1.3662  0.4549  0.3179
25371SOL     OW80959   8.213   4.467   9.222  0.2912 -0.3751 -0.2454
25371SOL    HW180960   8.293   4.428   9.259  0.3033  0.0318  0.1671
25371SOL    HW280961   8.237   4.490   9.133  0.6555 -0.2117 -0.1090
25372SOL     OW80962   8.113   4.316   7.004 -0.1881 -0.0575 -0.1562
25372SOL    HW180963   8.120   4.411   7.008 -3.0547  0.1643  0.4252
25372SOL    HW280964   8.150   4.293   6.919  1.0716  1.5034 -0.0465
25373SOL     OW80965   8.431   5.227   8.230  0.2792  0.5569  0.4087
25373SOL    HW180966   8.426   5.166   8.155 -0.9660 -0.2672  1.1344
25373SOL    HW280967   8.519   5.215   8.264  0.0488 -0.8838  0.5543
25374SOL     OW80968   8.264   6.614   6.603  0.1831  0.2127 -0.2733
25374SOL    HW180969   8.183   6.598   6.652  1.1426 -0.0129  1.2838
25374SOL    HW280970   8.236   6.652   6.520 -1.4917  0.4710  0.4076
25375SOL     OW80971   7.709   3.371   6.335  0.4408  0.5236  0.6394
25375SOL    HW180972   7.801   3.391   6.354  0.5377 -0.6980  1.5319
25375SOL    HW280973   7.659   3.425   6.396  0.5263  1.7618 -0.3627
25376SOL     OW80974   9.099   4.033   6.571 -0.0550  0.1262 -0.5613
25376SOL    HW180975   9.145   4.117   6.577 -0.4466  0.2953  0.0024
25376SOL    HW280976   9.011   4.050   6.603 -0.0947 -0.5326 -0.2948
25377SOL     OW80977   9.414   3.325   4.644  0.3175  0.2382  0.2059
25377SOL    HW180978   9.392   3.354   4.733  1.6911 -1.0491  0.9993
25377SOL    HW280979   9.335   3.280   4.613 -1.4081  3.7174 -0.6040
25378SOL     OW80980   8.318   3.435   5.991  0.6545  0.6815 -0.0702
25378SOL    HW180981   8.330   3.415   6.084  2.8542  0.7906 -0.3041
25378SOL    HW280982   8.323   3.350   5.947  0.3007  0.7076 -0.1646
25379SOL     OW80983   7.111   4.460   6.159  0.0587  0.5093 -0.1531
25379SOL    HW180984   7.067   4.449   6.243  0.7242  1.1020  0.2821
25379SOL    HW280985   7.194   4.503   6.181  1.1058 -1.0775 -0.8902
25380SOL     OW80986   7.943   2.577   8.919  0.3218  0.2886 -0.1023
25380SOL    HW180987   8.035   2.562   8.896  0.1712  0.2348 -0.6845
25380SOL    HW280988   7.897   2.502   8.881 -0.2569  1.4626 -1.7649
25381SOL     OW80989   9.178   3.236   6.227  0.2144 -0.6918 -0.2981
25381SOL    HW180990   9.211   3.255   6.139  0.9540 -1.0172 -0.1002
25381SOL    HW280991   9.241   3.174   6.263  0.4756  0.2037  0.8318
25382SOL     OW80992   9.550   3.477   8.315  0.0267  0.2616 -0.1574
25382SOL    HW180993   9.645   3.491   8.305  0.1457 -0.7952 -0.5628
25382SOL    HW280994   9.541   3.439   8.403 -0.0205  0.4100 -0.0989
25383SOL     OW80995   8.318   6.054   8.666 -0.1403 -0.4243  0.3158
25383SOL    HW180996   8.361   5.987   8.719  1.3328 -0.6275 -1.0980
25383SOL    HW280997   8.391   6.106   8.631 -1.0400 -0.9801 -2.4164
25384SOL     OW80998   8.465   5.631   5.708  0.2585 -0.2837  0.2151
25384SOL    HW180999   8.555   5.660   5.724  0.6350 -0.6287 -1.2808
25384SOL    HW281000   8.473   5.541   5.678 -0.5640 -0.1857 -0.3197
25385SOL     OW81001   8.266   3.857   4.994 -0.2582 -0.6667 -0.4627
25385SOL    HW181002   8.237   3.911   5.067 -1.2580 -0.1538 -1.2362
25385SOL    HW281003   8.350   3.895   4.967 -1.0240  0.5737 -1.0901
25386SOL     OW81004   8.067   4.182   6.320  0.3385 -0.2605  0.2340
25386SOL    HW181005   8.136   4.133   6.275 -0.1278 -0.3872 -0.3462
25386SOL    HW281006   8.112   4.260   6.353  0.7055 -0.1917 -0.3999
25387SOL     OW81007   7.595   5.352   6.725 -0.0215 -0.1457  0.3901
25387SOL    HW181008   7.588   5.269   6.773  0.3818  0.3751  1.3414
25387SOL    HW281009   7.516   5.400   6.748 -0.7662 -0.6861 -0.9795
25388SOL     OW81010   9.110   3.907   7.103  0.2134 -0.3600  0.2777
25388SOL    HW181011   9.099   3.959   7.023  0.5208  0.5109  0.7950
25388SOL    HW281012   9.038   3.934   7.159  0.3299 -0.5425  0.5154
25389SOL     OW81013   7.522   2.622   7.546 -0.1063 -0.0919  0.1040
25389SOL    HW181014   7.583   2.688   7.512 -1.4558 -0.4114 -3.0831
25389SOL    HW281015   7.579   2.549   7.571  1.0201  0.5016 -0.6607
25390SOL     OW81016   9.910   4.693   6.038 -0.3791 -0.1940  0.7907
25390SOL    HW181017   9.822   4.718   6.068  0.1293  0.4802  1.7580
25390SOL    HW281018   9.897   4.609   5.993 -1.8963  1.0924 -1.2514
25391SOL     OW81019   8.206   4.131   8.037 -0.9188  0.1136  0.7683
25391SOL    HW181020   8.221   4.060   7.974  0.4014  2.3398 -1.5156
25391SOL    HW281021   8.121   4.166   8.014 -1.2620 -0.2549  1.4546
25392SOL     OW81022   8.297   4.848   7.962  0.5912 -0.6444  0.4967
25392SOL    HW181023   8.332   4.759   7.974 -1.3053 -1.7116 -1.4681
25392SOL    HW281024   8.308   4.866   7.869 -1.6529  0.0070  0.3366
25393SOL     OW81025   9.725   4.691   5.325  0.0075  0.0797  0.3458
25393SOL    HW181026   9.696   4.766   5.274  1.0225  0.7526  0.7312
25393SOL    HW281027   9.788   4.728   5.388  0.2284 -1.0291  0.7879
25394SOL     OW81028   8.558   3.144   5.429  0.0540 -0.3853  0.1686
25394SOL    HW181029   8.530   3.054   5.413  1.0636 -0.6431 -0.1925
25394SOL    HW281030   8.533   3.192   5.351  1.8767 -0.9126 -0.7552
25395SOL     OW81031   7.690   4.626   6.272  0.5381  0.1210  0.3780
25395SOL    HW181032   7.775   4.588   6.249 -0.4584 -1.3655 -0.9889
25395SOL    HW281033   7.636   4.550   6.296 -0.1349  1.1339  2.1380
25396SOL     OW81034   6.933   4.233   4.904 -0.1097 -0.4147 -0.4216
25396SOL    HW181035   7.006   4.173   4.892  1.0019  1.0573 -1.1716
25396SOL    HW281036   6.958   4.285   4.981 -1.2802 -1.2022  0.5093
25397SOL     OW81037   7.642   3.347   5.218 -0.6879 -0.5755  0.6164
25397SOL    HW181038   7.692   3.427   5.201 -0.6670 -1.1809 -2.4521
25397SOL    HW281039   7.709   3.284   5.245 -0.5245  0.0517  1.7260
25398SOL     OW81040   7.495   4.303   6.221  0.4597  0.2416 -0.3788
25398SOL    HW181041   7.457   4.249   6.151 -1.6683  0.4459  0.6085
25398SOL    HW281042   7.590   4.294   6.208  0.1207 -1.6192 -1.8408
25399SOL     OW81043   9.035   6.262   6.750 -0.4619 -0.4616 -0.7627
25399SOL    HW181044   9.071   6.246   6.838 -2.4586  1.7627  0.5274
25399SOL    HW281045   9.110   6.291   6.699  0.3818  0.1171  0.7506
25400SOL     OW81046   8.732   6.030   5.232  0.1737 -0.4257 -0.1177
25400SOL    HW181047   8.649   5.995   5.200  0.5423 -1.3939 -0.0033
25400SOL    HW281048   8.710   6.067   5.318 -0.9287  2.6173 -1.5901
25401SOL     OW81049   8.010   5.489   7.020 -0.4456 -0.2343 -0.3274
25401SOL    HW181050   8.025   5.415   7.079 -0.3303  0.9713  1.2010
25401SOL    HW281051   7.918   5.484   6.998 -1.1803  0.8606  2.2168
25402SOL     OW81052   9.658   5.572   6.721 -0.0286  0.1224  0.3369
25402SOL    HW181053   9.579   5.594   6.770 -0.6846  1.1252 -1.1353
25402SOL    HW281054   9.713   5.650   6.728  0.1926 -0.0113  0.0909
25403SOL     OW81055   9.523   3.036   9.057  0.2644  0.3498 -0.0830
25403SOL    HW181056   9.517   2.984   9.137  0.1248 -0.3433 -0.5373
25403SOL    HW281057   9.465   3.111   9.073  0.1334  0.1483  0.4118
25404SOL     OW81058   0.535   4.941   8.830  1.0197  0.4213 -0.4710
25404SOL    HW181059   0.620   4.900   8.846  0.9753 -0.3703 -2.1559
25404SOL    HW281060   0.524   4.937   8.735 -0.6443  1.0394 -0.3248
25405SOL     OW81061   8.645   4.074   6.915  0.0924 -0.4384 -0.6390
25405SOL    HW181062   8.689   4.140   6.969  0.4784 -0.4935 -0.8864
25405SOL    HW281063   8.607   4.013   6.979 -1.2778  0.6676 -0.3805
25406SOL     OW81064   7.304   4.845   5.633 -0.3623 -0.1111 -0.1444
25406SOL    HW181065   7.333   4.837   5.542  0.1395  0.2074 -0.0163
25406SOL    HW281066   7.343   4.770   5.678  0.0048  0.1350 -0.0426
25407SOL     OW81067   8.618   5.040   8.340  0.4696  0.0031  0.2251
25407SOL    HW181068   8.626   4.947   8.321  0.3316  0.0950 -0.2993
25407SOL    HW281069   8.678   5.083   8.278 -0.9186  0.3900 -0.8790
25408SOL     OW81070   7.138   2.929   7.912 -0.1067  0.5092 -0.8342
25408SOL    HW181071   7.214   2.927   7.970  0.3108  0.2099 -1.3802
25408SOL    HW281072   7.174   2.951   7.826 -0.7084  0.8776 -0.9959
25409SOL     OW81073   8.143   7.169   6.367  0.3542 -0.1214  0.1090
25409SOL    HW181074   8.181   7.206   6.287  1.9158 -1.7987  0.0484
25409SOL    HW281075   8.136   7.243   6.427  2.6731  0.4279 -0.2754
25410SOL     OW81076   7.760   5.693   6.690 -0.2676  0.1602  0.5971
25410SOL    HW181077   7.812   5.618   6.662  1.4498  1.1995  0.9369
25410SOL    HW281078   7.760   5.752   6.614  0.2853  0.7958  1.0751
25411SOL     OW81079   8.486   6.110   6.952  0.2239 -0.4708  0.0195
25411SOL    HW181080   8.493   6.081   7.043  2.1792  0.1067  0.0590
25411SOL    HW281081   8.480   6.205   6.957 -2.0415 -0.5555 -0.3527
25412SOL     OW81082   7.985   4.162   6.605 -0.6045  0.4475  0.1698
25412SOL    HW181083   8.010   4.076   6.571 -0.8115  1.1859 -1.9024
25412SOL    HW281084   7.894   4.151   6.635 -0.0667 -0.4833  1.5452
25413SOL     OW81085   9.188   5.439   7.263 -0.5385  0.1341 -0.0741
25413SOL    HW181086   9.274   5.469   7.293  0.4706 -0.8840 -1.9182
25413SOL    HW281087   9.128   5.509   7.291  1.1899  1.9134 -0.6641
25414SOL     OW81088   9.506   7.400   7.096 -0.9787  0.0318  0.1691
25414SOL    HW181089   9.454   7.362   7.166 -1.1660 -0.5609 -0.2861
25414SOL    HW281090   9.499   7.338   7.024 -0.8626  0.6735 -0.4092
25415SOL     OW81091   8.263   3.846   5.293 -0.1032  0.3396 -0.0701
25415SOL    HW181092   8.178   3.891   5.291 -0.1059  0.3691  0.4366
25415SOL    HW281093   8.289   3.850   5.385  0.2547 -0.0348 -0.1565
25416SOL     OW81094   9.580   5.193   7.595  0.2970 -0.2840 -1.1508
25416SOL    HW181095   9.536   5.235   7.669 -0.5776 -0.4372 -1.5743
25416SOL    HW281096   9.535   5.228   7.518 -0.2881 -1.7982 -1.5126
25417SOL     OW81097   8.273   5.283   5.596 -0.1371  0.1546  0.1523
25417SOL    HW181098   8.200   5.229   5.564 -2.1646  1.6672  2.1012
25417SOL    HW281099   8.310   5.322   5.518  1.3458 -3.9489 -1.3300
25418SOL     OW81100   9.946   5.126   5.332  0.0670 -1.0390 -0.3511
25418SOL    HW181101   9.863   5.166   5.359  0.4224 -0.4715 -0.0763
25418SOL    HW281102   9.923   5.068   5.260 -0.6551 -1.3097  0.0949
25419SOL     OW81103   8.060   6.480   8.657  0.3983 -0.3133  0.4722
25419SOL    HW181104   8.056   6.386   8.641 -1.1719 -0.1155 -0.3320
25419SOL    HW281105   8.123   6.489   8.729  0.7551 -1.9487  0.3825
25420SOL     OW81106   8.531   5.029   5.472 -0.0949  0.1120 -0.2656
25420SOL    HW181107   8.594   5.045   5.402  0.0809  4.1175  0.7108
25420SOL    HW281108   8.452   5.077   5.445 -1.1869 -1.0897  0.6997
25421SOL     OW81109   9.255   4.017   7.295 -0.4051  0.0673 -0.2286
25421SOL    HW181110   9.206   3.992   7.217 -0.2491 -1.2131  0.0724
25421SOL    HW281111   9.288   3.934   7.330  0.5569  0.7499  0.5059
25422SOL     OW81112   8.535   4.936   6.260 -0.7015  0.0764 -0.1599
25422SOL    HW181113   8.447   4.920   6.293 -1.8358  0.6251 -2.7901
25422SOL    HW281114   8.527   5.014   6.205  2.3349  2.7988  2.9791
25423SOL     OW81115   0.097   5.306   5.111 -0.1787 -0.2903  0.2517
25423SOL    HW181116   0.045   5.351   5.044  0.4491 -1.2701 -0.9201
25423SOL    HW281117   0.033   5.259   5.164 -0.7211  0.8727  0.6471
25424SOL     OW81118   7.649   3.938   6.053  0.0668  0.1156  0.2232
25424SOL    HW181119   7.633   4.029   6.027 -0.6309  0.6897  2.5836
25424SOL    HW281120   7.736   3.941   6.094 -0.6343  0.0408  1.7366
25425SOL     OW81121   8.187   3.521   5.334  0.4081  0.3847 -0.4157
25425SOL    HW181122   8.111   3.561   5.375 -0.6260 -1.8452 -0.0753
25425SOL    HW281123   8.244   3.496   5.407  0.4028 -0.0201 -0.5507
25426SOL     OW81124   9.364   5.445   6.170 -0.1157  0.4698  0.1211
25426SOL    HW181125   9.313   5.511   6.124 -0.8153 -0.3130 -0.2396
25426SOL    HW281126   9.325   5.361   6.144  1.6608 -0.1790 -0.5816
25427SOL     OW81127   7.088   5.880   6.882 -0.1168 -0.2849 -0.0445
25427SOL    HW181128   7.109   5.922   6.965 -0.8530  0.3255 -0.1650
25427SOL    HW281129   7.119   5.790   6.893  1.4981  0.2770  0.1966
25428SOL     OW81130   9.011   5.988   6.096 -0.1525 -0.6047 -0.3336
25428SOL    HW181131   8.931   6.041   6.106  1.6842  1.9358  1.6400
25428SOL    HW281132   9.038   5.969   6.186 -0.0884 -3.9398 -1.0154
25429SOL     OW81133   9.359   4.704   5.595 -0.1886  0.0634 -0.4296
25429SOL    HW181134   9.268   4.706   5.568 -0.8036 -0.2406  1.5246
25429SOL    HW281135   9.380   4.796   5.615  0.1168  0.2136 -1.4019
25430SOL     OW81136   8.879   5.569   9.750 -0.4172 -0.2052 -0.1499
25430SOL    HW181137   8.912   5.584   9.839 -0.2297 -0.9870 -0.0846
25430SOL    HW281138   8.806   5.630   9.741 -1.4866 -1.2803  1.1216
25431SOL     OW81139   9.437   6.204   6.437  0.4633  0.0878 -0.0665
25431SOL    HW181140   9.376   6.244   6.498 -1.0642  0.4872 -1.8212
25431SOL    HW281141   9.489   6.144   6.491  1.8795  3.3412  2.3427
25432SOL     OW81142   8.583   5.124   6.057 -0.3948  0.2634  0.1183
25432SOL    HW181143   8.503   5.140   6.107 -1.0121 -3.4413  0.4793
25432SOL    HW281144   8.553   5.088   5.973  0.8526 -1.1520  0.2476
25433SOL     OW81145   8.458   3.967   7.830  0.4774 -0.2020 -0.0894
25433SOL    HW181146   8.468   4.048   7.882  0.8340  0.1515 -0.7076
25433SOL    HW281147   8.483   3.897   7.890 -2.4652 -0.1124  1.3587
25434SOL     OW81148   9.374   5.308   5.837  0.0008  0.5455  0.0584
25434SOL    HW181149   9.468   5.312   5.816 -0.1642 -0.8474 -0.9788
25434SOL    HW281150   9.371   5.274   5.926  0.4265 -0.8744 -0.4657
25435SOL     OW81151   9.552   0.755   6.763  0.2630 -0.2137  0.1774
25435SOL    HW181152   9.625   0.815   6.749 -0.8048  0.3213 -3.6177
25435SOL    HW281153   9.593   0.672   6.790  1.9228  1.3129  2.4871
25436SOL     OW81154   6.930   7.662   3.859  0.0669 -0.0034 -0.2798
25436SOL    HW181155   6.931   7.715   3.779  0.5433  0.2780 -0.0849
25436SOL    HW281156   7.020   7.662   3.890  0.2552 -1.6341 -0.7421
25437SOL     OW81157   9.078   4.509   8.463 -0.7492  0.6856 -0.1410
25437SOL    HW181158   9.065   4.554   8.379 -1.8611  0.6138 -0.0086
25437SOL    HW281159   9.151   4.556   8.503 -0.8942  1.3949 -0.6833
25438SOL     OW81160   9.891   5.948   8.506 -0.5429  0.1197 -0.5286
25438SOL    HW181161   9.888   5.937   8.601  0.6493 -0.4225 -0.5396
25438SOL    HW281162   9.973   5.907   8.480 -0.5968  0.7559 -1.7369
25439SOL     OW81163   6.502   3.653   5.341 -0.6760  0.0476  0.1957
25439SOL    HW181164   6.443   3.599   5.288  0.4137  1.2008 -2.2821
25439SOL    HW281165   6.507   3.736   5.294  1.5114  0.6010  1.3428
25440SOL     OW81166   7.910   4.133   7.014 -0.2627  0.5386  0.1177
25440SOL    HW181167   7.866   4.116   6.931 -1.1621  0.1647  0.6705
25440SOL    HW281168   7.957   4.215   7.000  0.0611  0.1806 -0.9422
25441SOL     OW81169   6.879   5.185   5.349  0.0754  0.0645 -0.0328
25441SOL    HW181170   6.826   5.253   5.310 -0.0193 -1.0865 -1.9517
25441SOL    HW281171   6.913   5.224   5.430 -1.3207  1.7806 -0.2613
25442SOL     OW81172   9.441   4.082   6.487 -0.0200  0.4785 -0.2172
25442SOL    HW181173   9.519   4.137   6.483 -0.5476  1.2066 -0.4662
25442SOL    HW281174   9.442   4.045   6.576  1.2791 -0.5087 -0.6273
25443SOL     OW81175   7.697   4.077   6.534  0.4813  0.0290  0.3656
25443SOL    HW181176   7.631   4.147   6.523  2.3253  1.4328 -2.1895
25443SOL    HW281177   7.667   4.007   6.477  0.2617 -0.0390  0.5640
25444SOL     OW81178   8.911   5.156   6.789  0.2234  0.0196 -0.3406
25444SOL    HW181179   8.872   5.154   6.702  0.3661  1.4490 -0.4518
25444SOL    HW281180   8.927   5.249   6.807  1.3027 -0.3384  0.7083
25445SOL     OW81181   8.181   2.765   7.269 -0.0650 -0.4837 -0.2200
25445SOL    HW181182   8.234   2.777   7.189  0.1763 -1.4573 -0.2068
25445SOL    HW281183   8.096   2.802   7.246  0.3746  0.3684 -0.5136
25446SOL     OW81184   9.712   5.054   6.828 -0.2697 -0.3223  0.0260
25446SOL    HW181185   9.679   5.130   6.780 -1.0158 -0.4161  0.3866
25446SOL    HW281186   9.683   5.068   6.918 -1.0098 -1.3821 -0.0417
25447SOL     OW81187   8.190   5.459   7.388 -0.3130 -0.5156 -0.1854
25447SOL    HW181188   8.188   5.492   7.478  1.6648 -1.7488  0.3309
25447SOL    HW281189   8.142   5.524   7.338 -0.4039  0.8051  1.5702
25448SOL     OW81190   9.748   3.807   6.907 -0.4434  0.2437 -0.2168
25448SOL    HW181191   9.806   3.856   6.848  1.7162 -1.5700  0.3134
25448SOL    HW281192   9.754   3.855   6.990  0.7458 -0.2436 -0.0144
25449SOL     OW81193   9.401   3.560   7.185 -0.4689  0.3160 -0.0052
25449SOL    HW181194   9.419   3.466   7.183  0.1718  0.4166  0.6861
25449SOL    HW281195   9.482   3.600   7.155 -0.7206  0.6489 -0.2355
25450SOL     OW81196   7.348   3.496   7.950  0.3793 -0.1139 -0.1270
25450SOL    HW181197   7.256   3.509   7.971  0.0828 -1.4353 -0.5981
25450SOL    HW281198   7.354   3.515   7.857  0.2965 -1.5512 -0.4216
25451SOL     OW81199   8.993   3.391   6.406 -0.0341  0.0777 -0.4133
25451SOL    HW181200   9.059   3.424   6.467  0.4920  0.2681 -1.0893
25451SOL    HW281201   9.040   3.330   6.349 -0.3055  0.6912 -1.3027
25452SOL     OW81202   9.538   2.623   6.603  0.2720 -0.2013  0.1022
25452SOL    HW181203   9.581   2.598   6.521  2.0637  1.2504  0.5484
25452SOL    HW281204   9.609   2.655   6.658 -1.2708  1.3673  1.2356
25453SOL     OW81205   8.036   3.566   4.355 -0.4299  0.7284  0.4036
25453SOL    HW181206   8.131   3.567   4.365 -0.3317  1.0900 -0.5694
25453SOL    HW281207   8.021   3.531   4.267 -1.2187  0.0974  0.7765
25454SOL     OW81208   7.691   6.523   6.188 -0.5081 -0.5217 -0.5127
25454SOL    HW181209   7.638   6.602   6.182  1.2987  0.7900  0.4331
25454SOL    HW281210   7.734   6.516   6.102  0.6631  0.5133 -0.0327
25455SOL     OW81211   9.084   4.080   6.300 -0.2714  0.8899  0.1161
25455SOL    HW181212   9.173   4.069   6.268 -0.3469 -1.0520  0.5129
25455SOL    HW281213   9.090   4.061   6.394 -1.3816 -1.0028 -0.1643
25456SOL     OW81214   0.423   5.963   6.480  0.1591  0.0247  0.2982
25456SOL    HW181215   0.477   5.887   6.459  0.4211 -0.0569  1.2378
25456SOL    HW281216   0.452   6.031   6.419  0.2117 -0.5085 -0.2657
25457SOL     OW81217   7.146   4.383   6.484  0.5800 -0.4449  0.2645
25457SOL    HW181218   7.063   4.347   6.515 -0.7350  2.1655 -0.1071
25457SOL    HW281219   7.197   4.397   6.564 -0.6774  1.1502  0.8077
25458SOL     OW81220   8.306   5.507   6.998 -0.3187 -0.1081 -0.0465
25458SOL    HW181221   8.395   5.471   6.996 -0.2992 -0.0231 -1.0265
25458SOL    HW281222   8.257   5.453   6.936 -0.8900  0.0161  0.2948
25459SOL     OW81223   8.069   6.208   6.738  0.2689 -0.1376  0.1778
25459SOL    HW181224   8.115   6.165   6.810 -3.1857  0.7000  3.0278
25459SOL    HW281225   8.102   6.298   6.739  1.5262 -0.5907 -0.4446
25460SOL     OW81226   9.406   3.695   5.851 -0.2419  0.0054 -0.1556
25460SOL    HW181227   9.399   3.759   5.921  1.2548 -2.2892  2.1908
25460SOL    HW281228   9.500   3.690   5.832  0.1160 -3.7928  2.0375
25461SOL     OW81229   7.417   3.890   4.786  0.4301  0.0939 -0.1980
25461SOL    HW181230   7.509   3.886   4.812  0.5496  1.9351 -0.2948
25461SOL    HW281231   7.369   3.889   4.868  0.5064 -1.2587 -0.1566
25462SOL     OW81232   7.946   4.493   6.198 -0.1186  0.0935  0.5094
25462SOL    HW181233   8.010   4.435   6.156 -2.3005 -1.1225 -1.2436
25462SOL    HW281234   7.991   4.526   6.276  2.3142 -1.4286 -0.1981
25463SOL     OW81235   8.259   3.733   7.509  0.0895  0.0967  0.1677
25463SOL    HW181236   8.285   3.640   7.502 -1.2927 -0.1649 -1.7411
25463SOL    HW281237   8.300   3.774   7.433 -1.3737  0.5577 -0.3697
25464SOL     OW81238   9.417   6.338   5.672  0.0821 -0.1186  0.3752
25464SOL    HW181239   9.447   6.427   5.653  0.3103 -0.3596 -0.3897
25464SOL    HW281240   9.433   6.327   5.766 -0.0526  0.6847  0.4963
25465SOL     OW81241   0.279   3.975   5.779  0.0608 -0.3701  0.8576
25465SOL    HW181242   0.259   4.042   5.845 -0.2153  0.9457 -0.5452
25465SOL    HW281243   0.315   3.903   5.830 -0.2615  0.5743  2.4806
25466SOL     OW81244   7.889   3.954   6.153 -0.1637  0.3279 -0.0212
25466SOL    HW181245   7.956   3.909   6.204  1.4995  0.8049 -1.7264
25466SOL    HW281246   7.938   4.017   6.099 -1.7086 -0.8814 -2.9567
25467SOL     OW81247   8.766   6.157   5.492 -0.1019  0.5651  0.2089
25467SOL    HW181248   8.825   6.228   5.466  0.3056 -0.1418 -0.8121
25467SOL    HW281249   8.817   6.103   5.551  0.6178 -0.6136 -1.4753
25468SOL     OW81250   7.938   6.790   5.475 -0.2612  0.2962  0.1122
25468SOL    HW181251   7.919   6.854   5.544  0.9037  1.8669 -0.9853
25468SOL    HW281252   7.996   6.726   5.516  0.1876  1.0546  0.6664
25469SOL     OW81253   8.981   3.641   6.074  0.5349  0.2307  0.1535
25469SOL    HW181254   8.960   3.734   6.086 -0.3827 -0.1511  1.5573
25469SOL    HW281255   9.002   3.609   6.162  0.1396 -1.0631 -0.2099
25470SOL     OW81256   9.472   2.431   5.791 -0.3017 -0.4462 -0.2084
25470SOL    HW181257   9.381   2.421   5.765 -0.8566  0.7820  1.1606
25470SOL    HW281258   9.522   2.379   5.728 -2.0530 -2.1931 -0.1797
25471SOL     OW81259   8.178   3.774   6.314 -0.2338 -0.2191 -0.0860
25471SOL    HW181260   8.211   3.710   6.376  0.1380 -0.4300 -0.4948
25471SOL    HW281261   8.115   3.725   6.260  0.5533 -0.4317 -0.8405
25472SOL     OW81262   8.810   4.185   5.221  0.3175  0.0970 -0.0786
25472SOL    HW181263   8.886   4.197   5.164 -0.8358  0.7005 -1.5051
25472SOL    HW281264   8.766   4.107   5.186 -0.4271  0.5041 -0.0458
25473SOL     OW81265   8.015   3.908   9.084 -0.3821 -0.0640  0.6475
25473SOL    HW181266   8.092   3.914   9.027 -1.4774 -1.3292 -0.9678
25473SOL    HW281267   8.049   3.932   9.171  1.9630 -1.1514  0.0715
25474SOL     OW81268   6.820   3.305   9.366 -0.1912 -0.0040 -0.2056
25474SOL    HW181269   6.749   3.246   9.344  0.0192 -0.0682 -0.7158
25474SOL    HW281270   6.814   3.315   9.461 -0.5866 -0.3837 -0.1882
25475SOL     OW81271   8.036   5.210   8.621 -0.3382  0.2477 -0.2155
25475SOL    HW181272   8.053   5.264   8.699 -1.5914 -1.0411  0.9730
25475SOL    HW281273   7.961   5.251   8.579  0.5422  1.1363 -0.9447
25476SOL     OW81274   7.044   3.231   8.563 -0.2471  0.2899 -0.6618
25476SOL    HW181275   7.076   3.316   8.593  3.3737 -0.8511 -1.0998
25476SOL    HW281276   7.093   3.214   8.483 -1.3849 -1.9380 -0.9233
25477SOL     OW81277   8.437   5.343   6.711 -0.2560  0.0735  0.2821
25477SOL    HW181278   8.479   5.417   6.666 -1.7272  1.5280  1.2456
25477SOL    HW281279   8.488   5.333   6.792  0.1641 -0.1986 -0.0158
25478SOL     OW81280   9.165   4.624   7.897  0.0542 -0.6751  0.7773
25478SOL    HW181281   9.152   4.704   7.948 -0.3323 -1.3522  1.7492
25478SOL    HW281282   9.079   4.605   7.860  0.0584 -0.8555  0.8618
25479SOL     OW81283   8.464   4.383   7.140  0.3410 -0.0418  0.4530
25479SOL    HW181284   8.461   4.455   7.078 -0.2316  0.6964  1.3182
25479SOL    HW281285   8.535   4.406   7.200  1.4613 -1.1674 -0.4216
25480SOL     OW81286   6.879   4.010   7.319 -0.0531 -0.2089  0.5870
25480SOL    HW181287   6.893   3.916   7.325  0.4085 -0.1856 -0.0855
25480SOL    HW281288   6.863   4.038   7.409 -1.7894 -1.1750  0.5898
25481SOL     OW81289   7.763   4.807   0.445  0.1598 -0.0253 -0.1011
25481SOL    HW181290   7.852   4.833   0.469  0.0352 -0.8960  1.3549
25481SOL    HW281291   7.773   4.720   0.406 -0.1077 -0.3237  0.4978
25482SOL     OW81292   7.870   5.460   6.146  0.1709 -0.2190 -0.1788
25482SOL    HW181293   7.957   5.423   6.154 -0.2082 -0.7310  1.8242
25482SOL    HW281294   7.811   5.384   6.151 -0.4722  0.3266  0.6057
25483SOL     OW81295   8.787   3.979   8.857 -0.3447 -0.1997 -0.4599
25483SOL    HW181296   8.851   3.937   8.914 -0.9945 -0.7181 -0.1054
25483SOL    HW281297   8.816   3.959   8.769 -0.9594 -1.8755 -0.2979
25484SOL     OW81298   6.958   4.315   8.797  0.5913 -0.0485 -0.3845
25484SOL    HW181299   7.040   4.362   8.808 -0.7252  1.9978  0.9609
25484SOL    HW281300   6.901   4.375   8.750 -0.0305 -1.6041 -1.6591
25485SOL     OW81301   8.265   6.993   7.898 -0.2291 -0.2526  0.1689
25485SOL    HW181302   8.312   6.914   7.872  0.9093  1.0642 -1.9729
25485SOL    HW281303   8.184   6.991   7.846 -0.1903 -0.0007  0.0980
25486SOL     OW81304   7.586   4.120   0.284  0.6539  0.0393 -0.0666
25486SOL    HW181305   7.501   4.075   0.287  0.8892 -0.4153 -0.1745
25486SOL    HW281306   7.636   4.080   0.355 -0.2269  2.3626  1.9393
25487SOL     OW81307   9.563   4.810   8.120  0.8131 -0.3899  0.4009
25487SOL    HW181308   9.550   4.903   8.102  1.8817 -0.0135  1.5131
25487SOL    HW281309   9.652   4.805   8.156  0.2026 -1.6489  1.7489
25488SOL     OW81310   8.737   4.520   8.029 -0.5297  0.8054 -0.1444
25488SOL    HW181311   8.704   4.501   8.117 -1.4499 -0.5422 -0.7667
25488SOL    HW281312   8.760   4.435   7.993  2.4670  1.5985 -0.2205
25489SOL     OW81313   8.807   5.161   8.190  0.6282  0.0257  0.0632
25489SOL    HW181314   8.846   5.214   8.120  0.0328  0.9658  0.4321
25489SOL    HW281315   8.875   5.098   8.213  0.3663 -1.1832 -2.2801
25490SOL     OW81316   8.402   6.370   6.705 -0.3417  0.1766  0.8189
25490SOL    HW181317   8.399   6.371   6.800 -3.7141 -2.0474  0.8522
25490SOL    HW281318   8.326   6.422   6.678 -0.2863 -0.4589 -0.6053
25491SOL     OW81319   8.565   3.498   9.307  0.2308 -0.9262  0.0474
25491SOL    HW181320   8.547   3.426   9.368  0.7946 -0.7833  0.3910
25491SOL    HW281321   8.593   3.570   9.363  3.0916 -1.5384 -0.5064
25492SOL     OW81322   8.667   5.547   8.947  0.3699  0.2566 -0.0067
25492SOL    HW181323   8.739   5.516   8.892 -0.4799 -1.2345 -0.3079
25492SOL    HW281324   8.685   5.510   9.034  1.1528  1.7429  0.4755
25493SOL     OW81325   9.837   5.081   9.021  0.2866 -0.1842 -0.1170
25493SOL    HW181326   9.774   5.008   9.026 -1.1782  1.0769  0.2522
25493SOL    HW281327   9.811   5.130   8.943  0.9560  0.2310 -0.0809
25494SOL     OW81328   0.345   2.121   9.247 -0.3156  0.1584  0.8465
25494SOL    HW181329   0.425   2.172   9.240 -0.2726 -0.2390 -2.6812
25494SOL    HW281330   0.275   2.183   9.223 -0.9508  0.1116  2.4697
25495SOL     OW81331   8.678   4.896   7.800  0.3756 -0.2454 -0.3572
25495SOL    HW181332   8.746   4.851   7.851 -0.2004 -1.8789 -1.0141
25495SOL    HW281333   8.676   4.850   7.716 -1.4194 -0.0759 -0.4204
25496SOL     OW81334   7.740   6.534   7.153  0.0664  0.0807  0.1668
25496SOL    HW181335   7.828   6.572   7.157  0.2115 -0.4146  1.8811
25496SOL    HW281336   7.753   6.449   7.112  0.8120 -1.1269  2.7973
25497SOL     OW81337   9.958   5.733   6.503 -0.7573 -0.3016 -0.2506
25497SOL    HW181338  10.029   5.750   6.441 -1.4575  0.2157 -0.9279
25497SOL    HW281339   9.948   5.638   6.503 -0.5986 -0.3186 -0.7737
25498SOL     OW81340   8.706   5.881   7.429 -0.2376 -0.1192 -0.1308
25498SOL    HW181341   8.666   5.906   7.512  0.5565 -2.3077  0.9380
25498SOL    HW281342   8.798   5.903   7.438 -0.3185  0.5254 -0.8059
25499SOL     OW81343   7.912   4.495   8.289  0.1335 -0.6080  0.1672
25499SOL    HW181344   7.944   4.514   8.377  1.1565  1.0804 -0.5376
25499SOL    HW281345   7.980   4.441   8.249  1.0257  0.9861 -0.5203
25500SOL     OW81346   9.561   3.419   8.593 -0.5715  0.0663 -0.9379
25500SOL    HW181347   9.498   3.362   8.636 -0.4322  0.5545 -0.0835
25500SOL    HW281348   9.646   3.379   8.611 -0.4857  0.4532 -0.4726
25501SOL     OW81349   8.259   4.418   7.744  0.2046  0.0340 -0.3672
25501SOL    HW181350   8.268   4.491   7.682  0.5223 -0.7219 -1.2339
25501SOL    HW281351   8.328   4.357   7.717  0.8105  0.0240  1.1990
25502SOL     OW81352   7.937   3.248   8.252 -0.2855 -0.5426 -0.2508
25502SOL    HW181353   7.936   3.268   8.346  1.0234 -0.1463 -0.3006
25502SOL    HW281354   8.016   3.196   8.240 -1.6879 -2.5926 -0.7668
25503SOL     OW81355   6.469   4.338   0.604  0.4397  0.5928 -0.3638
25503SOL    HW181356   6.517   4.417   0.580 -0.3095  0.7591 -1.3793
25503SOL    HW281357   6.427   4.359   0.687 -1.4752  2.0457 -1.6425
25504SOL     OW81358   9.299   4.948   6.907 -0.1743  0.1717 -0.2307
25504SOL    HW181359   9.245   4.895   6.847  0.4899 -0.7494 -0.0305
25504SOL    HW281360   9.272   5.038   6.891 -0.1682 -0.0873 -1.7570
25505SOL     OW81361   6.714   5.753   1.159 -0.0231 -0.2482 -0.2496
25505SOL    HW181362   6.728   5.659   1.169 -1.7431 -0.2863  2.1669
25505SOL    HW281363   6.629   5.760   1.115 -0.5826  0.1823  0.8905
25506SOL     OW81364   9.790   5.541   9.480 -0.6994  0.0686 -0.5572
25506SOL    HW181365   9.696   5.542   9.500 -0.5973 -1.5488  0.0912
25506SOL    HW281366   9.827   5.607   9.540 -1.6271  2.0512 -2.0971
25507SOL     OW81367   8.596   6.502   9.404  0.6943  0.6700 -0.3536
25507SOL    HW181368   8.665   6.529   9.343  2.2473 -0.8310  0.6758
25507SOL    HW281369   8.644   6.469   9.480 -1.1876 -0.2126  0.4706
25508SOL     OW81370   8.171   5.344   8.111  0.0458  0.2974  0.0306
25508SOL    HW181371   8.216   5.311   8.189 -0.7771 -0.9581 -0.0178
25508SOL    HW281372   8.084   5.305   8.115  0.3586 -0.7387 -2.1288
25509SOL     OW81373   9.506   3.669   8.739 -0.4115  0.7112 -0.4694
25509SOL    HW181374   9.426   3.630   8.703  0.5152 -0.5516 -1.1943
25509SOL    HW281375   9.531   3.611   8.810  0.0835  0.8713 -0.5119
25510SOL     OW81376   9.878   6.508   8.257  0.0656  0.3240  0.0900
25510SOL    HW181377   9.906   6.515   8.348 -1.6373 -0.2482  0.6802
25510SOL    HW281378   9.782   6.513   8.262 -0.1844 -2.6061 -1.3909
25511SOL     OW81379   7.979   4.871   8.388 -0.1835  0.1226  0.1171
25511SOL    HW181380   7.923   4.904   8.318  0.3261  0.4849 -0.1136
25511SOL    HW281381   8.033   4.805   8.347  2.2020  2.4005 -0.5200
25512SOL     OW81382   7.646   4.651   9.033  0.1778 -0.5227  0.3286
25512SOL    HW181383   7.737   4.622   9.021  1.1222  1.6424  2.0697
25512SOL    HW281384   7.639   4.669   9.127 -2.1367 -0.8397  0.2403
25513SOL     OW81385   8.446   6.876   6.328  0.5129  0.0651  0.7983
25513SOL    HW181386   8.464   6.933   6.403 -0.8383 -0.8387  1.8434
25513SOL    HW281387   8.374   6.919   6.282  1.2336  0.5345  0.0995
25514SOL     OW81388   9.508   4.677   7.867 -0.0059  0.0022  0.1990
25514SOL    HW181389   9.462   4.595   7.883 -0.5803 -0.2944 -2.5726
25514SOL    HW281390   9.503   4.725   7.949  1.6352 -3.3366  2.3453
25515SOL     OW81391   7.715   3.809   7.769 -0.8270  0.3263 -0.1642
25515SOL    HW181392   7.718   3.791   7.863  1.5921 -0.0896 -0.3032
25515SOL    HW281393   7.801   3.844   7.748 -1.1220 -0.2138 -2.3653
25516SOL     OW81394   7.137   4.346   8.398  0.1042  0.0943  0.3214
25516SOL    HW181395   7.115   4.411   8.464  0.7994  0.6151  0.0487
25516SOL    HW281396   7.120   4.261   8.440 -0.1677  0.4376  0.9017
25517SOL     OW81397   9.774   2.784   9.237  0.0421 -0.1787 -0.1268
25517SOL    HW181398   9.826   2.785   9.157  0.3285  0.1710  0.0564
25517SOL    HW281399   9.741   2.874   9.246  0.2774 -0.1297  0.3101
25518SOL     OW81400   0.288   4.086   7.024  0.4810 -0.4023  0.4329
25518SOL    HW181401   0.300   4.002   7.067 -0.7429 -0.1157  1.3610
25518SOL    HW281402   0.327   4.150   7.084 -0.2604 -0.1170  0.6220
25519SOL     OW81403   0.912   5.927   1.410  0.1393 -0.0007 -0.1045
25519SOL    HW181404   0.985   5.907   1.469  1.2643  2.5978 -0.5433
25519SOL    HW281405   0.954   5.934   1.323 -0.7127  0.9290 -0.4500
25520SOL     OW81406   8.446   4.134   7.242 -0.5629 -0.3066  0.3325
25520SOL    HW181407   8.537   4.112   7.260 -0.7709  0.3178  2.2280
25520SOL    HW281408   8.449   4.217   7.195 -0.1774  0.3557  1.4900
25521SOL     OW81409   5.360   2.576   9.033  0.4303  0.4258 -0.4189
25521SOL    HW181410   5.400   2.545   8.952  2.4796 -0.6798  0.9380
25521SOL    HW281411   5.433   2.582   9.094 -1.0776  1.1669  1.3598
25522SOL     OW81412   8.888   7.069   7.419 -0.1657 -0.1203  0.2812
25522SOL    HW181413   8.806   7.073   7.468 -1.2695 -0.8924 -1.4416
25522SOL    HW281414   8.865   7.101   7.331  1.2285 -0.9506 -0.4052
25523SOL     OW81415   9.118   5.975   9.747  0.2105  0.3465 -0.2537
25523SOL    HW181416   9.042   6.030   9.732  0.6097  0.9895  0.0693
25523SOL    HW281417   9.082   5.895   9.787 -0.5214 -0.2163 -2.0137
25524SOL     OW81418   8.910   2.899   9.776  0.4286  0.2520 -0.2002
25524SOL    HW181419   8.926   2.822   9.832  0.0740  0.0709 -0.3494
25524SOL    HW281420   8.880   2.967   9.837 -0.9082 -0.2397 -0.3032
25525SOL     OW81421   8.835   4.795   8.005 -0.2291  0.1022  0.0949
25525SOL    HW181422   8.829   4.702   7.985 -1.3614  0.3343 -0.6442
25525SOL    HW281423   8.929   4.810   8.017  0.0721 -0.9191 -0.8391
25526SOL     OW81424   7.906   4.405   6.517  0.3147 -0.4965  0.0132
25526SOL    HW181425   7.982   4.447   6.478  0.4555  0.2498  1.0977
25526SOL    HW281426   7.932   4.313   6.527  0.7853 -0.4004 -0.3144
25527SOL     OW81427   0.714   6.444   7.347  0.0964 -0.2647  0.2005
25527SOL    HW181428   0.789   6.412   7.396  0.4696 -1.1154 -0.9290
25527SOL    HW281429   0.744   6.450   7.256 -1.8368 -2.7752 -0.6781
25528SOL     OW81430   8.599   5.267   7.967 -0.3499  0.2979  0.0237
25528SOL    HW181431   8.595   5.172   7.974  1.0838  0.2494  0.3003
25528SOL    HW281432   8.693   5.288   7.972 -0.5173  1.5913 -1.5817
25529SOL     OW81433   9.018   6.916   6.514 -0.2628  0.1575 -0.1106
25529SOL    HW181434   9.051   6.827   6.520 -1.8846 -0.4682 -0.2937
25529SOL    HW281435   8.984   6.924   6.425  2.1826  1.8087 -0.9705
25530SOL     OW81436   8.818   3.669   9.395  0.2468 -0.1240 -0.5581
25530SOL    HW181437   8.829   3.606   9.466 -0.8122 -0.2260 -0.4680
25530SOL    HW281438   8.724   3.690   9.396  0.7131  2.1663  0.0546
25531SOL     OW81439   8.543   4.603   6.738 -0.2153  0.2839  0.3073
25531SOL    HW181440   8.604   4.653   6.685 -2.2340  1.3709 -1.0597
25531SOL    HW281441   8.598   4.543   6.789  1.7824 -0.8023 -2.9891
25532SOL     OW81442   8.260   6.150   9.449 -0.2508 -0.5090 -0.5651
25532SOL    HW181443   8.257   6.233   9.401 -0.7278 -1.7478 -2.7411
25532SOL    HW281444   8.172   6.140   9.486 -0.1692 -0.0223 -0.2295
25533SOL     OW81445   9.869   3.665   7.676  0.3905 -0.1450  0.0772
25533SOL    HW181446   9.835   3.696   7.592  0.6139  0.3754  0.1749
25533SOL    HW281447   9.883   3.745   7.727  0.5668 -0.4374  0.4896
25534SOL     OW81448   8.678   4.160   8.160 -0.1762  0.4740 -0.2012
25534SOL    HW181449   8.739   4.161   8.086  1.0924 -1.3269  0.7660
25534SOL    HW281450   8.649   4.069   8.165  1.7484 -0.0558  3.0383
25535SOL     OW81451   9.383   6.342   7.565  0.8043  0.1659 -0.4690
25535SOL    HW181452   9.452   6.342   7.498  1.1823  0.9139 -0.0773
25535SOL    HW281453   9.421   6.389   7.639 -0.1521  0.6271 -0.2747
25536SOL     OW81454   8.378   5.757   7.493 -0.0267  0.1708 -0.4503
25536SOL    HW181455   8.297   5.807   7.484  0.2423  0.7163  0.1237
25536SOL    HW281456   8.404   5.736   7.404 -0.5588  0.3838 -0.6541
25537SOL     OW81457   9.990   3.990   8.697 -0.4502 -0.3663 -0.1052
25537SOL    HW181458   9.967   3.898   8.688 -1.0320 -0.4412  1.8127
25537SOL    HW281459  10.080   3.989   8.729 -0.4868 -0.2628  0.0001
25538SOL     OW81460   8.685   4.334   9.924  0.5772 -0.2540  0.1955
25538SOL    HW181461   8.638   4.283   9.858  0.1118 -0.0356  0.3545
25538SOL    HW281462   8.767   4.286   9.938 -0.4085 -1.6597  1.2695
25539SOL     OW81463   9.488   4.743   8.892 -0.4821  0.1384  1.3058
25539SOL    HW181464   9.513   4.709   8.978  1.5784 -0.8667  0.3336
25539SOL    HW281465   9.458   4.832   8.910  0.0839  0.0052  3.0373
25540SOL     OW81466   6.605   7.324   7.992  0.2437  0.1387  0.1441
25540SOL    HW181467   6.533   7.376   7.956  1.1600  0.2402 -1.5772
25540SOL    HW281468   6.650   7.384   8.050 -0.1588  0.5325  0.0575
25541SOL     OW81469   9.347   4.390   8.732  0.3160 -0.2404  0.0688
25541SOL    HW181470   9.326   4.461   8.792  1.0124 -1.1127  1.3706
25541SOL    HW281471   9.437   4.366   8.753  0.0412 -1.5974 -0.2361
25542SOL     OW81472   9.629   4.110   6.966  0.8418 -0.4089 -0.3286
25542SOL    HW181473   9.647   4.052   7.040  0.7183 -0.5353 -0.3971
25542SOL    HW281474   9.542   4.085   6.936  0.9094 -0.3916 -0.5462
25543SOL     OW81475   9.429   3.311   9.048  0.0932  0.2267  0.2828
25543SOL    HW181476   9.483   3.324   9.126  0.0106  1.3061  0.1644
25543SOL    HW281477   9.366   3.383   9.050 -0.1209  0.0695 -0.6089
25544SOL     OW81478   5.948   4.401   0.557  0.1354  0.2268 -0.2096
25544SOL    HW181479   5.972   4.492   0.575  2.7077 -0.4340 -0.0697
25544SOL    HW281480   5.937   4.361   0.643 -0.3033  0.2414 -0.2605
25545SOL     OW81481   0.458   5.741   6.723 -0.6039 -0.1146  0.2978
25545SOL    HW181482   0.455   5.648   6.700  1.0557  0.2922 -1.6393
25545SOL    HW281483   0.366   5.768   6.723 -1.2091 -1.9768  1.9841
25546SOL     OW81484   9.715   4.853   9.083  0.0261  0.0548 -0.0284
25546SOL    HW181485   9.675   4.779   9.128 -0.3047 -1.1029 -2.1564
25546SOL    HW281486   9.798   4.819   9.050  0.0854  0.7645 -0.6232
25547SOL     OW81487   8.930   2.965   8.181 -0.3244 -0.1222 -0.5679
25547SOL    HW181488   8.915   3.057   8.158 -1.0019  0.0274  0.4357
25547SOL    HW281489   8.941   2.921   8.097  0.5787  0.9712 -1.0422
25548SOL     OW81490   8.768   4.852   7.536 -0.4691  0.2194 -0.1535
25548SOL    HW181491   8.852   4.883   7.570 -0.4004 -0.4042  0.2385
25548SOL    HW281492   8.792   4.786   7.471 -0.7170 -2.3033  2.2459
25549SOL     OW81493   7.783   4.280   6.240  0.3634  0.0154  0.0586
25549SOL    HW181494   7.835   4.200   6.240 -1.4717 -1.2080  1.6889
25549SOL    HW281495   7.848   4.350   6.246  1.8285 -1.5023  2.6942
25550SOL     OW81496   8.095   5.494   9.896 -0.3932 -0.4675  0.3611
25550SOL    HW181497   8.131   5.408   9.919 -0.8723 -0.8740 -0.3701
25550SOL    HW281498   8.009   5.474   9.859 -1.6133  0.5126  2.5703
25551SOL     OW81499   6.968   4.971   9.536 -0.5154  0.0890  0.1599
25551SOL    HW181500   6.881   4.993   9.571  0.1631  1.0689  1.2618
25551SOL    HW281501   7.014   4.930   9.610 -0.2120 -0.9109 -0.5759
25552SOL     OW81502   9.081   5.430   8.044 -0.0647  0.0525 -0.0964
25552SOL    HW181503   9.063   5.516   8.083  0.4046 -0.0277  0.2936
25552SOL    HW281504   9.168   5.439   8.005 -0.5712  0.1673 -1.2279
25553SOL     OW81505   7.241   0.896   9.542 -0.2037  0.2885 -0.1006
25553SOL    HW181506   7.223   0.880   9.635  2.2394  1.3133  0.5728
25553SOL    HW281507   7.299   0.824   9.516 -0.5406  0.2423 -0.7401
25554SOL     OW81508   9.625   2.208   8.710  0.4303  0.1992 -0.1847
25554SOL    HW181509   9.662   2.190   8.796 -2.3457 -0.2994  0.9629
25554SOL    HW281510   9.569   2.285   8.724 -0.7549 -0.4410 -1.2937
25555SOL     OW81511   9.332   3.995   9.192  0.2313 -0.4453 -0.4391
25555SOL    HW181512   9.374   4.067   9.239  0.3049 -0.1548 -0.9518
25555SOL    HW281513   9.288   4.037   9.118  0.9867 -1.0355 -1.2285
25556SOL     OW81514   0.302   4.619   7.943  0.0031 -0.3489  0.0386
25556SOL    HW181515   0.387   4.633   7.903  0.0470  0.1826  0.3149
25556SOL    HW281516   0.257   4.558   7.884  0.5342 -0.5532 -0.1543
25557SOL     OW81517   9.984   3.215   8.576  0.4975 -0.4438 -0.3498
25557SOL    HW181518   9.920   3.208   8.648  0.1794  0.8607 -0.5028
25557SOL    HW281519  10.020   3.126   8.568  1.4480 -0.3334  2.2528
25558SOL     OW81520   8.061   4.031   9.337 -0.5167 -0.6914 -0.4285
25558SOL    HW181521   8.151   4.056   9.356  0.1852 -2.2943 -1.5395
25558SOL    HW281522   8.009   4.107   9.362  0.8971 -0.5552  2.2978
25559SOL     OW81523   8.193   5.360   6.376  0.2315 -0.1180  0.1496
25559SOL    HW181524   8.235   5.289   6.424  0.9637  0.0073 -0.3021
25559SOL    HW281525   8.252   5.434   6.386  0.7223 -0.2661 -1.4735
25560SOL     OW81526   8.382   6.758   7.837  0.2279 -0.2699  0.4038
25560SOL    HW181527   8.323   6.700   7.790  1.1457  0.0075 -1.1296
25560SOL    HW281528   8.449   6.782   7.773  0.7436  1.2262  1.4569
25561SOL     OW81529   9.729   4.101   8.039 -0.0341  0.0540  0.2698
25561SOL    HW181530   9.698   4.176   8.091 -0.4755 -0.4930  0.8045
25561SOL    HW281531   9.821   4.119   8.023 -0.0886  0.6090  0.5819
25562SOL     OW81532   8.091   3.355   8.900  0.5126  0.0375 -0.3685
25562SOL    HW181533   8.062   3.356   8.991  1.9339  0.3036  0.0945
25562SOL    HW281534   8.106   3.262   8.881 -0.9745 -0.1390 -0.7322
25563SOL     OW81535   9.005   5.284   0.092 -0.2879  0.3154 -0.2623
25563SOL    HW181536   8.940   5.275   0.162  1.6399 -0.4497  1.5004
25563SOL    HW281537   8.994   5.206   0.039  1.0843 -1.2527  1.7068
25564SOL     OW81538   9.256   4.943   9.113  0.3006 -0.8829 -0.8994
25564SOL    HW181539   9.322   4.967   9.048 -1.2742  0.5901 -1.9930
25564SOL    HW281540   9.197   5.018   9.116 -0.2246 -1.3463  1.5124
25565SOL     OW81541   8.592   5.975   8.750 -0.2150 -0.0280 -0.0099
25565SOL    HW181542   8.606   5.997   8.843  1.5147 -0.5265 -0.1227
25565SOL    HW281543   8.672   6.006   8.706 -1.2363  0.6435 -1.4232
25566SOL     OW81544   8.741   6.112   8.420 -0.1800 -0.4045 -0.1215
25566SOL    HW181545   8.834   6.092   8.420  0.2214  1.0627 -3.7606
25566SOL    HW281546   8.734   6.199   8.459 -0.1728 -1.0257  1.2709
25567SOL     OW81547   9.409   5.996   8.460  0.2124 -0.3339  0.1789
25567SOL    HW181548   9.445   6.067   8.513 -0.2637  0.2419 -0.2662
25567SOL    HW281549   9.366   5.939   8.524 -1.4824  1.0404  0.2993
25568SOL     OW81550   9.002   2.285   7.469  0.1016 -0.3917 -0.1710
25568SOL    HW181551   9.020   2.303   7.377 -0.8822  0.6271 -0.1711
25568SOL    HW281552   8.934   2.218   7.468  0.3036 -0.5989 -0.1783
25569SOL     OW81553   8.824   5.847   9.440 -0.5820 -0.1058 -0.3011
25569SOL    HW181554   8.804   5.757   9.465 -1.8862  0.8892  2.3106
25569SOL    HW281555   8.760   5.900   9.487 -0.8757  2.1032 -3.0825
25570SOL     OW81556   8.558   4.651   7.323  0.4015  0.5818 -0.1955
25570SOL    HW181557   8.587   4.577   7.376 -0.8674  0.1342 -0.1210
25570SOL    HW281558   8.466   4.664   7.347 -0.2349  0.2909 -2.3485
25571SOL     OW81559   8.816   4.617   8.477  0.4088 -0.0027  0.3548
25571SOL    HW181560   8.760   4.557   8.526  2.1488 -1.2747  0.8375
25571SOL    HW281561   8.904   4.581   8.488  1.1644  1.2919 -1.3781
25572SOL     OW81562   7.938   3.313   8.517 -0.1467  0.4185  0.1257
25572SOL    HW181563   7.926   3.405   8.541 -0.7802 -0.0479  1.6895
25572SOL    HW281564   7.906   3.265   8.593 -0.3296 -1.1074 -0.9008
25573SOL     OW81565   7.265   5.761   8.236  0.1003 -0.2381  0.3735
25573SOL    HW181566   7.311   5.689   8.278 -0.2250  0.0431  1.2297
25573SOL    HW281567   7.235   5.816   8.309 -2.4416 -0.9250 -0.0979
25574SOL     OW81568   8.883   4.962   8.564 -0.5532 -0.7906 -0.0256
25574SOL    HW181569   8.902   4.989   8.474 -3.0570  0.5324 -0.1963
25574SOL    HW281570   8.968   4.938   8.600  0.3875 -2.3147 -3.0565
25575SOL     OW81571   9.298   2.889   9.484  0.0437 -0.2419  0.1182
25575SOL    HW181572   9.286   2.936   9.566 -2.0888 -0.5391  0.0047
25575SOL    HW281573   9.215   2.844   9.469  0.3116 -0.0359 -2.2854
25576SOL     OW81574   9.463   5.218   6.478 -1.1707  0.0770  0.3671
25576SOL    HW181575   9.488   5.140   6.429 -0.2860  0.0569  0.8372
25576SOL    HW281576   9.370   5.229   6.460 -1.2752 -1.0103  0.1901
25577SOL     OW81577   8.088   6.923   8.680 -0.2206  0.3558  0.2685
25577SOL    HW181578   8.097   7.008   8.723  2.9880  0.9670 -1.4971
25577SOL    HW281579   8.154   6.868   8.722  0.2469 -0.1866 -1.1514
25578SOL     OW81580   8.703   3.320   7.828  0.1810 -0.5463 -0.4901
25578SOL    HW181581   8.791   3.325   7.791  0.0974  0.2368 -0.5739
25578SOL    HW281582   8.702   3.237   7.875  1.3657  0.0290  0.5693
25579SOL     OW81583   8.159   4.789   0.281  0.6769 -0.0488  0.3893
25579SOL    HW181584   8.111   4.754   0.206 -0.6611  1.1078  0.6815
25579SOL    HW281585   8.188   4.712   0.329 -0.8661 -0.7705  0.1773
25580SOL     OW81586   7.810   5.555   7.683  0.6724  0.4728  0.4727
25580SOL    HW181587   7.845   5.489   7.742  1.0803 -1.1104 -1.4821
25580SOL    HW281588   7.847   5.533   7.598 -3.1242  0.2123 -1.2133
25581SOL     OW81589   9.905   3.153   0.103  0.2689  0.2965 -0.4928
25581SOL    HW181590   9.907   3.249   0.096  3.5126  0.3040 -0.3045
25581SOL    HW281591   9.924   3.135   0.195 -3.0230 -0.5212  0.0724
25582SOL     OW81592   7.290   3.695   8.961  0.0504  0.8231  0.2313
25582SOL    HW181593   7.345   3.735   9.028 -0.9443  2.5081  0.0855
25582SOL    HW281594   7.211   3.667   9.007  1.0171 -1.6785  0.4595
25583SOL     OW81595   8.099   4.217   7.468 -0.3130 -0.2831  0.2555
25583SOL    HW181596   8.049   4.258   7.539  0.6572 -0.5644  1.1068
25583SOL    HW281597   8.034   4.199   7.401 -1.2854 -0.2267  1.1685
25584SOL     OW81598   9.001   4.835   7.680 -0.2274 -0.6953 -0.2157
25584SOL    HW181599   9.078   4.816   7.627 -1.3676 -0.5068 -1.9668
25584SOL    HW281600   8.972   4.750   7.712  0.3977 -0.8211  0.0223
25585SOL     OW81601   7.960   2.886   9.102 -0.9216  0.3979 -0.7649
25585SOL    HW181602   8.030   2.950   9.104 -0.6397  0.1249 -1.6219
25585SOL    HW281603   7.932   2.878   9.193  1.6004 -1.0773 -0.0806
25586SOL     OW81604   8.403   3.130   8.272 -0.0971  0.4799 -0.3208
25586SOL    HW181605   8.423   3.201   8.332 -2.2699 -0.3975  1.5105
25586SOL    HW281606   8.473   3.066   8.284 -0.3901  0.4239  1.1084
25587SOL     OW81607   5.532   2.275   8.081  0.4271 -0.1797 -0.2251
25587SOL    HW181608   5.555   2.365   8.056  0.9369 -0.4789 -0.8718
25587SOL    HW281609   5.469   2.248   8.014 -2.2288  0.7919  1.7977
25588SOL     OW81610   8.048   4.353   8.765  0.1309  0.2696  0.7458
25588SOL    HW181611   8.078   4.291   8.832  1.1672 -0.4097 -0.3141
25588SOL    HW281612   8.097   4.328   8.686 -2.7757 -0.5002 -0.9113
25589SOL     OW81613   6.724   2.595   7.889  0.8535 -0.3767  0.2106
25589SOL    HW181614   6.645   2.541   7.881  0.0527  0.9928 -1.4119
25589SOL    HW281615   6.775   2.574   7.811  1.7284 -0.6738  0.8650
25590SOL     OW81616   8.722   5.489   0.763  0.5260 -0.1887  0.0725
25590SOL    HW181617   8.814   5.472   0.746  0.2550  0.5360 -2.2365
25590SOL    HW281618   8.677   5.406   0.744  0.7332 -0.6705  1.6244
25591SOL     OW81619   8.618   2.947   8.262 -0.5501 -0.6699 -0.6571
25591SOL    HW181620   8.661   2.912   8.184 -0.3322  1.4807 -1.5103
25591SOL    HW281621   8.664   2.904   8.335  0.8520 -0.8957 -1.6402
25592SOL     OW81622   8.184   3.584   7.157 -0.2691  0.0342  0.5789
25592SOL    HW181623   8.205   3.671   7.192  1.1888  0.3311 -0.9829
25592SOL    HW281624   8.267   3.536   7.162 -0.5615 -0.5941 -0.5255
25593SOL     OW81625   9.110   3.250   9.208  0.0455  0.1238 -0.2503
25593SOL    HW181626   9.027   3.296   9.203 -0.9180 -1.4581  0.9801
25593SOL    HW281627   9.146   3.274   9.294  0.8948  0.8423 -0.7958
25594SOL     OW81628   7.719   4.962   8.573 -0.3721  0.4657  0.5751
25594SOL    HW181629   7.811   4.973   8.550 -0.5168 -0.0622 -0.2704
25594SOL    HW281630   7.717   4.886   8.631 -0.2021  0.8502  1.0895
25595SOL     OW81631   8.969   4.707   7.392  0.3909 -0.6670  0.0877
25595SOL    HW181632   9.048   4.735   7.439  0.2524 -0.6277  0.2957
25595SOL    HW281633   8.960   4.770   7.321 -0.7423  0.6949  1.4032
25596SOL     OW81634   7.018   5.794   9.143  0.2198 -0.5112  0.4026
25596SOL    HW181635   6.924   5.772   9.144 -0.4185  2.1074  1.5662
25596SOL    HW281636   7.044   5.790   9.235  0.4883  1.8685  0.4429
25597SOL     OW81637   9.292   4.135   9.686 -0.1087  0.5414  0.0130
25597SOL    HW181638   9.337   4.077   9.747 -0.7163 -0.3321 -0.3660
25597SOL    HW281639   9.228   4.182   9.739 -0.6597 -0.2440  0.0547
25598SOL     OW81640   9.563   6.812   8.881  0.0103  0.0812  0.0252
25598SOL    HW181641   9.524   6.751   8.818  0.2400 -0.7229  0.6549
25598SOL    HW281642   9.507   6.807   8.958 -1.0800  2.1210 -0.6032
25599SOL     OW81643   8.706   2.818   7.759  0.1786  0.4495  0.5441
25599SOL    HW181644   8.795   2.793   7.736  0.3050 -0.7659  2.2103
25599SOL    HW281645   8.652   2.786   7.687  1.1488  1.9484 -0.8934
25600SOL     OW81646   8.994   2.670   8.586 -0.4496  0.7776  0.2898
25600SOL    HW181647   9.048   2.683   8.508 -2.1984  0.2629 -1.0328
25600SOL    HW281648   9.026   2.736   8.648  0.2774  1.8881 -1.2268
25601SOL     OW81649   8.765   5.015   0.291  0.3593 -0.4996 -0.3627
25601SOL    HW181650   8.824   5.001   0.365  0.4032 -1.6959 -0.6051
25601SOL    HW281651   8.741   4.926   0.263  0.0746 -0.0503 -1.5636
25602SOL     OW81652   8.718   5.674   8.623  0.0756 -0.3014  0.3466
25602SOL    HW181653   8.696   5.752   8.573  0.7539 -0.9475 -0.9861
25602SOL    HW281654   8.812   5.682   8.640  0.5435 -1.6725 -1.3778
25603SOL     OW81655   9.741   5.589   8.378  0.1398 -0.2478  0.4523
25603SOL    HW181656   9.726   5.502   8.416  0.0813  0.0382  1.0907
25603SOL    HW281657   9.823   5.579   8.330  0.0776 -0.6900  0.4297
25604SOL     OW81658   7.677   6.650   7.847  0.0431 -0.4104 -0.0465
25604SOL    HW181659   7.688   6.556   7.838  0.7673 -0.3373  0.0380
25604SOL    HW281660   7.740   6.688   7.786 -1.7688  0.0068 -1.7067
25605SOL     OW81661   7.837   6.821   9.635 -0.3623 -0.0046  0.4031
25605SOL    HW181662   7.931   6.837   9.620 -0.6342  1.8670  0.6216
25605SOL    HW281663   7.810   6.768   9.559  0.6319  0.3649 -0.2262
25606SOL     OW81664   7.677   6.109   7.764  0.5274  0.0887  0.7205
25606SOL    HW181665   7.713   6.041   7.821  1.6760  0.1674  0.1079
25606SOL    HW281666   7.752   6.137   7.710 -0.1628  1.1418  0.2940
25607SOL     OW81667   8.362   3.270   6.545  0.2673  0.4310  0.1374
25607SOL    HW181668   8.365   3.337   6.614 -1.2276  0.9003 -0.2243
25607SOL    HW281669   8.319   3.196   6.587 -0.3722  0.6102 -0.1941
25608SOL     OW81670   9.046   5.118   7.779  0.3842  0.2388  0.6399
25608SOL    HW181671   9.052   5.027   7.751 -0.6337  0.5028 -0.4805
25608SOL    HW281672   9.112   5.164   7.726 -0.8105  0.5562 -0.6196
25609SOL     OW81673   8.458   3.041   0.154  0.0093  0.3738 -0.2111
25609SOL    HW181674   8.492   3.014   0.239 -0.5464 -0.7240 -0.3323
25609SOL    HW281675   8.363   3.028   0.161 -0.2118  1.7752 -0.4635
25610SOL     OW81676   0.064   3.620   8.953 -0.4125  0.1481  0.6452
25610SOL    HW181677   0.156   3.637   8.932 -0.5982  2.2559  1.3612
25610SOL    HW281678   0.055   3.525   8.950  1.8515 -0.0919  0.8093
25611SOL     OW81679   8.807   5.526   9.177  0.0680 -0.5283  0.9207
25611SOL    HW181680   8.824   5.434   9.157 -0.1672 -0.5767  0.9428
25611SOL    HW281681   8.830   5.536   9.269 -1.2883 -0.9073  1.3130
25612SOL     OW81682   8.246   4.281   8.574  0.3046 -0.0191  0.1574
25612SOL    HW181683   8.233   4.199   8.526 -2.7457 -0.3326  1.4109
25612SOL    HW281684   8.219   4.349   8.512 -1.3011 -0.2638  0.5739
25613SOL     OW81685   9.419   5.538   9.260  0.1526 -0.4126  0.3179
25613SOL    HW181686   9.363   5.460   9.264 -2.2055  1.2561  0.6854
25613SOL    HW281687   9.456   5.545   9.349 -0.6132 -0.4124  0.6383
25614SOL     OW81688   1.148   4.374   8.692 -0.0182 -0.0718 -0.3650
25614SOL    HW181689   1.167   4.329   8.609  1.4699 -0.5219  0.2010
25614SOL    HW281690   1.120   4.304   8.751 -0.6372  0.1834 -0.3528
25615SOL     OW81691   8.143   5.219   9.517 -0.9812  0.3800 -0.3453
25615SOL    HW181692   8.224   5.253   9.479  0.3472 -1.4978  0.7552
25615SOL    HW281693   8.077   5.286   9.496  0.3988  0.9942 -3.0103
25616SOL     OW81694   9.055   6.224   7.079  0.1181 -0.0941 -0.5719
25616SOL    HW181695   9.144   6.201   7.106  0.5180  1.2913 -0.6230
25616SOL    HW281696   9.060   6.318   7.061 -0.8663 -0.3953 -2.5535
25617SOL     OW81697   8.515   5.963   7.650  0.1712 -0.3376 -0.3890
25617SOL    HW181698   8.449   5.934   7.587  0.3430 -2.3822  0.3450
25617SOL    HW281699   8.480   5.936   7.735  1.2868 -0.1504  0.1356
25618SOL     OW81700   0.952   4.822   7.321 -0.1725 -0.4011 -0.2131
25618SOL    HW181701   0.887   4.759   7.292 -0.3657 -0.5067  0.4367
25618SOL    HW281702   0.909   4.869   7.392  0.8724 -1.2674  1.0167
25619SOL     OW81703   1.118   5.047   9.333  0.3989 -0.7471 -0.1370
25619SOL    HW181704   1.073   5.005   9.406  0.6644 -0.0418  0.4421
25619SOL    HW281705   1.052   5.103   9.292  0.8536  0.6986  1.0394
25620SOL     OW81706   8.079   6.428   7.656 -0.7349  0.1733  0.2406
25620SOL    HW181707   8.064   6.517   7.625 -0.6422  0.7517  1.8584
25620SOL    HW281708   8.108   6.438   7.746 -0.8781 -1.5088  0.4835
25621SOL     OW81709   7.620   2.958   9.021 -0.1799 -0.0600  0.2792
25621SOL    HW181710   7.544   2.929   9.071  0.7509 -1.7080  0.7884
25621SOL    HW281711   7.600   3.048   8.997 -2.5262 -0.6302 -0.0705
25622SOL     OW81712   8.099   2.372   6.382  0.4800  0.7558  0.1063
25622SOL    HW181713   8.186   2.411   6.370  0.5435  0.2071 -1.3226
25622SOL    HW281714   8.116   2.279   6.398  0.1645  0.7029  0.1467
25623SOL     OW81715   8.999   7.070   6.983 -0.0451 -0.8434 -0.5821
25623SOL    HW181716   8.936   7.061   6.911 -0.6866  0.7968 -0.2516
25623SOL    HW281717   9.068   7.007   6.962 -0.9252 -1.4064 -1.8815
25624SOL     OW81718   7.748   4.086   0.081  0.4653 -0.1834 -0.1206
25624SOL    HW181719   7.824   4.140   0.102  0.7571 -0.6759  0.1106
25624SOL    HW281720   7.695   4.088   0.160  0.8422 -0.8353  0.1571
25625SOL     OW81721   9.633   4.979   6.385  0.0787  0.0822  0.0296
25625SOL    HW181722   9.615   4.943   6.298  1.0492  0.7892 -0.4718
25625SOL    HW281723   9.690   5.054   6.369 -0.9552  1.1478  1.1520
25626SOL     OW81724   9.576   5.109   8.703  0.6298  0.0549 -0.2807
25626SOL    HW181725   9.633   5.035   8.681  0.5598 -0.0021 -0.2712
25626SOL    HW281726   9.634   5.173   8.743  0.2854 -1.0587  2.1434
25627SOL     OW81727   8.223   6.490   8.874 -0.5736 -0.5078  0.0069
25627SOL    HW181728   8.317   6.480   8.891 -0.4758  0.8245  0.3001
25627SOL    HW281729   8.181   6.447   8.948 -0.2077 -1.0269 -0.0758
25628SOL     OW81730   8.380   6.421   7.722 -0.1874 -0.4466 -0.1840
25628SOL    HW181731   8.402   6.334   7.754  2.2012  0.0215 -0.4480
25628SOL    HW281732   8.318   6.455   7.786  0.0580 -1.7334  0.7579
25629SOL     OW81733   0.325   3.233   9.079 -0.2417 -0.2783 -0.2937
25629SOL    HW181734   0.359   3.268   8.996 -0.9605 -0.8433 -0.8264
25629SOL    HW281735   0.345   3.140   9.075 -2.5691 -0.7762 -0.9784
25630SOL     OW81736   9.247   2.795   8.839  0.2508 -0.2724  0.1815
25630SOL    HW181737   9.277   2.705   8.842  0.7498 -0.1742 -1.2106
25630SOL    HW281738   9.315   2.841   8.790 -1.0718  0.3979 -1.0835
25631SOL     OW81739   8.620   3.877   7.118 -0.6755  0.6452 -0.1368
25631SOL    HW181740   8.653   3.953   7.164  1.7006 -1.1892  1.3022
25631SOL    HW281741   8.579   3.823   7.186 -1.9200  0.4030 -1.0509
25632SOL     OW81742   8.366   6.204   7.893 -0.1295 -0.6815  0.0208
25632SOL    HW181743   8.392   6.121   7.932 -0.3039 -0.0696  1.4990
25632SOL    HW281744   8.303   6.241   7.956 -0.8259  0.0935 -1.1126
25633SOL     OW81745   7.128   5.132   7.362 -0.5323 -0.1878 -0.4303
25633SOL    HW181746   7.109   5.189   7.288  0.2753  0.9618  0.2435
25633SOL    HW281747   7.222   5.114   7.355 -0.3580  0.3192  0.5978
25634SOL     OW81748   8.541   6.825   8.486 -0.0396  0.1141  0.1498
25634SOL    HW181749   8.588   6.751   8.524 -2.3205 -2.3896 -1.7741
25634SOL    HW281750   8.485   6.856   8.557  0.9816  0.1005  0.9850
25635SOL     OW81751   6.304   4.604   8.390  0.9609  0.8076  0.9275
25635SOL    HW181752   6.251   4.550   8.449  1.0591 -0.5663 -0.2198
25635SOL    HW281753   6.261   4.689   8.391  0.2169  0.4376  1.9747
25636SOL     OW81754   1.723   4.109   8.842  0.1470  0.2494  0.0153
25636SOL    HW181755   1.644   4.161   8.829 -0.0803 -0.0884  0.0342
25636SOL    HW281756   1.776   4.125   8.764 -0.7050 -0.8738 -0.8056
25637SOL     OW81757   8.857   6.879   8.181  0.2003 -0.1231 -0.1668
25637SOL    HW181758   8.767   6.850   8.162 -0.3796  0.3074  1.8161
25637SOL    HW281759   8.847   6.942   8.252  1.9070  1.4019 -1.2155
25638SOL     OW81760   8.011   4.334   7.693  0.6198  1.0249  0.9011
25638SOL    HW181761   7.981   4.405   7.636  1.2587 -0.3528 -1.1917
25638SOL    HW281762   8.101   4.358   7.716  1.4948  0.0331 -1.3187
25639SOL     OW81763   0.582   3.339   9.120 -0.0714 -0.0131 -0.2011
25639SOL    HW181764   0.549   3.389   9.045 -0.0744 -0.4519 -0.4932
25639SOL    HW281765   0.508   3.283   9.146  0.3377 -0.7766 -0.6653
25640SOL     OW81766   8.589   5.709   7.885 -0.3814  0.1971 -0.4143
25640SOL    HW181767   8.588   5.639   7.950  0.6556 -1.5996 -2.2642
25640SOL    HW281768   8.682   5.728   7.872 -0.6321  1.4526 -0.4236
25641SOL     OW81769   9.169   4.210   9.427  0.3088  0.1473 -0.0771
25641SOL    HW181770   9.183   4.119   9.399  0.6700  0.0722  0.3570
25641SOL    HW281771   9.223   4.220   9.505  0.3363  0.7646 -0.1769
25642SOL     OW81772   8.687   2.549   9.666  0.6045 -0.6655 -0.1163
25642SOL    HW181773   8.768   2.590   9.698  0.3043  0.6683 -1.0087
25642SOL    HW281774   8.617   2.595   9.714  0.2076  0.6060 -1.8470
25643SOL     OW81775   7.717   4.148   7.704 -0.3835  0.6267  1.0861
25643SOL    HW181776   7.789   4.086   7.692  0.8487  2.0471  0.9809
25643SOL    HW281777   7.693   4.173   7.614 -1.8644 -0.7851  1.0701
25644SOL     OW81778   0.008   4.259   8.923  0.2548 -0.3150 -0.0559
25644SOL    HW181779   0.030   4.328   8.986 -0.1048  1.2921 -1.6454
25644SOL    HW281780   0.085   4.203   8.919  0.2190 -0.5338  1.9158
25645SOL     OW81781   8.384   5.698   8.599  0.4266  0.1313  0.2855
25645SOL    HW181782   8.457   5.758   8.589  1.6138 -1.5970 -1.9787
25645SOL    HW281783   8.402   5.651   8.680  0.5360  1.3961  1.0090
25646SOL     OW81784   8.990   4.874   7.169 -0.6064 -0.0145  0.1845
25646SOL    HW181785   9.084   4.853   7.165 -0.7394 -0.7336  0.7138
25646SOL    HW281786   8.982   4.958   7.123 -0.0818 -1.2123 -2.1427
25647SOL     OW81787   8.135   5.405   9.038 -0.4174 -0.0508 -0.0779
25647SOL    HW181788   8.168   5.490   9.065 -2.1216  1.0479 -1.3649
25647SOL    HW281789   8.201   5.370   8.978 -0.5350  1.1334 -0.9057
25648SOL     OW81790   9.105   5.384   9.783 -0.1057 -0.1150  0.1191
25648SOL    HW181791   9.163   5.452   9.817  0.1004 -0.7832  1.1409
25648SOL    HW281792   9.025   5.430   9.759  1.3626  1.0766 -2.7701
25649SOL     OW81793   9.010   4.701   9.694  1.0687 -0.5168  0.1072
25649SOL    HW181794   8.929   4.751   9.681  1.1147 -0.4086  0.2376
25649SOL    HW281795   8.988   4.637   9.761  0.9055 -0.9177 -0.3204
25650SOL     OW81796   0.117   5.207   9.199 -0.2396 -0.2565  0.0480
25650SOL    HW181797   0.209   5.193   9.177 -0.1589  2.5702 -1.6532
25650SOL    HW281798   0.071   5.133   9.158  1.1162 -0.9637 -0.2275
25651SOL     OW81799   9.396   6.337   8.510 -0.1619  0.2427  0.1747
25651SOL    HW181800   9.461   6.376   8.452 -0.7493  0.9693 -0.0000
25651SOL    HW281801   9.437   6.339   8.597 -0.5024  2.0053  0.3094
25652SOL     OW81802   9.517   4.195   9.298 -0.1625  0.4262  0.0667
25652SOL    HW181803   9.575   4.175   9.225  0.3896 -0.6834  0.7988
25652SOL    HW281804   9.565   4.166   9.376 -1.6370 -0.3692  0.6978
25653SOL     OW81805   9.315   5.908   7.899  0.1757  0.3773  0.1978
25653SOL    HW181806   9.337   6.001   7.893  2.6572 -0.0500  1.8257
25653SOL    HW281807   9.251   5.893   7.829  2.1935  2.5990 -2.2167
25654SOL     OW81808   7.976   5.000   6.986 -0.1083  0.2461 -0.5805
25654SOL    HW181809   8.064   5.033   6.965  0.3663 -1.0127 -0.6598
25654SOL    HW281810   7.949   4.954   6.906 -0.8458  0.6215 -0.5513
25655SOL     OW81811   9.577   3.421   9.729  0.2226 -0.1286 -0.0816
25655SOL    HW181812   9.540   3.333   9.724  0.6146 -0.2463 -1.0163
25655SOL    HW281813   9.550   3.454   9.814  2.4628 -2.2349  1.5251
25656SOL     OW81814   0.304   3.750   8.557  0.3810 -0.4743 -0.4562
25656SOL    HW181815   0.371   3.801   8.602  0.1319  0.5677 -1.2648
25656SOL    HW281816   0.287   3.798   8.476 -1.8412 -0.3608  0.0500
25657SOL     OW81817   8.004   5.602   6.551  0.4918 -0.3353 -0.2898
25657SOL    HW181818   8.012   5.544   6.475  0.5821 -0.4383 -0.2024
25657SOL    HW281819   7.981   5.687   6.514 -0.9114 -0.7209 -0.3306
25658SOL     OW81820   9.659   6.717   7.454 -0.8494 -0.1834  0.0818
25658SOL    HW181821   9.578   6.764   7.441 -0.8892 -1.1540 -3.6745
25658SOL    HW281822   9.662   6.653   7.383  2.3491 -1.3562  1.1549
25659SOL     OW81823   9.026   4.866   6.263 -0.0872  0.4419  0.0527
25659SOL    HW181824   9.084   4.869   6.339 -0.3139  1.2058  0.2010
25659SOL    HW281825   9.084   4.856   6.188  0.2392  1.1703  0.2042
25660SOL     OW81826   9.074   3.900   9.274  0.6038  0.2151 -0.9060
25660SOL    HW181827   9.157   3.932   9.240  1.1815  0.4525  0.6856
25660SOL    HW281828   9.076   3.805   9.259  1.2550  0.1931 -0.6778
25661SOL     OW81829   1.181   5.531   8.269  0.1333  0.0955  0.1618
25661SOL    HW181830   1.203   5.572   8.186 -1.6051 -1.0590 -0.9130
25661SOL    HW281831   1.160   5.440   8.246 -2.5592  0.3145  1.4942
25662SOL     OW81832   6.915   5.072   8.698 -0.1924 -0.1168  0.4036
25662SOL    HW181833   6.934   5.018   8.621 -0.8589  1.7728 -1.1026
25662SOL    HW281834   6.992   5.128   8.708 -0.1640 -0.2629  1.0598
25663SOL     OW81835   7.725   4.520   5.804 -0.0008 -0.0440  0.2667
25663SOL    HW181836   7.788   4.586   5.834 -0.4598 -0.0807  1.3297
25663SOL    HW281837   7.650   4.529   5.862 -0.5367 -0.7480 -0.2968
25664SOL     OW81838   8.779   6.481   8.134 -0.2936  0.2868  0.1211
25664SOL    HW181839   8.817   6.568   8.144  2.4398 -0.5214 -2.2447
25664SOL    HW281840   8.721   6.488   8.058  0.1680 -0.0086 -0.2637
25665SOL     OW81841   8.734   3.883   8.308  0.0501 -0.4237 -0.0152
25665SOL    HW181842   8.767   3.845   8.390  0.6461  0.9393  0.3811
25665SOL    HW281843   8.809   3.885   8.250 -0.3334 -1.2192 -0.5478
25666SOL     OW81844   8.664   4.170   8.428  0.4885  0.0368  0.3443
25666SOL    HW181845   8.675   4.153   8.335  1.9422  1.0366  0.3146
25666SOL    HW281846   8.573   4.146   8.447  0.3078 -0.5317 -1.2419
25667SOL     OW81847   8.360   7.225   0.124 -0.1865  0.4552 -0.3664
25667SOL    HW181848   8.414   7.244   0.048 -1.6565  2.3235 -0.9743
25667SOL    HW281849   8.420   7.234   0.199  1.0560 -0.5679 -1.2080
25668SOL     OW81850   7.393   2.555   9.703 -0.3084 -0.7695 -0.0538
25668SOL    HW181851   7.411   2.616   9.775 -0.4272 -0.9843  0.1564
25668SOL    HW281852   7.423   2.602   9.624 -1.5300  0.0701 -0.0375
25669SOL     OW81853   7.621   5.301   8.176 -0.2716 -0.2956 -0.0137
25669SOL    HW181854   7.606   5.383   8.224  1.1183 -0.1275  0.1491
25669SOL    HW281855   7.597   5.232   8.237  1.4216 -0.0805  0.9006
25670SOL     OW81856   8.325   3.512   8.023  0.1615  0.5981  0.4819
25670SOL    HW181857   8.309   3.424   7.990 -1.3973  1.0933 -0.0962
25670SOL    HW281858   8.417   3.529   8.001  0.4301 -0.8065  0.4545
25671SOL     OW81859   9.611   3.116   8.566 -0.6415 -0.5781 -0.0298
25671SOL    HW181860   9.639   3.041   8.514  0.4970 -0.8907  0.9933
25671SOL    HW281861   9.548   3.161   8.511  2.5142  0.6484 -2.8424
25672SOL     OW81862   0.677   5.614   8.017 -0.5677  0.5329  0.1865
25672SOL    HW181863   0.730   5.623   8.096  0.7113  0.4784 -0.6559
25672SOL    HW281864   0.703   5.530   7.980 -1.8038  0.1493  0.1585
25673SOL     OW81865   7.575   4.215   9.266 -0.4129 -0.1546 -0.3606
25673SOL    HW181866   7.531   4.269   9.332 -1.8812 -0.5979 -0.9547
25673SOL    HW281867   7.519   4.220   9.189 -0.0686 -1.7421 -0.7347
25674SOL     OW81868   0.106   3.110   7.277  0.1250  0.1588  0.3147
25674SOL    HW181869   0.121   3.199   7.309 -0.3066  0.5109 -0.4648
25674SOL    HW281870   0.158   3.104   7.197  1.3211 -0.7748  1.1378
25675SOL     OW81871   7.373   4.152   6.505 -0.1311 -0.1892 -0.6854
25675SOL    HW181872   7.414   4.191   6.427 -1.9165  1.9241 -0.6096
25675SOL    HW281873   7.337   4.227   6.553 -0.0518 -1.5850  1.5926
25676SOL     OW81874   9.390   4.612   8.196 -0.1787 -0.5793  0.1298
25676SOL    HW181875   9.445   4.689   8.183 -2.1035  0.5567 -1.4451
25676SOL    HW281876   9.415   4.580   8.283  0.2506  2.1316  1.0508
25677SOL     OW81877   7.834   5.300   5.815  0.4235  0.2568 -0.1850
25677SOL    HW181878   7.759   5.357   5.831 -0.1183 -0.3980 -0.3330
25677SOL    HW281879   7.870   5.282   5.902  0.8507  1.1664 -0.1786
25678SOL     OW81880   7.751   5.910   7.412  0.3996  0.3341 -0.1970
25678SOL    HW181881   7.712   5.998   7.408 -0.9943 -0.2996 -0.8790
25678SOL    HW281882   7.715   5.872   7.492  0.6259  0.2111 -0.1536
25679SOL     OW81883   7.960   4.643   0.138 -0.0785  0.2863 -0.0767
25679SOL    HW181884   8.016   4.574   0.173 -0.1533  0.2747  0.0166
25679SOL    HW281885   7.872   4.621   0.167 -0.1434  0.2634 -0.2903
25680SOL     OW81886   9.211   3.848   8.819  0.7729  0.4962  0.2643
25680SOL    HW181887   9.240   3.931   8.856  2.8833 -0.4790  0.9227
25680SOL    HW281888   9.241   3.850   8.728 -0.1021  0.8691 -0.0232
25681SOL     OW81889   6.536   6.308   0.534 -0.4061 -0.4494  0.1618
25681SOL    HW181890   6.522   6.321   0.628 -0.8064  0.4498 -0.0131
25681SOL    HW281891   6.619   6.261   0.528  0.4184  0.8867  0.8960
25682SOL     OW81892   7.341   3.601   0.459 -0.8104 -0.1947 -0.2646
25682SOL    HW181893   7.367   3.525   0.407 -0.4258 -0.0472 -0.2881
25682SOL    HW281894   7.277   3.647   0.404 -1.3786 -0.7415 -0.0654
25683SOL     OW81895   8.444   4.784   9.466 -0.0795 -0.1809 -0.2980
25683SOL    HW181896   8.352   4.808   9.458 -0.7731 -2.6864 -0.2380
25683SOL    HW281897   8.467   4.746   9.382  1.0988  0.9627 -0.5158
25684SOL     OW81898   7.495   4.657   0.089 -0.3136  0.5160  0.2975
25684SOL    HW181899   7.555   4.585   0.107 -0.3132  0.7014  1.0672
25684SOL    HW281900   7.419   4.616   0.049  0.5887  0.3539 -1.3152
25685SOL     OW81901   0.332   5.972   0.166  0.1532 -0.1565  0.8241
25685SOL    HW181902   0.356   6.065   0.163 -1.4575  0.3040  1.2833
25685SOL    HW281903   0.299   5.953   0.078 -1.5931  0.3286  1.3420
25686SOL     OW81904   9.860   6.225   8.451  0.0406  1.1041 -0.1654
25686SOL    HW181905   9.791   6.263   8.505  0.3999  1.9810 -0.3075
25686SOL    HW281906   9.865   6.133   8.478  0.9759  1.7782  2.0614
25687SOL     OW81907   0.519   5.629   9.661  0.6170 -0.5237  0.0682
25687SOL    HW181908   0.597   5.678   9.691  0.4327 -0.0272 -0.2476
25687SOL    HW281909   0.445   5.676   9.700  0.3256  0.5933 -1.7557
25688SOL     OW81910   8.331   4.153   0.820  0.6591 -0.7773 -0.0031
25688SOL    HW181911   8.315   4.174   0.912 -0.0789 -1.7319  0.0900
25688SOL    HW281912   8.425   4.135   0.816  1.0880  1.3041  0.1448
25689SOL     OW81913   8.957   4.603   9.294  0.1467  0.6488  0.0406
25689SOL    HW181914   8.926   4.683   9.337 -0.5926 -0.3072  1.3095
25689SOL    HW281915   8.981   4.632   9.206  1.1251  2.5107  0.8952
25690SOL     OW81916   6.756   2.222   0.961  0.1460 -0.1377  0.1448
25690SOL    HW181917   6.753   2.304   1.011  2.0621 -0.6728  1.1518
25690SOL    HW281918   6.833   2.231   0.905  0.1787 -1.1397  0.0266
25691SOL     OW81919   8.187   5.627   9.482 -0.0603 -0.4104  0.1110
25691SOL    HW181920   8.258   5.654   9.541 -0.9379  0.8594  0.6018
25691SOL    HW281921   8.230   5.613   9.398  1.1789 -2.0116  0.9589
25692SOL     OW81922   8.285   5.028   0.186 -0.4991 -0.2855  0.1549
25692SOL    HW181923   8.327   5.071   0.261  1.7668 -1.8128 -0.1862
25692SOL    HW281924   8.260   4.941   0.219 -0.7402 -0.4639 -0.4924
25693SOL     OW81925   9.700   6.178   0.026 -0.0331  0.0138  0.2078
25693SOL    HW181926   9.640   6.151   0.095 -1.4306  2.4432  0.0028
25693SOL    HW281927   9.784   6.139   0.050 -1.1600 -1.5122  1.7292
25694SOL     OW81928   6.779   4.167   0.858 -0.5234 -0.0726 -0.2738
25694SOL    HW181929   6.727   4.109   0.804 -0.6993  0.1623 -0.3579
25694SOL    HW281930   6.787   4.121   0.942  4.2439 -2.9451 -2.0802
25695SOL     OW81931   6.444   3.301   7.753  0.5030  0.2402 -0.1281
25695SOL    HW181932   6.436   3.254   7.670  0.0957 -0.4543  0.2925
25695SOL    HW281933   6.353   3.315   7.781  0.6257  1.4256 -0.3265
25696SOL     OW81934   9.183   3.176   8.202 -0.4562 -0.0829  0.3709
25696SOL    HW181935   9.243   3.131   8.261  1.0556  1.4890  0.0704
25696SOL    HW281936   9.226   3.173   8.116  0.0652  2.5090  0.4734
25697SOL     OW81937   9.790   2.725   1.129 -0.1004 -0.1060  0.1258
25697SOL    HW181938   9.883   2.750   1.128  0.8501 -3.1518  2.7831
25697SOL    HW281939   9.757   2.761   1.211 -1.5888  1.8311 -1.2853
25698SOL     OW81940   8.437   6.291   0.536 -0.2374  0.2173 -0.1387
25698SOL    HW181941   8.485   6.256   0.461  1.5497  1.0665  0.5822
25698SOL    HW281942   8.480   6.375   0.555 -0.4181 -0.1449  2.0404
25699SOL     OW81943   6.813   6.030   9.230 -0.1062 -1.1512 -0.0728
25699SOL    HW181944   6.752   5.968   9.191 -0.7776 -0.7422  0.3105
25699SOL    HW281945   6.874   5.976   9.281  0.0550 -1.5846 -0.7279
25700SOL     OW81946   7.098   5.170   0.899  0.8443  0.3848 -0.8875
25700SOL    HW181947   7.014   5.210   0.875  0.0000 -0.3207  0.8146
25700SOL    HW281948   7.129   5.130   0.818 -1.2185 -0.6637 -1.1881
25701SOL     OW81949   8.550   6.385   0.077  0.2304 -0.4318 -0.2631
25701SOL    HW181950   8.493   6.462   0.079  0.8009 -0.0222  0.1557
25701SOL    HW281951   8.581   6.380  -0.014  0.6583  0.1721 -0.1503
25702SOL     OW81952   8.122   3.881   2.388  0.5032  0.1511 -0.3776
25702SOL    HW181953   8.167   3.951   2.436 -0.1100  0.7376 -0.6379
25702SOL    HW281954   8.039   3.921   2.362 -0.0451 -0.8345 -0.1359
25703SOL     OW81955   7.377   3.964   9.995 -0.1889  0.9880  0.3034
25703SOL    HW181956   7.461   3.938   9.957 -0.4194  1.5877 -0.6453
25703SOL    HW281957   7.317   3.967   9.920 -1.1463  0.2105  1.0278
25704SOL     OW81958   8.329   3.233   9.659  0.6956  0.0725 -0.5969
25704SOL    HW181959   8.413   3.272   9.678  0.5079  0.4165 -0.4734
25704SOL    HW281960   8.350   3.143   9.633  1.1800  0.4374 -1.4913
25705SOL     OW81961   8.130   3.333   0.380  0.4778  0.1852  0.1421
25705SOL    HW181962   8.215   3.329   0.424 -0.1031  1.4257  1.3932
25705SOL    HW281963   8.070   3.286   0.439  0.1910 -0.2671 -0.5005
25706SOL     OW81964   7.489   3.814   8.656 -0.2534 -0.1479  0.4343
25706SOL    HW181965   7.576   3.804   8.694 -0.1231 -0.6468 -0.0003
25706SOL    HW281966   7.451   3.726   8.660 -1.2200  0.2991  1.7875
25707SOL     OW81967   7.440   3.746   9.232 -0.2870 -0.6686 -0.5117
25707SOL    HW181968   7.476   3.666   9.270  0.5255 -0.6862 -1.3174
25707SOL    HW281969   7.377   3.776   9.297  1.9137 -0.0682  1.4153
25708SOL     OW81970   9.672   4.185   9.830  0.2069  0.4920  0.5484
25708SOL    HW181971   9.603   4.247   9.805  1.0872  0.8784 -1.0054
25708SOL    HW281972   9.734   4.238   9.880 -0.6635  0.1172  2.0528
25709SOL     OW81973   8.674   4.137   1.136  0.2896 -0.3339  0.4509
25709SOL    HW181974   8.755   4.103   1.097  0.8942 -0.0130  1.3778
25709SOL    HW281975   8.624   4.172   1.063  2.2448  1.9928  0.1508
25710SOL     OW81976   9.795   5.267   8.512 -0.4911  0.4500  0.0795
25710SOL    HW181977   9.807   5.186   8.463  0.0663  0.5685  0.0081
25710SOL    HW281978   9.701   5.272   8.529 -0.3968 -0.8316  1.1209
25711SOL     OW81979   9.350   3.923   0.569  0.4634  0.9138 -0.3728
25711SOL    HW181980   9.395   3.993   0.617  1.1631  1.4288 -1.7420
25711SOL    HW281981   9.343   3.851   0.632  3.3448  0.7637 -0.1403
25712SOL     OW81982   0.058   3.565   9.556  0.2851 -0.2936  0.3720
25712SOL    HW181983   0.153   3.558   9.547  0.5684  0.3944  2.4596
25712SOL    HW281984   0.043   3.567   9.651 -1.7105  0.8661  0.0640
25713SOL     OW81985   0.451   3.103   1.193 -0.4654  0.2975 -0.1129
25713SOL    HW181986   0.380   3.127   1.134 -2.0925  0.7235  1.9589
25713SOL    HW281987   0.408   3.051   1.261  1.5635 -1.1419  0.1016
25714SOL     OW81988   8.537   4.326   0.971 -1.0324  0.3471 -0.1563
25714SOL    HW181989   8.563   4.368   0.889 -0.9737  1.3843  0.3991
25714SOL    HW281990   8.464   4.378   1.003 -1.6179 -0.5717  0.0175
25715SOL     OW81991   9.919   3.942   0.206  0.5266 -0.0587 -0.0277
25715SOL    HW181992  10.010   3.945   0.234  0.1893  1.1344  1.0347
25715SOL    HW281993   9.882   4.026   0.237 -0.7405 -0.2321 -1.0377
25716SOL     OW81994   7.162   3.019   9.455 -0.4794 -0.4382 -0.4630
25716SOL    HW181995   7.108   3.066   9.519  0.5406  0.2394 -0.0820
25716SOL    HW281996   7.108   2.945   9.427 -0.4690 -1.4430  2.0869
25717SOL     OW81997   7.969   3.348   9.872 -0.0565  0.0566 -0.0637
25717SOL    HW181998   8.039   3.287   9.850 -0.3269  0.3903 -1.9108
25717SOL    HW281999   7.924   3.307   9.946  1.5142 -0.5898  0.5754
25718SOL     OW82000   6.654   5.180   9.115 -0.1258  0.3006 -0.1267
25718SOL    HW182001   6.663   5.137   9.030  0.2875  0.9874 -0.4303
25718SOL    HW282002   6.736   5.227   9.128 -0.7666  1.4324 -0.0420
25719SOL     OW82003   9.259   3.559   9.089 -0.4681  0.6249  0.3410
25719SOL    HW182004   9.181   3.560   9.144  0.5327  1.1260  1.7686
25719SOL    HW282005   9.321   3.616   9.134  1.4382 -1.3630  0.2852
25720SOL     OW82006   9.566   6.404   0.372 -0.0426 -0.6083 -0.5674
25720SOL    HW182007   9.624   6.353   0.429  0.7356  0.7914 -0.0765
25720SOL    HW282008   9.624   6.470   0.332 -1.5056  1.6690  0.9664
25721SOL     OW82009   7.212   2.563   8.507  0.0572  0.1191 -0.3694
25721SOL    HW182010   7.285   2.576   8.568 -0.8477 -0.5256  0.8398
25721SOL    HW282011   7.140   2.531   8.561 -1.5116  1.8876 -1.3570
25722SOL     OW82012   6.774   3.197   8.212 -0.5638 -0.1505 -0.1714
25722SOL    HW182013   6.783   3.157   8.299 -2.1239 -0.2493 -0.0448
25722SOL    HW282014   6.864   3.199   8.178 -0.0589 -1.0039  1.0442
25723SOL     OW82015   0.261   4.854   9.014 -0.2216  0.4598 -0.5755
25723SOL    HW182016   0.251   4.818   9.103 -1.4194 -0.9378 -1.2540
25723SOL    HW282017   0.352   4.834   8.991 -0.7116 -1.7239 -0.7327
25724SOL     OW82018   9.884   6.246   8.178 -0.6459  0.1653  0.0172
25724SOL    HW182019   9.848   6.263   8.265  0.2310 -1.4909  0.7192
25724SOL    HW282020   9.933   6.326   8.157  0.2811  0.0478  1.6479
25725SOL     OW82021   9.762   5.114   9.394 -0.7790 -0.5627 -0.4115
25725SOL    HW182022   9.742   5.087   9.483 -0.0911 -1.6816 -0.5948
25725SOL    HW282023   9.681   5.096   9.345 -0.8285 -0.8674 -0.2192
25726SOL     OW82024   9.812   3.486   8.196 -0.5050 -0.3137 -0.1588
25726SOL    HW182025   9.818   3.404   8.146  0.4470 -0.1199 -0.3828
25726SOL    HW282026   9.741   3.535   8.154 -0.4247 -0.6089 -0.6481
25727SOL     OW82027   9.014   5.092   9.109  0.3200 -0.1525 -0.6351
25727SOL    HW182028   8.993   5.079   9.202  1.6000 -1.4698 -0.5089
25727SOL    HW282029   8.936   5.134   9.073 -0.6929 -0.7443  0.7847
25728SOL     OW82030   8.638   4.033   9.851  0.4172  0.5185 -0.1928
25728SOL    HW182031   8.563   3.974   9.842 -1.5852  2.5725  2.2025
25728SOL    HW282032   8.682   4.004   9.931  0.7006  0.9139 -0.2033
25729SOL     OW82033   9.173   4.426   0.048  0.6872 -0.2754  0.0523
25729SOL    HW182034   9.237   4.356   0.054  1.1220 -0.0543 -1.5988
25729SOL    HW282035   9.225   4.506   0.039  0.2224 -0.1308 -1.6465
25730SOL     OW82036   9.980   4.655   8.564 -0.5416  0.2547 -0.3533
25730SOL    HW182037   9.892   4.672   8.597  0.0270  4.0577 -0.5776
25730SOL    HW282038  10.000   4.731   8.509  2.7231 -0.7378 -0.6356
25731SOL     OW82039   8.615   6.760   1.261  0.5264  0.2983 -0.1523
25731SOL    HW182040   8.552   6.817   1.305 -0.1588  0.0926 -0.8426
25731SOL    HW282041   8.668   6.722   1.331 -0.8291 -0.3659  0.5368
25732SOL     OW82042   8.343   5.983   0.268  0.3326  0.0426  0.1256
25732SOL    HW182043   8.407   5.913   0.278  1.1079  0.8164  0.7270
25732SOL    HW282044   8.391   6.062   0.293 -1.2005  0.4943  1.6909
25733SOL     OW82045   8.649   4.808   8.582  0.2436 -0.2068  0.4587
25733SOL    HW182046   8.690   4.726   8.552 -1.6419 -0.2732 -2.1377
25733SOL    HW282047   8.713   4.876   8.561  0.3811 -0.6613 -0.6501
25734SOL     OW82048   9.372   6.157   7.818  0.4804  0.4789 -0.6375
25734SOL    HW182049   9.425   6.206   7.756  1.5891  0.5446  0.3312
25734SOL    HW282050   9.318   6.222   7.862 -2.0219  0.1706 -3.1157
25735SOL     OW82051   8.856   4.241   9.576  0.2848 -0.3128  0.0455
25735SOL    HW182052   8.806   4.321   9.592 -0.4862 -0.9872  1.0692
25735SOL    HW282053   8.947   4.270   9.571 -0.2145  0.9792 -2.2024
25736SOL     OW82054   8.339   4.155   8.968  0.2144 -0.6599 -1.2570
25736SOL    HW182055   8.380   4.138   9.052 -1.1451  0.7717 -0.2765
25736SOL    HW282056   8.263   4.211   8.988 -0.8655 -1.3306 -3.2751
25737SOL     OW82057   7.724   6.370   7.857 -0.7369 -0.2910  0.0746
25737SOL    HW182058   7.738   6.390   7.949 -0.4331  0.0336 -0.0366
25737SOL    HW282059   7.715   6.275   7.854  1.7796 -0.5700  0.1437
25738SOL     OW82060   5.211   3.936   0.531  0.2135  0.0639  0.3438
25738SOL    HW182061   5.293   3.984   0.538 -0.9643  2.0050  1.4965
25738SOL    HW282062   5.206   3.908   0.440  2.9752 -1.6693  0.6728
25739SOL     OW82063   8.133   4.430   8.042 -0.6470 -0.2573 -0.7211
25739SOL    HW182064   8.204   4.443   7.979 -0.2008  0.0437 -0.1580
25739SOL    HW282065   8.062   4.485   8.008 -2.0854 -3.6354 -3.5228
25740SOL     OW82066   7.768   3.280   9.667  0.2508  0.3623  0.3785
25740SOL    HW182067   7.736   3.337   9.737  0.1737  0.9810 -0.1605
25740SOL    HW282068   7.854   3.315   9.645 -0.5649  1.4398 -1.2389
25741SOL     OW82069   7.745   3.554   9.827 -0.3891 -0.2649  0.3573
25741SOL    HW182070   7.674   3.599   9.781 -1.0187 -1.7918 -0.1912
25741SOL    HW282071   7.816   3.618   9.830 -1.2619  0.7558 -0.4426
25742SOL     OW82072   9.525   4.198   8.871 -0.1333  0.1690 -0.2259
25742SOL    HW182073   9.619   4.203   8.889 -0.1315 -1.5901  0.3752
25742SOL    HW282074   9.514   4.115   8.825 -1.4514  0.1146  0.1632
25743SOL     OW82075   8.439   4.604   9.715  0.5004  0.2059 -0.0138
25743SOL    HW182076   8.507   4.643   9.770 -0.6474  1.8019  0.3256
25743SOL    HW282077   8.444   4.654   9.633  1.6039 -1.5597 -1.0599
25744SOL     OW82078   7.276   4.169   0.641 -0.2797  0.4275  0.6996
25744SOL    HW182079   7.182   4.184   0.640 -0.1219  1.6149  2.8716
25744SOL    HW282080   7.285   4.076   0.663 -0.9587 -0.1075 -1.1802
25745SOL     OW82081   7.602   3.986   9.454  0.3590 -0.6354 -0.1863
25745SOL    HW182082   7.639   3.982   9.366 -1.5472  0.4739 -1.0795
25745SOL    HW282083   7.607   4.079   9.478 -3.5034 -0.1232 -1.1192
25746SOL     OW82084   8.332   5.067   9.674  0.2141 -0.1881 -0.2431
25746SOL    HW182085   8.274   5.123   9.622 -0.0286  0.0658  0.2944
25746SOL    HW282086   8.279   5.040   9.748  0.1770 -1.5478 -0.7613
25747SOL     OW82087   9.371   5.525   0.521 -0.6051  0.3681 -0.1738
25747SOL    HW182088   9.345   5.485   0.438  1.3951  0.6984 -0.9927
25747SOL    HW282089   9.306   5.593   0.537  0.9071  2.6648 -3.2969
25748SOL     OW82090   0.173   3.991   0.356 -0.7170 -1.0306 -0.9039
25748SOL    HW182091   0.192   3.950   0.441 -2.2278  0.0872 -0.0049
25748SOL    HW282092   0.246   3.964   0.300  0.9806 -0.7701  1.0945
25749SOL     OW82093   8.293   3.656   9.298 -0.4269 -0.1047 -0.5849
25749SOL    HW182094   8.305   3.704   9.216  0.0873  0.1845 -0.3396
25749SOL    HW282095   8.374   3.606   9.309 -0.4021  0.0333 -0.1348
25750SOL     OW82096   8.332   5.405   1.325 -0.2289 -0.0996  0.0465
25750SOL    HW182097   8.274   5.469   1.284  0.5042 -0.4256 -1.5540
25750SOL    HW282098   8.420   5.442   1.313  0.3808 -2.1606 -2.4305
25751SOL     OW82099   6.729   4.499   0.610 -0.0763  0.2104  0.1181
25751SOL    HW182100   6.705   4.437   0.542 -0.8850  1.1126 -0.4324
25751SOL    HW282101   6.825   4.495   0.613 -0.0381  0.0980 -1.0116
25752SOL     OW82102   7.647   7.569   9.594 -0.3004  0.9696 -0.4119
25752SOL    HW182103   7.575   7.559   9.531  0.0911 -0.9868 -0.6002
25752SOL    HW282104   7.722   7.530   9.550  0.1456  0.2415  0.9776
25753SOL     OW82105   8.598   7.987   0.048 -0.2011  0.0254  0.3522
25753SOL    HW182106   8.619   7.902   0.011 -2.0881 -0.5450  0.5531
25753SOL    HW282107   8.651   7.992   0.128  1.8045  0.1148 -0.9686
25754SOL     OW82108   6.765   6.872   0.018  0.0338 -0.2119 -0.0265
25754SOL    HW182109   6.703   6.834   0.080  0.0413  0.6309  0.4987
25754SOL    HW282110   6.716   6.939  -0.029  0.7364  0.9990  0.9337
25755SOL     OW82111   9.332   5.717   9.562  0.0926 -0.0031 -0.1257
25755SOL    HW182112   9.270   5.754   9.500 -0.5379  2.4938  1.8918
25755SOL    HW282113   9.279   5.702   9.641  1.3155 -1.1833  0.4826
25756SOL     OW82114   8.164   7.051   0.044 -0.4412  0.3733  0.8687
25756SOL    HW182115   8.115   7.083  -0.031 -0.0022  1.0222  0.8515
25756SOL    HW282116   8.233   7.116   0.057  0.8539 -0.8877  0.4511
25757SOL     OW82117   8.360   5.367   3.305  0.1436  0.7204 -0.1859
25757SOL    HW182118   8.414   5.405   3.375 -0.1333  0.9857 -0.1092
25757SOL    HW282119   8.296   5.436   3.285 -0.2358  0.3706 -0.1933
25758SOL     OW82120   8.368   5.694   1.828 -0.5785 -0.0111  0.2964
25758SOL    HW182121   8.375   5.771   1.886 -0.1619  0.6581 -0.6205
25758SOL    HW282122   8.278   5.665   1.837 -0.4262 -0.1274  1.5499
25759SOL     OW82123   8.795   8.430   2.319 -0.2415 -0.8856  0.6052
25759SOL    HW182124   8.710   8.392   2.301 -0.5152 -0.0024 -0.0090
25759SOL    HW282125   8.776   8.518   2.352  0.4291 -0.4761 -0.0597
25760SOL     OW82126   7.233   6.713   0.882  0.1241  0.0953  0.0805
25760SOL    HW182127   7.195   6.638   0.927 -0.4225  0.5766  0.4408
25760SOL    HW282128   7.187   6.716   0.798  0.7631 -0.4848 -0.2955
25761SOL     OW82129   7.741   8.209   9.961  1.0748  0.3534  0.4236
25761SOL    HW182130   7.661   8.259   9.974  0.5756 -0.3580  0.1075
25761SOL    HW282131   7.789   8.258   9.895  0.1363 -0.1064 -0.6090
25762SOL     OW82132   7.703   6.542   2.674 -0.8302  0.3641  0.6786
25762SOL    HW182133   7.737   6.594   2.747 -1.6216  1.0527  0.5639
25762SOL    HW282134   7.700   6.604   2.601 -3.2679  0.5891  0.9385
25763SOL     OW82135   8.032   4.299   0.952  0.1708 -0.1865  0.5217
25763SOL    HW182136   8.024   4.258   0.866  2.1316  1.9647 -0.7365
25763SOL    HW282137   7.998   4.388   0.939  1.3968  0.4730  1.7015
25764SOL     OW82138   7.787   9.125   0.126  0.3198  0.4274  0.1126
25764SOL    HW182139   7.837   9.076   0.061  1.4562  2.7160 -0.7974
25764SOL    HW282140   7.836   9.113   0.207  1.9279  1.9288 -0.5894
25765SOL     OW82141   9.436   6.721   2.570 -0.3309  0.4328  0.1758
25765SOL    HW182142   9.510   6.670   2.604 -1.3482 -1.8308 -0.8376
25765SOL    HW282143   9.455   6.732   2.477 -2.4112 -2.4583 -0.6928
25766SOL     OW82144   7.169   6.369   9.938 -0.3054  0.0904  0.0190
25766SOL    HW182145   7.118   6.289   9.955  1.7307 -1.0644  0.9996
25766SOL    HW282146   7.210   6.389  10.023  0.8858  0.9397 -0.7414
25767SOL     OW82147   7.290   6.204   0.724 -0.1526 -0.8776 -0.1283
25767SOL    HW182148   7.294   6.258   0.645  0.2015 -0.7620 -0.0337
25767SOL    HW282149   7.205   6.161   0.720 -0.2070 -0.7351 -0.4844
25768SOL     OW82150   7.868   4.436   9.104 -0.1111 -0.3668  0.8618
25768SOL    HW182151   7.793   4.470   9.153 -0.4189  0.9267 -0.4645
25768SOL    HW282152   7.853   4.342   9.099 -2.1677 -0.0056 -0.2029
25769SOL     OW82153   5.200   5.945   1.396 -1.1581  0.8861 -0.0864
25769SOL    HW182154   5.295   5.949   1.386 -1.0748 -0.1645  0.2190
25769SOL    HW282155   5.176   6.030   1.431 -0.0863  0.4562  1.7262
25770SOL     OW82156   8.527   8.583   1.054 -0.1965  0.1441  0.1419
25770SOL    HW182157   8.479   8.653   1.098 -0.5419  0.4188 -0.6621
25770SOL    HW282158   8.460   8.530   1.011  0.1252 -0.1671  0.0140
25771SOL     OW82159   6.249   6.730   0.104  0.0213  0.0433 -0.1568
25771SOL    HW182160   6.239   6.824   0.123  1.1642  0.2861 -0.7078
25771SOL    HW282161   6.340   6.711   0.125 -0.5543 -1.2597  1.1977
25772SOL     OW82162   8.998   6.778   0.588  0.2259 -0.1045  0.3667
25772SOL    HW182163   9.009   6.873   0.579 -1.2196 -0.0585 -1.1534
25772SOL    HW282164   9.086   6.746   0.610  1.3341  1.2840 -1.8107
25773SOL     OW82165   0.133   6.912   1.604  0.0627 -0.4211 -0.3644
25773SOL    HW182166   0.165   6.860   1.678  1.1185  0.0840 -0.4506
25773SOL    HW282167   0.043   6.933   1.626  0.0991 -1.0300  0.3668
25774SOL     OW82168   7.032   5.339   1.440  0.2064  0.5429 -0.0871
25774SOL    HW182169   7.039   5.311   1.349  2.4297  0.5538  0.0437
25774SOL    HW282170   6.980   5.419   1.437  1.1962  1.1424 -1.4951
25775SOL     OW82171   9.035   6.814   1.661  0.1367 -0.4398  0.2018
25775SOL    HW182172   9.057   6.861   1.741 -0.2824 -0.1034  0.1208
25775SOL    HW282173   8.985   6.738   1.690  1.4176 -1.2352  0.3922
25776SOL     OW82174   9.429   6.353   0.931 -0.1820  0.1697  0.3136
25776SOL    HW182175   9.427   6.446   0.950  0.0661  0.2915 -0.2480
25776SOL    HW282176   9.443   6.348   0.837 -1.2007 -0.4276  0.1967
25777SOL     OW82177   9.541   6.043   0.906 -0.1012  0.2454  0.0690
25777SOL    HW182178   9.486   6.120   0.893  1.5265  1.9508  2.7884
25777SOL    HW282179   9.485   5.982   0.954 -1.3043 -0.1912 -1.8420
25778SOL     OW82180   7.690   5.856   2.370 -0.3576  0.2801 -0.8102
25778SOL    HW182181   7.761   5.809   2.414 -1.3311 -0.1255  0.3627
25778SOL    HW282182   7.730   5.893   2.292  1.4007  0.9844  0.3975
25779SOL     OW82183   8.533   6.198   0.285 -0.2546  0.3315  0.7725
25779SOL    HW182184   8.614   6.152   0.263  0.4621  1.2687  1.4250
25779SOL    HW282185   8.526   6.268   0.220 -2.0317 -1.4437 -1.0441
25780SOL     OW82186   8.075   7.964   2.173 -0.4388  0.3801 -0.6289
25780SOL    HW182187   8.163   7.930   2.189 -0.3622  1.1428  0.6535
25780SOL    HW282188   8.055   7.938   2.083  0.7266 -0.5990 -0.6192
25781SOL     OW82189   7.869   7.187   2.083  0.2566 -0.6639 -0.1825
25781SOL    HW182190   7.835   7.099   2.095 -1.0257  0.0085  1.2361
25781SOL    HW282191   7.899   7.214   2.170  0.1153  0.5081 -0.4761
25782SOL     OW82192   7.959   5.828   1.446 -0.6671 -0.4974 -0.2542
25782SOL    HW182193   7.883   5.778   1.415 -1.9683  0.9707  0.4866
25782SOL    HW282194   7.970   5.897   1.380 -1.1649  0.4307  0.6287
25783SOL     OW82195   8.473   8.265   0.918  0.6079  0.2848 -0.2129
25783SOL    HW182196   8.428   8.203   0.975  1.2463  0.2351  0.2447
25783SOL    HW282197   8.552   8.290   0.967  0.6815  0.9638 -0.6670
25784SOL     OW82198   7.571   6.108   1.663 -0.0270 -0.5698  0.2805
25784SOL    HW182199   7.638   6.040   1.667  0.4690 -0.0844  0.1801
25784SOL    HW282200   7.619   6.190   1.673 -0.6900 -0.2585  1.0320
25785SOL     OW82201   8.589   6.842   1.669  0.2786  0.0677  0.2428
25785SOL    HW182202   8.555   6.761   1.707 -1.5947  0.1884 -1.1035
25785SOL    HW282203   8.645   6.813   1.597 -1.1813 -0.0516 -0.8791
25786SOL     OW82204   8.604   6.954   0.999 -0.4508 -0.1977 -0.1300
25786SOL    HW182205   8.643   6.936   0.913 -1.7235 -0.5842 -0.6326
25786SOL    HW282206   8.634   7.042   1.021 -0.9631  0.3196 -1.4583
25787SOL     OW82207   7.991   5.204   1.231  0.2285 -0.4640  0.1296
25787SOL    HW182208   8.031   5.184   1.146  0.8951  1.1257  0.0509
25787SOL    HW282209   8.066   5.210   1.291  0.1624  2.3739  0.0151
25788SOL     OW82210   0.257   5.505   0.546  0.0392 -0.6007 -0.0155
25788SOL    HW182211   0.207   5.440   0.596  0.1803 -1.9443 -1.5703
25788SOL    HW282212   0.315   5.545   0.611  0.7783 -2.8657  0.7649
25789SOL     OW82213   8.377   7.565   2.494  0.0226 -0.0483  0.1887
25789SOL    HW182214   8.472   7.575   2.501  0.1158 -0.2186 -0.8709
25789SOL    HW282215   8.355   7.596   2.406 -0.7322 -1.2449 -0.0646
25790SOL     OW82216   7.863   4.683   9.484  0.5036  0.0347  0.3707
25790SOL    HW182217   7.822   4.624   9.547  0.3832  0.1855  0.4339
25790SOL    HW282218   7.953   4.692   9.515  0.2888  0.5715  0.8602
25791SOL     OW82219   9.230   6.533   0.617 -0.0220  0.1476  0.3267
25791SOL    HW182220   9.255   6.615   0.574  0.2902 -1.0096 -1.8144
25791SOL    HW282221   9.246   6.548   0.710  0.7385  2.2470 -0.1145
25792SOL     OW82222   8.332   8.833   2.449  0.0665 -0.4283  0.1153
25792SOL    HW182223   8.263   8.872   2.394 -0.4812  1.3594  1.9647
25792SOL    HW282224   8.285   8.803   2.528  1.1895 -0.5398  0.7534
25793SOL     OW82225   8.903   5.170   0.555 -0.3664  0.2193  0.6665
25793SOL    HW182226   8.947   5.255   0.559 -0.2924  0.3666 -2.4774
25793SOL    HW282227   8.971   5.107   0.581 -0.1826  1.0171  2.1837
25794SOL     OW82228   0.167   6.775   1.916 -0.1642  0.0544  0.2621
25794SOL    HW182229   0.138   6.819   1.996 -1.2101  0.7445 -0.4736
25794SOL    HW282230   0.138   6.685   1.926 -0.0359  0.0686  0.7825
25795SOL     OW82231   9.487   7.451   0.275 -0.2874 -0.0269 -0.1931
25795SOL    HW182232   9.417   7.468   0.212 -0.4803  1.4291  0.3857
25795SOL    HW282233   9.457   7.376   0.325 -0.4513 -0.7594 -1.3742
25796SOL     OW82234   7.885   7.276   0.786 -0.5395 -0.0358  0.4112
25796SOL    HW182235   7.873   7.196   0.736  0.8992 -0.3578  0.5768
25796SOL    HW282236   7.851   7.345   0.729  1.0610 -0.4006 -0.9982
25797SOL     OW82237   7.102   6.466   1.812 -0.5324 -0.5267  0.1639
25797SOL    HW182238   7.139   6.546   1.849 -0.0196 -0.5027 -0.3995
25797SOL    HW282239   7.163   6.397   1.837 -0.2905 -0.5433 -0.4537
25798SOL     OW82240   8.759   6.981   9.297 -0.1770  0.5448  0.0371
25798SOL    HW182241   8.792   7.071   9.293  0.2214  0.3441 -1.6556
25798SOL    HW282242   8.828   6.932   9.342 -0.3474  1.0650  0.8647
25799SOL     OW82243   8.917   6.574   1.844  0.0928  1.0306  0.4935
25799SOL    HW182244   8.957   6.651   1.885  1.3815  0.4980  0.2784
25799SOL    HW282245   8.938   6.502   1.903 -1.3165  0.8713  0.8168
25800SOL     OW82246   7.760   5.177   8.929  0.0814  0.1348 -0.0957
25800SOL    HW182247   7.688   5.124   8.893  0.2170 -0.7796  0.9539
25800SOL    HW282248   7.743   5.265   8.896 -1.6466 -0.0269  0.2799
25801SOL     OW82249   9.101   6.043   2.045 -0.1670 -0.5371  0.1076
25801SOL    HW182250   9.161   6.082   1.982 -1.4203  0.6142 -0.4181
25801SOL    HW282251   9.137   5.957   2.063 -0.1486 -1.2057 -2.7897
25802SOL     OW82252   6.428   6.032   2.176 -0.7212 -0.0083  0.2681
25802SOL    HW182253   6.478   6.086   2.114 -2.1712  0.3002 -0.6611
25802SOL    HW282254   6.444   5.942   2.148 -1.1128  0.1157 -0.3830
25803SOL     OW82255   7.696   5.582   0.585 -1.1219  0.0893 -0.2454
25803SOL    HW182256   7.659   5.581   0.496 -0.9547  0.2789 -0.3173
25803SOL    HW282257   7.759   5.655   0.584 -0.3023 -0.6094 -0.3007
25804SOL     OW82258   9.986   7.044   0.160  0.6326 -0.4095 -0.0195
25804SOL    HW182259   9.906   7.021   0.207  0.4051 -0.6096 -0.5068
25804SOL    HW282260  10.053   6.986   0.198  0.4628 -0.5236  0.1070
25805SOL     OW82261   8.122   7.018   0.781 -0.6101 -0.3024 -0.6057
25805SOL    HW182262   8.189   6.953   0.797 -0.2443  0.3740  0.6321
25805SOL    HW282263   8.163   7.080   0.721  0.0327  0.3479  0.4936
25806SOL     OW82264   9.496   6.725   0.277  0.4950  0.4052 -0.3530
25806SOL    HW182265   9.585   6.690   0.290 -0.2494 -1.4595 -0.1065
25806SOL    HW282266   9.473   6.764   0.361  0.0311 -1.6144  0.4945
25807SOL     OW82267   6.852   5.937   0.068  0.2586 -0.3712  0.6499
25807SOL    HW182268   6.908   5.863   0.091 -0.4922 -0.2994  2.8403
25807SOL    HW282269   6.863   5.999   0.141 -0.7292  0.7595 -0.1376
25808SOL     OW82270   9.674   6.323   0.648  0.4613  0.5468 -0.8548
25808SOL    HW182271   9.752   6.344   0.699  0.5882  0.4608 -1.0119
25808SOL    HW282272   9.617   6.398   0.659  0.1982  0.2176 -0.0114
25809SOL     OW82273   7.469   4.215   8.962 -0.2953  0.1223 -0.4803
25809SOL    HW182274   7.449   4.126   8.935  2.6675 -0.5453 -0.7054
25809SOL    HW282275   7.541   4.242   8.904  0.6089  1.6798  1.3035
25810SOL     OW82276   9.503   5.869   2.353  0.4084 -0.7223 -0.7808
25810SOL    HW182277   9.528   5.778   2.337  0.2985 -1.0582  0.8865
25810SOL    HW282278   9.558   5.897   2.426  0.1926  0.4550 -1.0468
25811SOL     OW82279   7.966   6.399   9.986  0.5731 -0.2909  0.1002
25811SOL    HW182280   7.873   6.411   9.968  0.1709 -2.1778  0.8775
25811SOL    HW282281   8.010   6.430   9.906 -0.6689  1.0282 -0.0956
25812SOL     OW82282   8.125   4.572   3.093  0.0870 -0.1340 -0.9347
25812SOL    HW182283   8.164   4.530   3.170 -0.3114 -1.5023 -1.4748
25812SOL    HW282284   8.187   4.641   3.070 -0.0225  0.6264  0.9138
25813SOL     OW82285   7.331   7.555   1.647  0.6709  0.1983  0.1574
25813SOL    HW182286   7.321   7.635   1.596  0.9945 -0.4684 -0.9719
25813SOL    HW282287   7.404   7.573   1.706  0.5566  0.8388  0.0999
25814SOL     OW82288   9.010   7.523   0.163  0.2953 -0.2036  0.1220
25814SOL    HW182289   9.009   7.606   0.211  0.7330  0.0960 -0.3726
25814SOL    HW282290   8.979   7.458   0.226  0.3822  0.2645  0.6524
25815SOL     OW82291   7.703   6.847   9.399  0.4049 -0.1408  0.6268
25815SOL    HW182292   7.786   6.799   9.392 -0.4404 -1.3008 -1.8243
25815SOL    HW282293   7.729   6.940   9.398  1.7100 -0.4943  0.6114
25816SOL     OW82294   7.199   6.252   9.621 -0.3662  0.2975  0.3038
25816SOL    HW182295   7.111   6.282   9.601 -0.4321  0.5328  0.9219
25816SOL    HW282296   7.222   6.298   9.702 -0.9988 -2.3638  2.0462
25817SOL     OW82297   8.239   4.732   9.925 -0.4409 -0.1306  0.4921
25817SOL    HW182298   8.253   4.641   9.950 -1.4214 -0.1898  0.8355
25817SOL    HW282299   8.326   4.764   9.902 -0.2340 -1.4199 -0.5476
25818SOL     OW82300   9.405   5.690   0.203  0.8958  0.3020 -0.1738
25818SOL    HW182301   9.476   5.644   0.246 -0.0550 -1.3539 -0.3192
25818SOL    HW282302   9.356   5.731   0.275  1.7557  1.1236 -0.0469
25819SOL     OW82303   7.007   5.724   0.100  0.4590 -0.5338 -0.1641
25819SOL    HW182304   6.979   5.643   0.142  0.1957 -0.5863 -0.4381
25819SOL    HW282305   7.100   5.731   0.121 -0.0836  0.4689  2.1248
25820SOL     OW82306   8.403   6.503   2.252  0.1483 -0.1451 -0.6771
25820SOL    HW182307   8.391   6.558   2.329 -0.9297  1.6127 -2.0347
25820SOL    HW282308   8.320   6.456   2.243 -0.5291  1.2303 -1.9152
25821SOL     OW82309   8.625   6.893   0.508  0.1690  0.0866  0.3570
25821SOL    HW182310   8.679   6.821   0.475 -0.8824 -0.3179 -0.4852
25821SOL    HW282311   8.568   6.916   0.435 -1.7189 -0.3580  1.6668
25822SOL     OW82312   9.205   7.011   8.638 -0.4733  0.5561 -0.8444
25822SOL    HW182313   9.133   7.067   8.611  0.4229  2.3749  0.4327
25822SOL    HW282314   9.168   6.956   8.707 -0.4798  2.0093  0.3427
25823SOL     OW82315   6.314   7.510   1.285 -0.7094  0.2917  0.3264
25823SOL    HW182316   6.339   7.500   1.193 -1.1618  0.9305  0.1364
25823SOL    HW282317   6.366   7.584   1.316  0.0692 -0.4450  0.8166
25824SOL     OW82318   9.919   4.838   0.919  0.0693 -0.2826  0.0912
25824SOL    HW182319   9.855   4.879   0.978 -0.9570 -2.0373  0.2385
25824SOL    HW282320  10.000   4.886   0.934 -0.7883  0.8670  1.1646
25825SOL     OW82321   9.226   6.175   1.027 -0.6409  0.7179  0.4266
25825SOL    HW182322   9.289   6.244   1.003 -1.1609  1.4156  1.0543
25825SOL    HW282323   9.218   6.182   1.122 -0.7316 -0.1906  0.4881
25826SOL     OW82324   8.431   4.082   0.348 -0.5535 -0.2039  0.8037
25826SOL    HW182325   8.484   4.160   0.366 -1.1148  0.0852  1.2048
25826SOL    HW282326   8.472   4.013   0.399  1.5684 -0.8074 -1.6326
25827SOL     OW82327   8.076   4.925   1.142 -0.0211 -0.0414 -0.4161
25827SOL    HW182328   8.043   4.951   1.056 -0.1413 -0.6354 -0.5512
25827SOL    HW282329   8.124   5.001   1.173 -0.2482  0.2903 -0.8732
25828SOL     OW82330   7.983   6.282   1.509  0.6193  0.1695  0.8014
25828SOL    HW182331   7.929   6.224   1.456 -0.6718  1.0861  1.1079
25828SOL    HW282332   7.941   6.282   1.595  0.7925  1.3313  0.8912
25829SOL     OW82333   8.039   5.816   1.016  0.3617  0.6537  0.4580
25829SOL    HW182334   7.949   5.810   0.984  0.8976  0.0337 -1.0062
25829SOL    HW282335   8.071   5.899   0.982  0.7266  0.3035 -0.0613
25830SOL     OW82336   8.470   7.456   9.951  0.0072  0.4612 -0.4289
25830SOL    HW182337   8.530   7.515   9.997  0.3433 -0.0029 -0.2711
25830SOL    HW282338   8.524   7.416   9.882  0.4231 -1.5667  1.0601
25831SOL     OW82339   0.362   7.809   1.289 -0.3363  0.3065 -0.0043
25831SOL    HW182340   0.333   7.840   1.375  1.8665  0.7141  0.6307
25831SOL    HW282341   0.450   7.846   1.279 -0.1968 -0.5231 -2.0320
25832SOL     OW82342   8.617   6.460   2.014 -0.1510 -0.1833  0.5121
25832SOL    HW182343   8.688   6.488   2.071 -1.2126  1.5786  1.0257
25832SOL    HW282344   8.610   6.366   2.028  2.1770 -0.4177  0.3115
25833SOL     OW82345   6.383   7.031   1.204  0.1544 -0.4980 -0.2912
25833SOL    HW182346   6.295   7.059   1.179  0.2813  0.5682  0.3985
25833SOL    HW282347   6.434   7.039   1.123 -0.0947  0.1343 -0.3911
25834SOL     OW82348   9.996   6.174   2.619 -0.9508  0.5469 -0.5563
25834SOL    HW182349  10.012   6.238   2.550  0.4954 -0.3896 -1.1008
25834SOL    HW282350   9.962   6.097   2.573  1.4481 -0.6180 -0.4090
25835SOL     OW82351   8.885   6.469   1.589 -0.1472  0.1754  0.2000
25835SOL    HW182352   8.940   6.498   1.661  1.4343  0.7130 -1.1850
25835SOL    HW282353   8.946   6.425   1.529 -1.3345  0.1935 -1.0443
25836SOL     OW82354   7.149   7.850   3.877 -0.0060 -0.1270  0.4164
25836SOL    HW182355   7.117   7.922   3.932 -0.6625 -0.1571  0.0782
25836SOL    HW282356   7.144   7.883   3.788  2.7891  0.5744  0.4933
25837SOL     OW82357   8.505   6.202   9.772 -0.1307  0.0654 -0.1771
25837SOL    HW182358   8.477   6.294   9.772  0.3069  0.2009 -0.7454
25837SOL    HW282359   8.423   6.152   9.769 -0.4530  0.3983  1.8806
25838SOL     OW82360   8.165   5.252   0.433 -0.1790 -0.4519 -0.0712
25838SOL    HW182361   8.160   5.345   0.411  2.2284 -0.3385 -0.3542
25838SOL    HW282362   8.080   5.216   0.408 -0.7187  1.4425 -1.0522
25839SOL     OW82363   0.424   7.066   2.129  0.2095  0.0762 -0.0723
25839SOL    HW182364   0.373   7.138   2.093 -0.2657 -0.8555 -1.3073
25839SOL    HW282365   0.485   7.107   2.190 -0.6904  1.4097 -0.0580
25840SOL     OW82366   8.782   6.726   0.732 -0.0001 -0.3589  0.0340
25840SOL    HW182367   8.764   6.632   0.740  0.7823 -0.3281  2.3678
25840SOL    HW282368   8.857   6.730   0.672 -1.7508 -1.0185 -2.2910
25841SOL     OW82369   8.805   7.074   1.733 -0.2571 -0.5584 -0.3025
25841SOL    HW182370   8.863   7.018   1.784 -0.3450 -0.3071  0.0784
25841SOL    HW282371   8.727   7.021   1.717 -0.1527 -0.7014 -0.3291
25842SOL     OW82372   8.678   5.775   0.656 -0.1507  0.3322 -0.1288
25842SOL    HW182373   8.657   5.685   0.634  1.1740  0.3829 -1.6492
25842SOL    HW282374   8.770   5.786   0.632 -0.2007  2.0040  0.3217
25843SOL     OW82375   6.786   6.578   2.216 -0.1269 -0.1897  0.0285
25843SOL    HW182376   6.834   6.656   2.242 -1.1233  0.2485  0.5996
25843SOL    HW282377   6.812   6.563   2.125 -1.3487  1.9283 -0.7149
25844SOL     OW82378   8.166   8.272   9.184 -0.3891 -0.3748 -0.2480
25844SOL    HW182379   8.081   8.248   9.220 -1.1029 -0.0063 -1.6348
25844SOL    HW282380   8.214   8.190   9.176 -0.0015 -0.4137  1.9891
25845SOL     OW82381   8.048   6.512   9.732  0.8663  0.1728 -0.1272
25845SOL    HW182382   8.020   6.501   9.641 -0.0030  0.3059  0.1193
25845SOL    HW282383   8.065   6.605   9.742 -1.1333  0.5058  0.4252
25846SOL     OW82384   9.588   5.706   8.936  0.3273  0.2505 -0.1545
25846SOL    HW182385   9.631   5.742   9.014 -0.6223  1.8301 -0.3387
25846SOL    HW282386   9.646   5.732   8.864 -0.1176  1.0389 -0.2365
25847SOL     OW82387   9.896   7.123   0.927 -0.8579 -0.6392 -0.7691
25847SOL    HW182388   9.855   7.065   0.990  0.6653 -1.1083 -0.1953
25847SOL    HW282389   9.878   7.084   0.842  0.4059 -2.1292 -0.3698
25848SOL     OW82390   9.509   6.532   0.710  0.8267  0.0509 -0.1029
25848SOL    HW182391   9.506   6.565   0.800 -0.6597 -1.8188  0.5729
25848SOL    HW282392   9.525   6.609   0.656 -0.5622  1.5430  1.5772
25849SOL     OW82393   7.791   6.024   8.688 -0.0806 -0.6164  0.3119
25849SOL    HW182394   7.826   6.108   8.716  0.0703 -0.6240  0.1483
25849SOL    HW282395   7.741   6.044   8.609 -0.4010 -0.6141  0.5144
25850SOL     OW82396   7.587   6.020   2.591  0.6099  0.2400 -0.0533
25850SOL    HW182397   7.604   5.988   2.502  0.7089  0.8854 -0.2694
25850SOL    HW282398   7.673   6.039   2.627  0.6042 -0.5725  0.3897
25851SOL     OW82399   9.558   5.953   2.024  0.5989 -0.6703  0.1552
25851SOL    HW182400   9.498   5.980   2.094  1.6691 -0.3227  0.9518
25851SOL    HW282401   9.634   5.917   2.070  1.8138  0.6177 -0.7907
25852SOL     OW82402   7.786   6.141   1.312 -0.2854 -0.3187  0.3927
25852SOL    HW182403   7.741   6.194   1.378  1.2148  1.0942  0.3043
25852SOL    HW282404   7.715   6.106   1.258 -1.4036  0.1688  1.5100
25853SOL     OW82405   8.195   6.358   0.435 -0.6138 -0.0960  0.0444
25853SOL    HW182406   8.188   6.452   0.420 -2.1519 -0.6052 -2.7288
25853SOL    HW282407   8.289   6.341   0.437 -0.3229  1.4047  0.0377
25854SOL     OW82408   9.654   6.094   1.530 -0.2034  0.2069 -0.3557
25854SOL    HW182409   9.692   6.169   1.576 -2.8357  1.7250 -0.5785
25854SOL    HW282410   9.680   6.018   1.582  0.8910  1.4447  0.9448
25855SOL     OW82411   8.725   5.156   0.883  0.0151  0.0227 -0.5095
25855SOL    HW182412   8.746   5.197   0.799  0.4716  0.5975 -0.1176
25855SOL    HW282413   8.699   5.067   0.860  1.1894 -0.1555 -1.1584
25856SOL     OW82414   8.618   7.441   2.326  0.4138  0.6992 -0.0270
25856SOL    HW182415   8.537   7.482   2.296  1.1249  0.7868 -1.9044
25856SOL    HW282416   8.674   7.514   2.353  0.7100  0.8011 -0.9002
25857SOL     OW82417   6.039   5.919   1.771 -0.1574  0.4379  0.1374
25857SOL    HW182418   6.094   5.933   1.848  1.1035 -0.2146 -0.6136
25857SOL    HW282419   6.055   5.996   1.716  1.8729 -0.8375 -1.1395
25858SOL     OW82420   8.398   6.745   2.359  0.5075 -0.0677 -0.2714
25858SOL    HW182421   8.489   6.755   2.333  0.7949 -0.9505  0.3848
25858SOL    HW282422   8.361   6.833   2.351  1.5541  0.4046 -0.0068
25859SOL     OW82423   8.963   5.887   1.577 -0.3499  0.5016 -0.3900
25859SOL    HW182424   8.939   5.979   1.578 -1.7921  0.1449  0.6925
25859SOL    HW282425   9.036   5.880   1.639 -0.3490  0.8938 -0.3455
25860SOL     OW82426   8.248   5.715   0.138  0.2150 -0.4268 -0.3958
25860SOL    HW182427   8.175   5.737   0.195  0.1628 -0.0493 -0.6015
25860SOL    HW282428   8.319   5.774   0.165  0.5799 -1.0644  0.0706
25861SOL     OW82429   8.348   6.649   1.171  0.1806 -0.4551 -0.0981
25861SOL    HW182430   8.324   6.660   1.079  0.5564 -0.9245 -0.2538
25861SOL    HW282431   8.435   6.689   1.178 -1.3391  2.8949  0.8621
25862SOL     OW82432   8.936   5.499   1.200 -0.1631 -0.0272 -0.1941
25862SOL    HW182433   8.879   5.467   1.270  0.2823  1.9479  1.1344
25862SOL    HW282434   8.882   5.563   1.152 -0.8253 -2.1677 -2.3745
25863SOL     OW82435   8.146   8.290   2.001 -0.7040  0.0360 -0.3480
25863SOL    HW182436   8.111   8.339   2.076  1.0131  0.9708 -0.1436
25863SOL    HW282437   8.073   8.233   1.974 -1.0207 -1.1566  2.7286
25864SOL     OW82438   8.704   5.116   1.984  0.8799 -0.0179  0.5510
25864SOL    HW182439   8.645   5.041   1.985  0.2460  0.4833  1.0596
25864SOL    HW282440   8.766   5.097   1.914 -1.1769  0.4433 -1.4640
25865SOL     OW82441   8.436   6.037   0.810 -0.3351 -0.4959 -0.0978
25865SOL    HW182442   8.520   5.996   0.832  0.0313  1.1016  1.5118
25865SOL    HW282443   8.371   5.976   0.844  0.2005 -0.2063  1.4776
25866SOL     OW82444   8.297   6.414   9.820  0.2556  0.4015  0.0779
25866SOL    HW182445   8.250   6.340   9.859  0.2521  0.6115  0.4689
25866SOL    HW282446   8.238   6.447   9.752  0.5864 -0.4433 -0.6296
25867SOL     OW82447   8.713   8.317   1.306 -0.0318  0.7447  0.2555
25867SOL    HW182448   8.714   8.351   1.217 -0.1576  1.7602  0.6405
25867SOL    HW282449   8.780   8.248   1.307  0.6265  1.3817 -0.3610
25868SOL     OW82450   7.784   6.770   0.515 -0.0059 -0.0318  0.8708
25868SOL    HW182451   7.787   6.679   0.545 -0.4803 -0.1352  0.5964
25868SOL    HW282452   7.787   6.765   0.420 -3.6672  0.0617  0.6783
25869SOL     OW82453   9.757   6.519   2.299 -0.0028  0.1268 -0.3660
25869SOL    HW182454   9.717   6.536   2.213  0.2673  2.7124 -0.0013
25869SOL    HW282455   9.847   6.551   2.290  0.0072  0.4501  0.9202
25870SOL     OW82456   7.239   6.089   1.222  0.6814 -0.2575  0.1273
25870SOL    HW182457   7.284   6.162   1.181  0.1341  1.3003  2.2116
25870SOL    HW282458   7.292   6.068   1.299 -0.2806 -0.6571  0.6930
25871SOL     OW82459   8.870   4.482   1.024  0.3998 -0.4653  0.1032
25871SOL    HW182460   8.871   4.504   1.117  0.4006 -0.4990  0.1114
25871SOL    HW282461   8.885   4.388   1.021  0.7995 -0.4027  0.0510
25872SOL     OW82462   7.781   6.504   1.125 -0.1834  0.0516  0.5391
25872SOL    HW182463   7.716   6.556   1.078  0.4630 -0.7677 -1.3472
25872SOL    HW282464   7.768   6.525   1.217 -1.4793  1.7486 -0.0128
25873SOL     OW82465   7.402   7.308   0.804  0.3270 -0.1570 -0.9881
25873SOL    HW182466   7.491   7.316   0.838 -0.4993 -0.3614  1.3465
25873SOL    HW282467   7.382   7.393   0.766 -0.0826  1.4446  2.6107
25874SOL     OW82468   8.011   5.706   0.672  0.3958 -0.2162 -0.1183
25874SOL    HW182469   7.959   5.786   0.682 -0.4373 -0.7369 -0.2396
25874SOL    HW282470   8.089   5.734   0.623 -0.0601  0.4501 -0.4664
25875SOL     OW82471   7.105   5.760   1.343 -0.1498 -0.1397  0.2796
25875SOL    HW182472   7.020   5.715   1.343 -0.4911  0.4869 -0.7481
25875SOL    HW282473   7.119   5.785   1.252  0.7366  0.5333  0.5925
25876SOL     OW82474   8.123   6.361   1.194  0.4010  0.2292  0.2565
25876SOL    HW182475   8.108   6.443   1.242 -1.6262  0.0440 -0.0237
25876SOL    HW282476   8.159   6.301   1.260  0.5528  0.9070  0.7993
25877SOL     OW82477   7.210   5.003   0.658  0.6204 -0.5964  0.0174
25877SOL    HW182478   7.230   4.957   0.577  1.6107  0.1017 -0.1409
25877SOL    HW282479   7.290   4.997   0.709  0.1751 -0.5692  0.7288
25878SOL     OW82480   9.303   6.210   1.813 -0.2814 -0.7051  0.0684
25878SOL    HW182481   9.335   6.233   1.725  0.2711  0.8328  0.6495
25878SOL    HW282482   9.382   6.206   1.867 -0.7738 -0.0606  0.8382
25879SOL     OW82483   8.719   7.017   0.755  0.4763 -0.2483  0.0264
25879SOL    HW182484   8.809   6.990   0.770  0.3265 -1.1007 -0.5663
25879SOL    HW282485   8.694   6.973   0.673 -1.0754 -1.5123  1.1497
25880SOL     OW82486   9.324   5.067   0.486 -0.1589  0.0943  0.1959
25880SOL    HW182487   9.257   5.029   0.542 -1.0626  0.6634 -0.4883
25880SOL    HW282488   9.386   5.108   0.547  1.5595 -3.5417  1.0346
25881SOL     OW82489   7.972   7.982   2.441 -0.1289 -0.2016  0.6314
25881SOL    HW182490   8.055   8.027   2.457 -0.1379 -0.6363  1.9544
25881SOL    HW282491   7.962   7.983   2.346  0.9911  0.5690  0.5152
25882SOL     OW82492   7.809   5.183   2.722  0.1842 -0.1958  0.3274
25882SOL    HW182493   7.793   5.130   2.800  2.4428 -2.0158 -0.3811
25882SOL    HW282494   7.737   5.247   2.720 -1.3492 -1.8131  2.4250
25883SOL     OW82495   8.507   5.824   0.399 -0.6226 -0.0617 -0.3393
25883SOL    HW182496   8.579   5.858   0.453 -1.6078  0.1163  0.8907
25883SOL    HW282497   8.544   5.748   0.355  0.0588 -0.5282  1.0071
25884SOL     OW82498   7.693   6.365   1.928 -0.1644  0.2565 -0.8754
25884SOL    HW182499   7.642   6.432   1.973 -0.2501 -0.7599  0.6006
25884SOL    HW282500   7.721   6.305   1.998  1.2394 -0.3774 -1.9350
25885SOL     OW82501   6.654   6.132   1.067 -0.2933 -0.6710 -0.0736
25885SOL    HW182502   6.736   6.149   1.114 -0.6731  0.8827  0.0665
25885SOL    HW282503   6.617   6.056   1.111  0.1570 -0.2322  1.1079
25886SOL     OW82504   9.033   6.161   0.343 -0.2835  0.1153 -0.1820
25886SOL    HW182505   9.030   6.249   0.304  0.7515  0.4707  0.5143
25886SOL    HW282506   9.031   6.177   0.438  3.5275 -0.3928  0.0654
25887SOL     OW82507   9.042   7.047   0.546 -1.0414 -0.1486  0.2927
25887SOL    HW182508   9.129   7.084   0.560 -0.4357 -0.5688 -2.0929
25887SOL    HW282509   8.995   7.116   0.499 -1.7335 -0.2368  0.8507
25888SOL     OW82510   8.601   8.615   2.178  0.3337 -0.4217 -0.0372
25888SOL    HW182511   8.669   8.663   2.225  0.9623 -0.0647 -1.2933
25888SOL    HW282512   8.616   8.635   2.086 -0.9842 -0.9848 -0.3903
25889SOL     OW82513   9.233   8.256   8.516 -0.7230  0.2297  0.2850
25889SOL    HW182514   9.303   8.285   8.574 -0.3826 -0.0109  0.0017
25889SOL    HW282515   9.201   8.336   8.475 -0.0200  0.2587 -0.2329
25890SOL     OW82516   7.767   6.217   2.154  0.8925 -0.0181 -0.6236
25890SOL    HW182517   7.797   6.126   2.155  0.1821 -0.2628 -1.1923
25890SOL    HW282518   7.758   6.241   2.247 -0.6041 -1.0947 -0.4709
25891SOL     OW82519   9.602   2.844   0.443  0.0675  0.5708  0.0160
25891SOL    HW182520   9.604   2.827   0.537  0.2737  1.6799  0.2321
25891SOL    HW282521   9.691   2.822   0.414  0.2006  0.8374  0.2065
25892SOL     OW82522   9.041   6.382   0.846 -0.1385  0.0140 -0.1384
25892SOL    HW182523   9.035   6.344   0.934 -0.8379 -1.6027 -0.8657
25892SOL    HW282524   9.094   6.461   0.858 -2.4602  1.2983  2.1984
25893SOL     OW82525   9.985   6.988   0.497  0.2820  0.0853 -0.0163
25893SOL    HW182526   9.928   6.921   0.459  0.9689  0.0495 -1.0186
25893SOL    HW282527  10.023   6.945   0.575 -1.7161  0.4253  1.1777
25894SOL     OW82528   7.488   6.573   1.965 -0.0349  0.1750  0.1903
25894SOL    HW182529   7.537   6.619   2.033  0.2963  0.7648 -0.4501
25894SOL    HW282530   7.452   6.496   2.010  1.5592 -0.3216  0.6312
25895SOL     OW82531   8.406   7.552   0.553 -0.4376 -0.2114 -0.0945
25895SOL    HW182532   8.363   7.506   0.481  0.1519  1.1586 -1.3573
25895SOL    HW282533   8.416   7.642   0.521  1.1742  0.0628  1.1107
25896SOL     OW82534   0.590   7.940   1.218  0.5043  0.2667 -0.4265
25896SOL    HW182535   0.633   8.005   1.273  1.2821 -1.3457  0.9139
25896SOL    HW282536   0.660   7.880   1.192 -0.9428 -2.7476  2.2943
25897SOL     OW82537   7.855   6.121   0.481 -0.2475  0.3488  0.3660
25897SOL    HW182538   7.883   6.161   0.398  0.3044  0.4873  0.6132
25897SOL    HW282539   7.818   6.193   0.532  0.5181  0.5009  0.7129
25898SOL     OW82540   9.697   7.691   9.829 -0.3273  0.2082 -0.2338
25898SOL    HW182541   9.771   7.749   9.846 -0.9187  0.7859  0.4168
25898SOL    HW282542   9.727   7.605   9.859  1.1133 -0.1668 -2.6365
25899SOL     OW82543   8.921   7.340   2.399 -0.5366  0.4545 -0.5084
25899SOL    HW182544   8.930   7.286   2.478 -4.6504  1.5120  0.7990
25899SOL    HW282545   8.933   7.430   2.430 -2.1738  0.8774 -1.0480
25900SOL     OW82546   7.202   5.638   8.725 -0.2661  0.5303  0.4627
25900SOL    HW182547   7.149   5.627   8.804 -1.9016  0.3203 -0.6366
25900SOL    HW282548   7.252   5.718   8.741  0.3994 -0.1940  2.2275
25901SOL     OW82549   7.971   6.518   2.176 -0.2078 -0.1778 -0.0911
25901SOL    HW182550   7.979   6.443   2.117 -0.5961  0.1818 -0.6082
25901SOL    HW282551   8.047   6.573   2.156  0.5907 -0.9014  0.9615
25902SOL     OW82552   5.383   6.275   1.550  0.0100 -0.0084 -1.1645
25902SOL    HW182553   5.438   6.201   1.575 -0.6445 -0.5297 -1.2438
25902SOL    HW282554   5.443   6.338   1.512  0.9738  0.6480  1.3955
25903SOL     OW82555   8.302   8.776   0.537 -0.1850 -0.4604  0.2572
25903SOL    HW182556   8.333   8.867   0.538  1.4328 -1.0008  0.8702
25903SOL    HW282557   8.281   8.759   0.446 -0.8669  0.6476  0.1949
25904SOL     OW82558   9.477   8.344   1.177 -0.1652  0.4056 -0.1914
25904SOL    HW182559   9.445   8.428   1.213 -1.3822 -0.3268  0.4666
25904SOL    HW282560   9.563   8.333   1.217 -0.1601  1.1667  0.0218
25905SOL     OW82561   8.791   4.468   2.517  0.1517 -0.2603 -0.1179
25905SOL    HW182562   8.861   4.433   2.461 -0.8277 -2.8544  0.1788
25905SOL    HW282563   8.736   4.519   2.458  0.8637 -0.3809 -0.8891
25906SOL     OW82564   9.143   6.658   0.345 -0.1600 -0.1339 -0.6054
25906SOL    HW182565   9.206   6.610   0.291 -0.3641 -1.5005  0.3526
25906SOL    HW282566   9.197   6.713   0.402  0.0975  0.0591 -1.0296
25907SOL     OW82567   8.544   7.181   1.398 -0.4222  0.0185  1.2333
25907SOL    HW182568   8.508   7.216   1.479 -0.4159  1.5144  0.6026
25907SOL    HW282569   8.514   7.090   1.395 -0.6213  0.0328  2.7805
25908SOL     OW82570   8.047   6.670   1.785 -0.2266  0.3047 -0.3162
25908SOL    HW182571   8.099   6.727   1.728  0.1274 -1.3413 -1.6558
25908SOL    HW282572   7.977   6.637   1.729 -0.6223 -0.3438  0.5508
25909SOL     OW82573   6.651   6.848   1.592 -0.0554  0.4457 -0.0265
25909SOL    HW182574   6.572   6.848   1.538  0.2093  0.6634 -0.4135
25909SOL    HW282575   6.722   6.866   1.531  0.1604  1.4884  0.5247
25910SOL     OW82576   8.022   4.886   0.524  0.5170 -0.1651 -0.3651
25910SOL    HW182577   8.091   4.947   0.548  0.6576 -0.5627  0.2277
25910SOL    HW282578   8.061   4.832   0.455  1.7552 -2.2369  1.9043
25911SOL     OW82579   8.334   5.376   0.041 -0.3906 -0.1478 -0.5572
25911SOL    HW182580   8.370   5.298  -0.002 -0.5134 -1.3190  1.4072
25911SOL    HW282581   8.403   5.404   0.102 -0.6386  0.8752 -0.7300
25912SOL     OW82582   8.817   5.392   8.771  0.4506  0.3907  0.0002
25912SOL    HW182583   8.896   5.395   8.717  0.2866 -0.2194 -0.2731
25912SOL    HW282584   8.756   5.452   8.727  1.5492  2.6328  1.4775
25913SOL     OW82585   8.177   7.368   0.613 -0.1936 -0.2175 -0.1900
25913SOL    HW182586   8.083   7.355   0.615  0.0898 -2.3114  2.0202
25913SOL    HW282587   8.192   7.448   0.662 -0.7363 -0.5239  0.4799
25914SOL     OW82588   8.150   6.155   0.626  0.1936  0.1378 -0.3359
25914SOL    HW182589   8.164   6.165   0.532  1.6279  1.1018 -0.0239
25914SOL    HW282590   8.059   6.184   0.640  0.3197  1.0086 -1.2648
25915SOL     OW82591   9.103   6.222   0.600 -0.3081 -0.2762 -1.0793
25915SOL    HW182592   9.189   6.259   0.579 -0.8029  0.3236 -2.0930
25915SOL    HW282593   9.084   6.254   0.689  0.1861  0.1962 -1.1398
25916SOL     OW82594   9.435   7.097   0.376 -0.1295 -0.4384  0.1723
25916SOL    HW182595   9.347   7.133   0.386  0.5535  1.1951  0.4430
25916SOL    HW282596   9.439   7.025   0.439 -1.2206 -0.4597  0.2252
25917SOL     OW82597   8.773   5.156   1.424 -0.3922 -0.2820  0.1056
25917SOL    HW182598   8.835   5.084   1.416 -1.6521 -1.9860  4.1747
25917SOL    HW282599   8.825   5.228   1.461 -0.0646 -0.5652  0.1998
25918SOL     OW82600   8.252   5.138   1.188  0.5770  0.1593 -0.3507
25918SOL    HW182601   8.322   5.143   1.122 -1.0979  0.8168 -2.1193
25918SOL    HW282602   8.276   5.206   1.251  1.3559  0.6440 -1.1346
25919SOL     OW82603   7.336   7.286   2.656  0.5371  0.2006 -0.0215
25919SOL    HW182604   7.388   7.322   2.584  1.4707  2.0137  1.5071
25919SOL    HW282605   7.400   7.250   2.717 -0.1395  0.2705  0.7409
25920SOL     OW82606   8.498   7.853   0.840 -0.0760  0.1965 -0.5148
25920SOL    HW182607   8.580   7.815   0.872 -0.0765  1.3729  0.9094
25920SOL    HW282608   8.495   7.829   0.747  1.6276 -0.2891 -0.4507
25921SOL     OW82609   7.924   5.559   0.122  0.7946 -0.5809  0.1362
25921SOL    HW182610   7.865   5.630   0.097 -0.6155 -1.2536  1.4994
25921SOL    HW282611   8.001   5.572   0.066 -0.3546  0.6901 -1.2080
25922SOL     OW82612   8.234   7.415   2.812  1.0820  0.3715 -0.2838
25922SOL    HW182613   8.324   7.434   2.837  0.9243 -0.9561  1.3494
25922SOL    HW282614   8.183   7.488   2.846  1.0916 -0.5942  1.8904
25923SOL     OW82615   9.686   7.023   1.345 -0.1362  0.4602 -0.4850
25923SOL    HW182616   9.666   7.115   1.361  0.4458  0.2734  1.3817
25923SOL    HW282617   9.602   6.985   1.319 -0.8594  1.0545  0.9168
25924SOL     OW82618   9.130   7.037   1.528 -0.2434 -0.4093  0.1107
25924SOL    HW182619   9.111   7.121   1.569 -0.8112 -0.9535  0.9805
25924SOL    HW282620   9.084   6.973   1.582  0.2201 -1.2856 -0.5182
25925SOL     OW82621   8.798   5.915   1.025  0.1309  0.2186 -0.1168
25925SOL    HW182622   8.826   5.832   1.062 -1.1320 -1.2344 -2.3092
25925SOL    HW282623   8.703   5.909   1.022  0.1124  1.0123 -1.8990
25926SOL     OW82624   8.590   8.986   0.329  0.2400 -0.8678  0.5701
25926SOL    HW182625   8.568   8.937   0.249 -0.2633  1.7874 -0.9827
25926SOL    HW282626   8.668   9.036   0.305  1.6042 -1.9356  2.5965
25927SOL     OW82627   9.016   6.774   0.953  0.6296 -0.6538 -0.1186
25927SOL    HW182628   9.042   6.854   0.907 -0.5185 -0.7711 -1.0014
25927SOL    HW282629   8.944   6.801   1.010  0.6048 -0.9511 -0.0090
25928SOL     OW82630   9.036   5.127   0.877  0.6069  0.1133  0.9794
25928SOL    HW182631   9.040   5.218   0.907 -0.3734  0.3158  0.5388
25928SOL    HW282632   8.968   5.087   0.931  0.1028  0.0011  0.2693
25929SOL     OW82633   8.816   5.846   2.815  0.1112  0.1870 -0.1354
25929SOL    HW182634   8.867   5.830   2.735  2.6396  3.9824  0.5967
25929SOL    HW282635   8.831   5.768   2.868  1.7746 -0.5987 -1.6995
25930SOL     OW82636   7.470   6.792   1.354  0.0732  0.3583 -0.3927
25930SOL    HW182637   7.412   6.825   1.284 -0.5662  1.1959  0.5150
25930SOL    HW282638   7.412   6.744   1.413  0.6273 -0.4209 -0.4752
25931SOL     OW82639   9.033   5.399   0.570 -0.3476  0.1039 -0.2116
25931SOL    HW182640   9.066   5.449   0.645 -1.7900  2.0750 -0.8211
25931SOL    HW282641   9.106   5.395   0.509  0.3030 -0.0038  0.5732
25932SOL     OW82642   8.329   5.481   1.607  0.1002 -0.4795 -0.0428
25932SOL    HW182643   8.238   5.513   1.607 -0.1353 -1.1195  1.9954
25932SOL    HW282644   8.340   5.441   1.520 -1.3065  0.3234 -0.6051
25933SOL     OW82645   9.282   8.085   9.008  0.9302 -0.6024  0.1361
25933SOL    HW182646   9.203   8.054   9.053  1.1293 -1.7285 -0.2729
25933SOL    HW282647   9.248   8.141   8.938  0.5390 -0.2603  0.5955
25934SOL     OW82648   8.903   5.118   1.793  0.7558 -0.1590  0.1767
25934SOL    HW182649   8.898   5.209   1.763 -1.7733 -0.2719  0.1249
25934SOL    HW282650   8.841   5.072   1.737  2.2085 -1.9846  0.0370
25935SOL     OW82651   7.353   7.105   0.512 -0.2989 -0.1205 -0.0008
25935SOL    HW182652   7.339   7.023   0.559 -2.4601  0.7304  0.8885
25935SOL    HW282653   7.428   7.087   0.455  0.7413 -1.9733  1.8753
25936SOL     OW82654   9.076   5.381   0.956 -0.8199  0.1517  0.2609
25936SOL    HW182655   9.042   5.426   1.033 -0.5187  1.7364 -0.5128
25936SOL    HW282656   9.085   5.449   0.890  0.6140 -0.8521 -0.6187
25937SOL     OW82657   7.873   3.940   0.784  0.2268 -0.2377  0.0156
25937SOL    HW182658   7.884   3.934   0.879  0.5598 -2.1498 -0.1372
25937SOL    HW282659   7.797   3.886   0.764  0.6122 -0.4627 -0.8918
25938SOL     OW82660   7.588   7.389   0.239 -0.0589  0.5177 -0.1286
25938SOL    HW182661   7.597   7.301   0.202 -1.9094  0.9232 -1.6257
25938SOL    HW282662   7.606   7.379   0.332  1.4927 -1.1264 -0.6029
25939SOL     OW82663   9.313   7.277   1.466 -0.3315 -0.7414 -0.2778
25939SOL    HW182664   9.330   7.183   1.465 -2.0725 -1.0689 -1.7417
25939SOL    HW282665   9.304   7.302   1.374  1.2274  1.1037  0.0182
25940SOL     OW82666   8.854   4.853   9.362 -0.0936  0.2148 -0.2681
25940SOL    HW182667   8.825   4.938   9.329  1.5197  0.2560 -1.6869
25940SOL    HW282668   8.945   4.867   9.389  0.7065 -1.3658 -1.9410
25941SOL     OW82669   7.753   6.499   9.849 -0.5173  0.1062 -0.1510
25941SOL    HW182670   7.659   6.500   9.864 -0.3172 -0.6425  1.2097
25941SOL    HW282671   7.766   6.559   9.776 -2.1000 -0.1464 -0.6551
25942SOL     OW82672   7.690   6.148   8.094  0.5208 -0.0486 -0.4775
25942SOL    HW182673   7.716   6.240   8.099  2.6973 -0.6199 -0.3907
25942SOL    HW282674   7.646   6.131   8.177  1.0734  0.6577 -0.0295
25943SOL     OW82675   8.773   6.971   2.392  0.0238 -0.0645  0.0841
25943SOL    HW182676   8.807   6.968   2.482  0.7070 -1.2252 -0.2083
25943SOL    HW282677   8.752   6.880   2.371 -0.8657  0.3006 -0.6671
25944SOL     OW82678   7.370   6.443   3.382 -0.1621  0.8674 -0.1110
25944SOL    HW182679   7.452   6.405   3.350  0.0188  0.1031  1.2045
25944SOL    HW282680   7.376   6.536   3.361  1.4210  0.9690  0.7301
25945SOL     OW82681   8.604   6.458   3.296  0.1037  0.2719  0.0610
25945SOL    HW182682   8.668   6.529   3.304 -0.0685  0.3442  0.8044
25945SOL    HW282683   8.557   6.478   3.215 -0.2142  1.2278  0.4706
25946SOL     OW82684   7.627   6.024   3.857  0.2412 -0.0462 -0.0807
25946SOL    HW182685   7.674   5.941   3.845  0.2295 -0.1572  0.6083
25946SOL    HW282686   7.682   6.089   3.812  0.8739 -0.2356  0.4051
25947SOL     OW82687   9.026   6.282   2.218 -0.1041  0.3936 -0.2406
25947SOL    HW182688   9.104   6.333   2.241  0.6009 -0.2839 -1.1004
25947SOL    HW282689   9.054   6.191   2.225 -0.5345  0.1539 -1.5046
25948SOL     OW82690   9.631   5.050   3.213  0.5233  0.1599  0.3222
25948SOL    HW182691   9.658   4.981   3.152  1.8283 -0.1352  1.2120
25948SOL    HW282692   9.678   5.128   3.182  1.2525 -0.0091  0.9875
25949SOL     OW82693   8.189   6.628   2.516  0.6142 -0.1331  0.5411
25949SOL    HW182694   8.242   6.569   2.569 -0.1273 -0.0984  1.3358
25949SOL    HW282695   8.250   6.667   2.454  1.5121 -0.0530  1.4755
25950SOL     OW82696   6.832   5.873   3.984  0.1657 -0.2840  0.2052
25950SOL    HW182697   6.856   5.789   4.023 -1.1605 -1.9522 -2.4161
25950SOL    HW282698   6.902   5.893   3.923  0.7783  0.8594  1.2526
25951SOL     OW82699   7.339   6.180   3.476 -0.2219  0.6760 -0.3691
25951SOL    HW182700   7.352   6.147   3.387  1.8326 -0.0622  0.1865
25951SOL    HW282701   7.326   6.274   3.464 -2.1490  0.2744 -1.6179
25952SOL     OW82702   9.273   6.931   1.114  0.5061 -0.3321 -0.1151
25952SOL    HW182703   9.208   7.000   1.103  1.2926  0.2154 -1.5662
25952SOL    HW282704   9.225   6.859   1.155 -1.5804 -0.7436 -3.0895
25953SOL     OW82705   8.242   6.312   2.437 -0.4225 -0.4705 -0.0249
25953SOL    HW182706   8.154   6.325   2.473 -0.2327  2.6220 -0.5342
25953SOL    HW282707   8.227   6.268   2.353 -1.4481 -0.2725  0.0483
25954SOL     OW82708   8.294   6.147   2.985  0.2446  0.0826  0.5485
25954SOL    HW182709   8.388   6.152   3.004  0.3945 -0.1357 -0.1361
25954SOL    HW282710   8.288   6.091   2.908 -0.3473  1.2887 -0.2963
25955SOL     OW82711   7.794   5.604   3.526 -0.5249  0.3442 -0.4895
25955SOL    HW182712   7.866   5.640   3.474  0.5025 -0.5800  0.2807
25955SOL    HW282713   7.835   5.538   3.582 -2.3388 -1.7554 -1.6008
25956SOL     OW82714   9.944   5.330   3.427  0.2830 -0.1838 -0.1826
25956SOL    HW182715   9.853   5.352   3.409 -0.2171 -2.6385 -0.7518
25956SOL    HW282716   9.994   5.379   3.361 -0.6797  0.3374 -0.5356
25957SOL     OW82717   9.068   6.190   3.022  0.1729  0.4413 -0.1133
25957SOL    HW182718   8.994   6.190   3.082 -0.7032 -0.4409 -1.1738
25957SOL    HW282719   9.096   6.098   3.018  1.9941  0.9064  1.0736
25958SOL     OW82720   8.345   7.452   3.494  0.4690  0.3725 -0.4307
25958SOL    HW182721   8.389   7.448   3.409  0.2988  1.3943 -0.5749
25958SOL    HW282722   8.271   7.392   3.486  0.4510  0.4722 -1.0035
25959SOL     OW82723   8.099   6.318   3.128 -0.6943  0.2837 -0.1352
25959SOL    HW182724   8.044   6.264   3.183 -0.4514  1.0684  0.8974
25959SOL    HW282725   8.156   6.256   3.082 -1.3434 -0.4135 -0.0051
25960SOL     OW82726   8.462   6.119   3.268  0.4942 -0.1648 -0.1770
25960SOL    HW182727   8.533   6.055   3.263 -1.5317 -2.4861  0.2447
25960SOL    HW282728   8.432   6.114   3.359 -1.0499 -0.0867 -0.6820
25961SOL     OW82729   6.553   7.388   2.285  0.3612  0.7938  0.2902
25961SOL    HW182730   6.595   7.454   2.340 -1.1468  1.4765  0.6507
25961SOL    HW282731   6.490   7.345   2.343 -0.1296  0.4511 -0.4943
25962SOL     OW82732   9.540   5.420   4.205 -0.1684 -0.8895  0.3810
25962SOL    HW182733   9.478   5.481   4.167 -0.9888 -1.7791  0.2684
25962SOL    HW282734   9.626   5.460   4.189 -0.7361  0.6174  1.0540
25963SOL     OW82735   8.692   5.289   1.112 -0.3873  0.4075  0.0010
25963SOL    HW182736   8.767   5.261   1.164 -0.3210 -0.4655 -0.5471
25963SOL    HW282737   8.698   5.237   1.032  2.1457  5.0006 -2.9768
25964SOL     OW82738   7.613   7.645   0.927 -0.0455  0.1756 -0.2275
25964SOL    HW182739   7.572   7.707   0.986  0.2932 -0.1522  0.3516
25964SOL    HW282740   7.547   7.629   0.859  0.2526  1.9885 -0.9772
25965SOL     OW82741   8.833   6.497   2.200  0.0690 -0.2400  0.2215
25965SOL    HW182742   8.910   6.554   2.205 -0.4125  0.3960  0.5124
25965SOL    HW282743   8.864   6.412   2.229  0.8638 -0.1909 -0.4590
25966SOL     OW82744   9.133   7.571   5.165  0.2794 -0.6661 -0.3947
25966SOL    HW182745   9.076   7.532   5.099  0.7630 -1.8720 -0.1222
25966SOL    HW282746   9.222   7.548   5.138  0.6469  0.9886 -0.6820
25967SOL     OW82747   0.479   8.294   2.665 -0.1038  0.1474 -0.1834
25967SOL    HW182748   0.395   8.331   2.690 -0.4845 -0.1070 -1.0815
25967SOL    HW282749   0.478   8.205   2.699  1.2240  1.2238  2.8917
25968SOL     OW82750   9.037   5.806   3.775  0.1567  0.7239 -0.2840
25968SOL    HW182751   9.035   5.893   3.735  0.9576  0.9426  0.1523
25968SOL    HW282752   9.118   5.804   3.825 -1.1846  0.7108  1.9633
25969SOL     OW82753   7.317   5.491   1.187  0.3673 -0.2170  0.2168
25969SOL    HW182754   7.336   5.401   1.160 -2.2254 -1.5025  2.3127
25969SOL    HW282755   7.223   5.501   1.169  0.0390  1.1107  2.5214
25970SOL     OW82756   7.076   7.210   3.005  0.7806  0.1242  0.1060
25970SOL    HW182757   7.133   7.136   3.026  2.1022  1.3474  0.9436
25970SOL    HW282758   7.076   7.214   2.909  1.6189 -0.2644  0.0856
25971SOL     OW82759   8.590   6.652   0.988  0.5785 -0.4149 -0.2563
25971SOL    HW182760   8.632   6.733   1.014 -1.7409  0.9164 -0.5000
25971SOL    HW282761   8.574   6.663   0.894 -0.6431 -0.7044 -0.0949
25972SOL     OW82762   8.759   5.973   2.475 -0.2132  0.1005  0.0306
25972SOL    HW182763   8.667   5.958   2.495 -0.2817  2.1993  1.2837
25972SOL    HW282764   8.791   6.032   2.543  1.8412  0.1340 -0.9034
25973SOL     OW82765   9.818   7.950   3.609 -0.3718  0.0119  0.3164
25973SOL    HW182766   9.725   7.930   3.623 -0.3314 -1.6195 -1.5394
25973SOL    HW282767   9.824   7.971   3.516  0.8575  1.6664  0.7631
25974SOL     OW82768   8.194   8.171   1.694  0.5733 -0.0113  0.0115
25974SOL    HW182769   8.112   8.154   1.648  0.5567  2.0322 -0.7322
25974SOL    HW282770   8.208   8.092   1.747 -1.2437 -0.8770 -0.7567
25975SOL     OW82771   9.412   6.451   1.979  0.2712  0.2666 -0.0957
25975SOL    HW182772   9.404   6.406   2.063  0.0285 -2.0221 -1.3036
25975SOL    HW282773   9.478   6.401   1.931  1.3005  2.2736 -0.8185
25976SOL     OW82774   9.179   5.994   5.086  0.0345  0.2451  0.0982
25976SOL    HW182775   9.125   6.071   5.102 -1.5908 -1.0181  0.9174
25976SOL    HW282776   9.262   6.028   5.052 -1.4566  2.2034 -1.6713
25977SOL     OW82777   7.374   7.070   3.042 -0.6115 -0.0470 -0.1362
25977SOL    HW182778   7.446   7.024   3.084 -2.6477 -1.6302  1.7084
25977SOL    HW282779   7.402   7.080   2.951  2.4773  0.5604  0.8252
25978SOL     OW82780   7.885   6.793   3.408  0.7298  0.3965  0.4327
25978SOL    HW182781   7.890   6.712   3.459  2.6641 -0.0634 -0.4278
25978SOL    HW282782   7.792   6.805   3.389  0.3074 -0.9867  1.5574
25979SOL     OW82783   8.347   7.253   3.138 -0.2690  0.4333  0.7050
25979SOL    HW182784   8.343   7.227   3.046  0.3341 -0.7934  1.0119
25979SOL    HW282785   8.440   7.256   3.159 -0.3619  1.7878  0.9943
25980SOL     OW82786   9.199   5.864   1.754 -0.2636  0.3479  0.2774
25980SOL    HW182787   9.286   5.898   1.776 -0.2991  0.7491 -0.2030
25980SOL    HW282788   9.192   5.782   1.803  0.5803  0.0683 -0.0724
25981SOL     OW82789   8.907   5.749   1.942  0.4199  0.1777 -0.3422
25981SOL    HW182790   8.979   5.704   1.898  1.3677  1.1006  0.2474
25981SOL    HW282791   8.899   5.706   2.027 -1.5326 -1.7274 -1.4364
25982SOL     OW82792   6.488   9.280   2.273 -0.0085 -0.4156  0.2233
25982SOL    HW182793   6.428   9.207   2.256 -0.5652 -0.1472  0.9603
25982SOL    HW282794   6.567   9.239   2.308 -0.0039 -0.7269 -0.1460
25983SOL     OW82795   6.600   8.596   3.318 -0.1232 -0.5327 -0.2198
25983SOL    HW182796   6.606   8.680   3.364  3.0397 -0.8875  0.1774
25983SOL    HW282797   6.536   8.545   3.367  0.8511  0.2454  1.9392
25984SOL     OW82798   9.430   6.903   1.327 -0.3047 -0.6839  0.0661
25984SOL    HW182799   9.484   6.827   1.306  1.1387  0.6578 -1.2108
25984SOL    HW282800   9.367   6.909   1.255 -0.2443 -0.5365  0.0240
25985SOL     OW82801   9.248   6.131   3.298  0.4450 -0.2842  0.4561
25985SOL    HW182802   9.245   6.063   3.231  1.1966 -0.6127  0.7489
25985SOL    HW282803   9.160   6.132   3.337  0.1589 -0.4323 -0.1917
25986SOL     OW82804   0.066   5.504   1.769 -0.2095 -0.0762 -0.1321
25986SOL    HW182805   0.001   5.562   1.729 -0.8065 -1.2094 -0.8418
25986SOL    HW282806   0.099   5.553   1.844 -1.3470  0.8225 -0.2029
25987SOL     OW82807   8.432   7.602   2.799  0.1371 -0.0833 -0.2527
25987SOL    HW182808   8.383   7.684   2.796  0.7868  0.3079 -0.2971
25987SOL    HW282809   8.466   7.591   2.710  1.3832  0.4289  0.1487
25988SOL     OW82810   9.357   6.769   2.956 -0.0722 -0.3652 -0.1372
25988SOL    HW182811   9.380   6.811   2.873  3.1145 -1.8638 -0.0759
25988SOL    HW282812   9.297   6.699   2.931  0.5650 -0.5692 -1.1304
25989SOL     OW82813   9.609   7.293   1.331  0.4695 -1.0082 -0.4728
25989SOL    HW182814   9.583   7.311   1.241 -0.0440  1.1532  0.0818
25989SOL    HW282815   9.675   7.360   1.351 -0.9007 -0.1850  1.4071
25990SOL     OW82816   8.893   7.759   3.160 -0.3331  0.0033  0.2072
25990SOL    HW182817   8.865   7.848   3.178  0.6698  0.2284  0.7064
25990SOL    HW282818   8.945   7.734   3.237 -0.4051 -0.9246 -0.0318
25991SOL     OW82819   9.352   6.091   2.240  0.1639 -0.8594  0.1028
25991SOL    HW182820   9.402   6.173   2.247 -0.7609 -0.0336 -2.4531
25991SOL    HW282821   9.418   6.022   2.255  1.4771  0.2738 -0.3375
25992SOL     OW82822   8.269   7.273   4.313  0.2040 -0.2650  0.3137
25992SOL    HW182823   8.277   7.278   4.408 -0.5409 -2.7822  0.5700
25992SOL    HW282824   8.330   7.204   4.288  1.8790  1.7571 -1.2953
25993SOL     OW82825   8.413   6.920   1.383 -0.1785  0.3119 -0.5682
25993SOL    HW182826   8.332   6.886   1.346 -0.5664  0.5273  0.0848
25993SOL    HW282827   8.406   6.903   1.476  0.3354  0.7299 -0.4505
25994SOL     OW82828   7.650   5.647   3.230 -0.5646  0.2701  0.2664
25994SOL    HW182829   7.618   5.577   3.287 -0.2599 -0.0527  0.0464
25994SOL    HW282830   7.724   5.684   3.277 -0.5275  0.2312  0.2390
25995SOL     OW82831   8.950   6.693   2.973 -0.0323 -0.8646  0.2825
25995SOL    HW182832   9.019   6.682   2.907 -0.5727 -1.4289 -0.2023
25995SOL    HW282833   8.873   6.721   2.922  0.7832  3.5099  1.2379
25996SOL     OW82834   8.239   5.731   2.595 -0.6186 -0.0332  0.3151
25996SOL    HW182835   8.302   5.685   2.650 -1.0604 -1.1621 -0.1063
25996SOL    HW282836   8.155   5.721   2.641 -0.8948 -0.5306 -0.2785
25997SOL     OW82837   8.508   7.737   4.321 -0.5563 -0.2657  0.3673
25997SOL    HW182838   8.519   7.745   4.415  1.6604 -1.4209  0.2449
25997SOL    HW282839   8.454   7.659   4.308  0.9189 -1.3477  0.6302
25998SOL     OW82840   8.087   7.389   2.193  0.2972  0.0393  0.4077
25998SOL    HW182841   8.146   7.456   2.227  0.6598 -1.0668  1.9867
25998SOL    HW282842   8.073   7.329   2.266 -2.6666  0.1886  0.0458
25999SOL     OW82843   8.362   6.501   1.963  0.0260  0.3191  0.2087
25999SOL    HW182844   8.339   6.414   1.931 -2.0782  0.7702  0.4515
25999SOL    HW282845   8.455   6.494   1.985 -0.1929 -1.9668  0.5448
26000SOL     OW82846   9.670   5.420   4.512  0.4307  0.0194 -0.1715
26000SOL    HW182847   9.701   5.391   4.427 -0.1679 -0.9239 -0.0821
26000SOL    HW282848   9.730   5.380   4.575 -0.2441 -0.8292 -0.0601
26001SOL     OW82849   7.935   7.264   2.375 -0.9305 -0.1947 -0.1386
26001SOL    HW182850   7.956   7.198   2.442  1.2210  0.3231 -0.2618
26001SOL    HW282851   7.909   7.341   2.426  0.9895  0.2950  0.1715
26002SOL     OW82852   7.393   6.971   2.290 -0.1688  0.0511 -0.1284
26002SOL    HW182853   7.338   7.037   2.248 -0.3928  1.0913  1.7294
26002SOL    HW282854   7.371   6.978   2.383 -1.3219 -3.7022 -0.0330
26003SOL     OW82855   8.731   5.053   3.474  0.3692  0.2738  0.3205
26003SOL    HW182856   8.759   5.144   3.471 -1.3989  0.9141  2.0133
26003SOL    HW282857   8.640   5.056   3.443 -0.3936 -0.5868  2.4293
26004SOL     OW82858   9.292   7.398   2.501  0.3415 -0.2342 -0.6997
26004SOL    HW182859   9.215   7.410   2.556 -0.4007 -0.4134 -1.6930
26004SOL    HW282860   9.330   7.486   2.494  0.0212 -0.0805 -0.5101
26005SOL     OW82861   7.995   5.724   2.024  0.6692 -0.4252  0.1768
26005SOL    HW182862   7.971   5.639   2.060  1.2176 -1.0077 -0.8065
26005SOL    HW282863   8.042   5.703   1.943  1.2187  0.8043  0.1747
26006SOL     OW82864   8.661   5.613   3.730  0.1498  0.3635 -0.5900
26006SOL    HW182865   8.728   5.557   3.769  0.8111  0.1569 -2.0109
26006SOL    HW282866   8.624   5.560   3.659 -1.6319  0.4037  0.2616
26007SOL     OW82867   8.766   5.414   2.271 -0.6317  0.4757  0.3021
26007SOL    HW182868   8.767   5.345   2.338 -1.1962  0.9936  0.8468
26007SOL    HW282869   8.794   5.493   2.318 -0.9850  0.8324 -0.0890
26008SOL     OW82870   8.403   7.007   2.427 -0.0821  0.1226 -0.1016
26008SOL    HW182871   8.335   7.050   2.479 -0.9620 -1.4129  0.0546
26008SOL    HW282872   8.473   7.072   2.420 -1.7319  1.9038 -0.6277
26009SOL     OW82873   8.547   5.532   1.993  0.0586 -0.0777 -0.6748
26009SOL    HW182874   8.458   5.559   2.017 -0.6390 -2.4510 -0.5249
26009SOL    HW282875   8.547   5.530   1.898 -0.4267 -1.2881 -0.6532
26010SOL     OW82876   8.360   6.862   2.856  0.0816 -0.1963  0.3125
26010SOL    HW182877   8.318   6.785   2.895 -1.6238  0.8447  0.5656
26010SOL    HW282878   8.398   6.829   2.774  0.2677 -1.5217  0.9101
26011SOL     OW82879   8.703   6.363   2.969 -0.3160 -0.2615 -0.5215
26011SOL    HW182880   8.706   6.269   2.985 -0.7462 -0.3181 -0.7905
26011SOL    HW282881   8.770   6.378   2.901  0.7289 -0.1754  0.5111
26012SOL     OW82882   7.347   6.652   2.564 -0.3231 -0.0586  0.1309
26012SOL    HW182883   7.333   6.741   2.534  2.8957  0.5215  0.1109
26012SOL    HW282884   7.363   6.661   2.658 -3.6454 -1.0901  0.8607
26013SOL     OW82885   7.981   6.993   3.557  0.0868  0.0493  0.4135
26013SOL    HW182886   8.013   6.938   3.628  1.2964 -0.0934 -0.2361
26013SOL    HW282887   7.945   6.931   3.493  1.7302 -0.0280 -0.4603
26014SOL     OW82888   9.753   4.521   1.804  0.1508  0.0454  0.0504
26014SOL    HW182889   9.814   4.542   1.733  2.8786  0.0142  2.2754
26014SOL    HW282890   9.729   4.606   1.841 -1.2352  0.0612 -0.8421
26015SOL     OW82891   8.040   6.798   2.830 -0.6008  0.1149  0.5790
26015SOL    HW182892   7.999   6.821   2.913 -0.9788 -2.3105  1.0925
26015SOL    HW282893   8.022   6.705   2.819  2.1721 -0.3165 -0.6892
26016SOL     OW82894   8.122   6.024   3.247 -0.4166 -0.0175 -0.0335
26016SOL    HW182895   8.166   6.004   3.330 -0.0029  1.6847  0.1946
26016SOL    HW282896   8.189   6.069   3.195 -1.7755  2.4076  0.2244
26017SOL     OW82897   8.673   5.525   4.412 -0.0065 -0.3766 -0.1095
26017SOL    HW182898   8.706   5.436   4.420  0.6812 -0.0598  0.6231
26017SOL    HW282899   8.590   5.524   4.461  0.2329 -0.4915  0.2955
26018SOL     OW82900   9.083   4.420   1.486  0.3587  0.5562 -0.0268
26018SOL    HW182901   9.112   4.465   1.565  0.6797  1.0951 -0.4437
26018SOL    HW282902   9.024   4.351   1.517  0.3561  0.8694  0.6658
26019SOL     OW82903   9.046   6.307   1.362 -0.2389 -0.0776  0.2360
26019SOL    HW182904   8.974   6.310   1.299 -0.8221 -1.0328  0.8589
26019SOL    HW282905   9.096   6.229   1.338  0.1888  0.1842  0.2586
26020SOL     OW82906   9.273   6.603   1.683 -0.1954  0.2291 -0.5362
26020SOL    HW182907   9.333   6.563   1.620 -0.9902 -0.2554 -0.9966
26020SOL    HW282908   9.257   6.691   1.649 -1.8241 -0.5434 -1.8690
26021SOL     OW82909   0.498   8.068   1.683  0.1554  0.6125  0.0183
26021SOL    HW182910   0.456   8.132   1.626  0.1819 -1.1055 -1.9761
26021SOL    HW282911   0.425   8.023   1.726  0.0100 -0.2784 -1.1265
26022SOL     OW82912   7.076   6.109   2.109 -0.5028 -0.0470 -0.5188
26022SOL    HW182913   7.133   6.126   2.184  0.1730  0.5191 -1.1506
26022SOL    HW282914   7.115   6.032   2.067 -0.6353 -0.1129 -0.5212
26023SOL     OW82915   9.234   7.466   1.648  0.3588  0.0734 -0.5322
26023SOL    HW182916   9.252   7.378   1.616  1.0719  0.2473 -0.6412
26023SOL    HW282917   9.212   7.516   1.569 -1.1986 -0.2804 -0.3203
26024SOL     OW82918   9.972   6.712   1.372  0.1117 -0.0119 -0.4792
26024SOL    HW182919  10.025   6.787   1.343 -1.6452  1.4644 -0.0367
26024SOL    HW282920  10.012   6.683   1.453  1.9352 -0.7848 -1.6190
26025SOL     OW82921   8.693   4.812   1.358 -0.5983 -0.1772  0.4172
26025SOL    HW182922   8.676   4.754   1.431  0.6870 -1.0868  0.0065
26025SOL    HW282923   8.789   4.813   1.349 -0.6494  1.2172 -0.1996
26026SOL     OW82924   8.929   5.819   3.485 -0.6449 -0.2194 -0.2381
26026SOL    HW182925   8.988   5.891   3.463 -1.1475  0.5584  0.8952
26026SOL    HW282926   8.980   5.740   3.469  0.9170  0.4512  1.2871
26027SOL     OW82927   8.603   7.122   2.777  0.1490  0.3262 -0.2739
26027SOL    HW182928   8.661   7.067   2.724  1.3372  1.0090  0.2877
26027SOL    HW282929   8.610   7.209   2.737  1.1311  0.8694  1.0246
26028SOL     OW82930   0.044   7.558   2.831 -0.2606 -0.5632  0.1071
26028SOL    HW182931   0.058   7.480   2.776  0.0290 -0.3288 -0.1541
26028SOL    HW282932  -0.024   7.532   2.893  0.9745 -1.5701  1.0693
26029SOL     OW82933   9.140   6.401   4.022  0.4561  0.2419  0.0342
26029SOL    HW182934   9.082   6.443   3.958 -0.9551 -1.2349  0.3074
26029SOL    HW282935   9.173   6.474   4.075  2.1390  1.5872 -2.6963
26030SOL     OW82936   0.121   7.533   3.635  0.8074 -0.1389  0.0496
26030SOL    HW182937   0.111   7.573   3.549 -0.2532 -3.9228 -1.6725
26030SOL    HW282938   0.045   7.476   3.645  1.4515 -0.5760  3.0575
26031SOL     OW82939   8.398   5.751   3.434 -0.9830  0.2240  0.0177
26031SOL    HW182940   8.327   5.722   3.492 -1.5624 -0.2257 -0.9183
26031SOL    HW282941   8.476   5.750   3.490 -1.4172 -0.9038  0.6127
26032SOL     OW82942   9.350   5.290   4.615 -0.3756 -0.3426 -0.4289
26032SOL    HW182943   9.258   5.306   4.636 -0.4070  0.4638 -1.1766
26032SOL    HW282944   9.397   5.314   4.695 -0.6790  0.6375 -0.5445
26033SOL     OW82945   9.741   5.308   0.847 -0.4661  0.2092  0.6112
26033SOL    HW182946   9.766   5.301   0.939  0.5643  0.7284  0.3804
26033SOL    HW282947   9.684   5.385   0.844  0.9010  1.2469  0.5445
26034SOL     OW82948   8.403   6.363   3.473  0.3587  0.3568 -0.0888
26034SOL    HW182949   8.436   6.393   3.388  0.5837  2.0891  0.5753
26034SOL    HW282950   8.312   6.340   3.457  0.9416 -1.2003 -1.2126
26035SOL     OW82951   8.366   7.120   2.899 -1.0490 -0.0250 -0.5506
26035SOL    HW182952   8.381   7.026   2.896  1.4787  0.2459  1.2689
26035SOL    HW282953   8.433   7.158   2.842 -1.9712  0.6798 -1.1827
26036SOL     OW82954   7.327   7.637   3.923 -0.3207 -0.0778 -0.7208
26036SOL    HW182955   7.401   7.666   3.870  1.2081  0.2167  1.5065
26036SOL    HW282956   7.254   7.693   3.895  0.5145  0.2506 -2.2856
26037SOL     OW82957   7.211   6.265   2.977 -0.7859  0.1448  0.7904
26037SOL    HW182958   7.274   6.331   3.005 -0.1066  0.0029 -0.3637
26037SOL    HW282959   7.147   6.313   2.925 -0.4284 -0.0520  0.1590
26038SOL     OW82960   8.664   6.229   3.454 -0.3758 -0.0941  0.0421
26038SOL    HW182961   8.639   6.257   3.366 -2.4694 -3.5018 -0.5122
26038SOL    HW282962   8.582   6.203   3.496  1.0132 -1.9331  1.7519
26039SOL     OW82963   8.502   6.685   0.720 -0.0082 -0.2989  0.1077
26039SOL    HW182964   8.489   6.635   0.639 -0.9893 -1.3155  0.8825
26039SOL    HW282965   8.574   6.745   0.699  0.2304 -1.0417 -1.2940
26040SOL     OW82966   8.416   6.480   2.598  0.0618 -0.1654  0.6988
26040SOL    HW182967   8.381   6.418   2.534  1.7486 -0.2285 -0.1931
26040SOL    HW282968   8.468   6.426   2.658  2.5562  0.5080 -0.8091
26041SOL     OW82969   8.864   5.442   1.944 -0.0802  0.3514 -0.1225
26041SOL    HW182970   8.949   5.470   1.979  0.5622 -2.0089  0.3164
26041SOL    HW282971   8.881   5.423   1.852 -0.1820  0.1033 -0.0912
26042SOL     OW82972   8.211   6.988   2.157 -0.7023  0.5821 -0.6980
26042SOL    HW182973   8.263   6.914   2.126 -0.4277  0.9522 -1.1250
26042SOL    HW282974   8.272   7.038   2.212 -0.9146  0.4366 -0.3290
26043SOL     OW82975   9.252   4.974   3.851  0.1861  0.6467  0.0061
26043SOL    HW182976   9.335   5.018   3.868  0.3550  0.2409  0.2369
26043SOL    HW282977   9.186   5.042   3.862  0.5064  1.0266 -0.4227
26044SOL     OW82978   8.080   5.992   3.550 -0.1896 -0.0071  0.2170
26044SOL    HW182979   8.097   5.897   3.552  1.0312  0.2001  0.2262
26044SOL    HW282980   8.128   6.026   3.625 -0.0620  0.7156 -0.1917
26045SOL     OW82981   9.084   5.604   3.384  0.3089 -0.6088  0.0840
26045SOL    HW182982   9.157   5.618   3.323  0.6454 -0.6065  0.4884
26045SOL    HW282983   9.043   5.523   3.352 -0.5755  0.3196 -1.1917
26046SOL     OW82984   9.131   5.265   2.452  0.1308 -0.0713 -0.2361
26046SOL    HW182985   9.195   5.202   2.417 -0.2196 -1.1203  0.9872
26046SOL    HW282986   9.102   5.227   2.534  0.4320  2.0479  0.8918
26047SOL     OW82987   7.637   6.129   1.014  0.2122  0.7514  0.2700
26047SOL    HW182988   7.724   6.166   1.003  0.8373 -1.3069 -2.0627
26047SOL    HW282989   7.614   6.094   0.928 -1.0973 -2.5552  1.8811
26048SOL     OW82990   7.268   5.964   3.669  0.0613  0.3148  0.1156
26048SOL    HW182991   7.300   5.878   3.644 -0.2378  0.3049 -0.2319
26048SOL    HW282992   7.293   6.021   3.597 -0.6480  0.3185 -0.1315
26049SOL     OW82993   7.406   7.412   2.964 -0.0156 -0.1120  0.1529
26049SOL    HW182994   7.367   7.326   2.979  0.7290 -0.7053 -1.2050
26049SOL    HW282995   7.488   7.393   2.918  0.2450  1.3115  0.0174
26050SOL     OW82996   9.671   6.532   2.569 -0.7155 -0.2711 -0.2942
26050SOL    HW182997   9.754   6.570   2.598 -0.4579 -2.2585  1.6137
26050SOL    HW282998   9.679   6.529   2.473  2.4668 -2.7917 -0.0334
26051SOL     OW82999   9.280   5.705   2.828 -0.4990  0.3206  0.0489
26051SOL    HW183000   9.335   5.750   2.763  0.6786  2.4128  2.4227
26051SOL    HW283001   9.339   5.688   2.901 -2.0045 -1.2997  0.9097
26052SOL     OW83002   8.500   7.805   3.562 -0.4495 -0.0457  0.0118
26052SOL    HW183003   8.474   7.837   3.476 -1.1352 -1.8994 -0.4825
26052SOL    HW283004   8.595   7.806   3.560 -0.4546  0.8707 -0.3846
26053SOL     OW83005   8.392   6.643   3.706  0.0207 -0.7422  0.0421
26053SOL    HW183006   8.419   6.708   3.771 -0.6716  0.0875 -0.4741
26053SOL    HW283007   8.412   6.559   3.745 -0.2991 -0.2508  1.2923
26054SOL     OW83008   8.063   7.470   4.028  0.0264 -0.7633 -0.0765
26054SOL    HW183009   7.989   7.495   3.973 -0.1768 -0.0019  0.5475
26054SOL    HW283010   8.082   7.547   4.080  1.6116 -0.7647 -0.6209
26055SOL     OW83011   9.581   6.026   1.282 -0.2857  0.1612  0.5233
26055SOL    HW183012   9.614   6.034   1.371 -0.6155 -1.6072  0.8240
26055SOL    HW283013   9.546   6.113   1.261  1.0054  0.9643  1.6130
26056SOL     OW83014   0.017   7.229   1.615  0.2488  0.1232  0.4601
26056SOL    HW183015   0.106   7.249   1.646  0.8534 -0.5715 -0.7726
26056SOL    HW283016   0.030   7.164   1.546 -1.1700  0.6191 -0.2974
26057SOL     OW83017   9.296   5.196   1.831  0.1004  0.3349  0.2238
26057SOL    HW183018   9.265   5.287   1.826  1.0076  0.6585  0.4557
26057SOL    HW283019   9.228   5.151   1.881 -1.0212  0.5861 -1.0371
26058SOL     OW83020   7.951   6.845   2.244  0.2689  0.1005 -0.1443
26058SOL    HW183021   8.031   6.846   2.191 -0.1497 -0.8271 -0.8084
26058SOL    HW283022   7.884   6.880   2.187  0.0628  0.2942  0.2106
26059SOL     OW83023   6.439   3.524   4.733 -0.6196  0.3567  0.3251
26059SOL    HW183024   6.419   3.453   4.671 -0.3333  0.1839  0.4271
26059SOL    HW283025   6.455   3.600   4.678  0.3918  0.0249  0.1341
26060SOL     OW83026   9.103   5.696   4.137 -0.1436  0.6745 -0.2128
26060SOL    HW183027   9.026   5.644   4.158  0.3101  0.3941  0.8059
26060SOL    HW283028   9.073   5.787   4.143 -0.2358  0.5829  0.8898
26061SOL     OW83029   8.417   5.470   4.198  0.4455 -0.4087 -0.4147
26061SOL    HW183030   8.344   5.466   4.136  0.2458  0.8853 -0.2781
26061SOL    HW283031   8.473   5.396   4.174 -0.7846 -1.2821 -0.6680
26062SOL     OW83032   8.040   6.534   0.777  0.2853  0.2626 -0.5530
26062SOL    HW183033   7.993   6.512   0.696 -0.3831  0.9548 -0.3561
26062SOL    HW283034   7.995   6.611   0.810  1.7502  1.1049 -0.5019
26063SOL     OW83035   9.402   5.594   4.463  0.1772 -0.4081 -0.3164
26063SOL    HW183036   9.465   5.546   4.517  0.2848 -0.6314 -0.6358
26063SOL    HW283037   9.394   5.541   4.384 -1.2251 -0.9519  0.1703
26064SOL     OW83038   7.039   5.043   2.151 -0.1542  0.1542 -0.1193
26064SOL    HW183039   7.011   4.978   2.215  0.1093 -2.4566 -2.5967
26064SOL    HW283040   6.959   5.072   2.108 -0.1685  0.7721  0.3145
26065SOL     OW83041   7.817   6.239   2.437  0.8261 -0.3455 -0.4529
26065SOL    HW183042   7.903   6.205   2.414  1.5960  0.7899  0.6531
26065SOL    HW283043   7.833   6.330   2.462  0.0259 -1.2970  3.9484
26066SOL     OW83044   9.208   5.473   3.940  0.2440  0.1719 -0.0412
26066SOL    HW183045   9.138   5.411   3.959 -1.9070  2.0983 -1.4027
26066SOL    HW283046   9.208   5.533   4.015  1.4042 -0.6322  0.6221
26067SOL     OW83047   8.705   5.519   2.675 -0.2974 -0.1440 -0.3131
26067SOL    HW183048   8.726   5.536   2.583 -2.1141  0.4057 -0.6457
26067SOL    HW283049   8.688   5.425   2.680  0.1809 -0.2388 -0.4563
26068SOL     OW83050   8.181   6.265   3.742 -0.1363 -0.2411  0.1328
26068SOL    HW183051   8.255   6.204   3.739 -0.0337 -0.2101  1.7274
26068SOL    HW283052   8.146   6.256   3.831 -1.7285  0.1314 -0.4463
26069SOL     OW83053   8.827   7.362   3.079  0.1464 -0.2712  0.8141
26069SOL    HW183054   8.742   7.323   3.098 -0.4861  0.0587 -1.1958
26069SOL    HW283055   8.888   7.289   3.081 -0.9664 -1.4150 -2.6001
26070SOL     OW83056   8.126   7.071   2.783 -0.0538  0.2423 -0.0259
26070SOL    HW183057   8.120   6.978   2.802 -0.7557  0.5308  1.2952
26070SOL    HW283058   8.202   7.101   2.832  0.5485  0.2428 -0.9626
26071SOL     OW83059   8.688   7.483   1.553 -0.1902 -0.1956  0.4148
26071SOL    HW183060   8.643   7.459   1.472 -0.3144  0.1353  0.3864
26071SOL    HW283061   8.752   7.413   1.566  0.4508  0.2148 -0.4566
26072SOL     OW83062   8.517   6.523   3.050 -0.3284  0.3506  0.5629
26072SOL    HW183063   8.555   6.591   2.994 -0.1862  0.0336  0.2716
26072SOL    HW283064   8.565   6.443   3.027 -1.7781 -0.2485 -0.4864
26073SOL     OW83065   8.608   6.179   4.844  0.0142  0.2904 -0.2557
26073SOL    HW183066   8.695   6.138   4.840 -0.4170 -0.6811  0.1467
26073SOL    HW283067   8.614   6.253   4.784  1.2237  0.4232  0.0192
26074SOL     OW83068   9.758   6.642   2.988 -0.0723 -0.5895  0.1024
26074SOL    HW183069   9.671   6.609   3.010  0.9171 -2.5372  1.2159
26074SOL    HW283070   9.741   6.715   2.928 -2.4841 -0.4057  0.9457
26075SOL     OW83071   9.424   6.228   1.568  0.1032  0.2770 -0.4008
26075SOL    HW183072   9.508   6.183   1.563 -0.4178 -0.6895 -0.6103
26075SOL    HW283073   9.359   6.159   1.555 -0.6872  1.2123 -1.5091
26076SOL     OW83074   9.605   7.494   2.410  0.5560  0.2766 -0.6120
26076SOL    HW183075   9.627   7.534   2.327  0.7398 -0.0704 -0.7293
26076SOL    HW283076   9.518   7.529   2.431  1.6075  2.4208  0.3403
26077SOL     OW83077   9.298   5.680   2.527  0.1533  0.1149  0.3413
26077SOL    HW183078   9.255   5.744   2.470 -1.1644 -1.0408 -0.0130
26077SOL    HW283079   9.382   5.719   2.548 -0.4940  1.8242 -0.1149
26078SOL     OW83080   8.414   8.079   4.684  0.3303 -0.0802 -0.2307
26078SOL    HW183081   8.478   8.114   4.622 -0.2568  2.6806  0.6416
26078SOL    HW283082   8.463   8.066   4.765  0.2197  0.2358 -0.1102
26079SOL     OW83083   9.355   5.567   3.180  0.2397 -0.9481 -0.1397
26079SOL    HW183084   9.396   5.600   3.101 -0.7894 -0.7189 -0.5849
26079SOL    HW283085   9.419   5.583   3.249  1.4031 -1.7395 -1.0289
26080SOL     OW83086   9.364   8.343   2.356  0.3134  0.0779  0.4059
26080SOL    HW183087   9.415   8.295   2.291 -1.0521  0.1078 -0.7266
26080SOL    HW283088   9.299   8.280   2.387 -0.6795  0.8023 -0.1571
26081SOL     OW83089   8.242   7.813   4.246 -0.5157 -0.4563 -0.3121
26081SOL    HW183090   8.156   7.855   4.250  0.1132  0.7953  0.2716
26081SOL    HW283091   8.235   7.739   4.306 -0.8591  0.2369  0.5014
26082SOL     OW83092   9.766   6.990   1.995  0.8341 -0.1591 -0.1482
26082SOL    HW183093   9.849   7.024   1.960  1.3540 -0.1516  1.0582
26082SOL    HW283094   9.699   7.027   1.938  1.5682  1.0131 -0.2739
26083SOL     OW83095   8.603   7.184   2.355  0.1739 -0.1309  0.0962
26083SOL    HW183096   8.676   7.131   2.387 -0.4590 -0.1943  1.5120
26083SOL    HW283097   8.634   7.274   2.360  0.7466 -0.2713 -0.9324
26084SOL     OW83098   8.018   6.050   2.354 -0.5453 -0.2271  0.1022
26084SOL    HW183099   8.108   6.062   2.323 -0.9285 -1.7463 -1.6864
26084SOL    HW283100   8.028   6.004   2.437  0.3126 -1.4844 -0.6759
26085SOL     OW83101   9.521   6.419   2.823 -0.9147 -0.0100  0.2136
26085SOL    HW183102   9.471   6.500   2.814 -2.1081 -0.7361  0.1412
26085SOL    HW283103   9.474   6.369   2.890 -0.1914 -0.6332  0.2570
26086SOL     OW83104   9.238   4.377   3.379  0.3619 -0.3693 -0.2570
26086SOL    HW183105   9.165   4.315   3.375  0.0296  0.0949 -1.6352
26086SOL    HW283106   9.198   4.463   3.368  0.9658  0.0086  0.4119
26087SOL     OW83107   8.586   6.215   2.099  0.3878  0.5652  0.4261
26087SOL    HW183108   8.606   6.243   2.189  2.6369 -2.0607  0.8069
26087SOL    HW283109   8.537   6.133   2.110  0.8298  0.1343 -0.7357
26088SOL     OW83110   8.781   8.079   2.028  0.4477  0.5252 -0.1253
26088SOL    HW183111   8.797   8.033   2.111  0.3652  2.2998  0.9148
26088SOL    HW283112   8.852   8.050   1.971 -0.9716 -2.6995 -0.3083
26089SOL     OW83113   7.950   6.476   3.379  0.2039 -0.0699 -0.4333
26089SOL    HW183114   8.005   6.400   3.399 -0.4659 -0.2880  0.6377
26089SOL    HW283115   7.904   6.494   3.461 -0.5940  0.7039 -1.0471
26090SOL     OW83116   7.712   5.597   2.200  0.1685 -0.4029  0.2555
26090SOL    HW183117   7.780   5.532   2.182 -0.3616 -0.6956 -0.6751
26090SOL    HW283118   7.721   5.661   2.129 -0.2995 -0.2536  0.3312
26091SOL     OW83119   0.125   7.193   2.099 -1.0204  0.1847  0.4799
26091SOL    HW183120   0.208   7.240   2.105  0.4310 -2.1054 -0.6457
26091SOL    HW283121   0.060   7.261   2.083  0.7922  1.9267  0.2222
26092SOL     OW83122   7.509   6.405   4.587 -0.3481  0.6339  0.1078
26092SOL    HW183123   7.478   6.388   4.498 -2.0270  0.2688  0.7443
26092SOL    HW283124   7.580   6.342   4.600 -0.6986  0.0740 -0.6626
26093SOL     OW83125   9.304   6.055   2.798  0.8162 -0.1364 -0.1737
26093SOL    HW183126   9.236   5.999   2.835 -0.2892  0.0729 -1.8595
26093SOL    HW283127   9.366   5.994   2.758 -0.4372 -0.1711 -2.0971
26094SOL     OW83128   8.897   6.160   2.675  0.1257  0.0403 -0.1576
26094SOL    HW183129   8.948   6.239   2.656 -0.7065  0.8622  0.9053
26094SOL    HW283130   8.948   6.114   2.741  0.1276  0.2186 -0.0321
26095SOL     OW83131   8.717   4.440   1.934 -0.0103  0.0637 -0.5368
26095SOL    HW183132   8.741   4.530   1.912  1.2562 -0.2488 -0.4923
26095SOL    HW283133   8.800   4.399   1.959 -1.1030 -0.0638  3.1711
26096SOL     OW83134   9.190   6.596   2.487 -0.2686 -0.2702 -0.2062
26096SOL    HW183135   9.151   6.620   2.403  2.2879 -1.9510 -1.9383
26096SOL    HW283136   9.255   6.665   2.504 -0.6232 -0.0561  0.2962
26097SOL     OW83137   9.299   5.918   3.145  0.2333 -0.2979 -0.3281
26097SOL    HW183138   9.386   5.880   3.131  0.3965 -0.0652  0.0789
26097SOL    HW283139   9.238   5.847   3.122  0.5347 -0.6704  0.0356
26098SOL     OW83140   8.614   7.364   2.641  0.2109  0.2758  0.0941
26098SOL    HW183141   8.584   7.355   2.550 -0.6281 -0.7243  0.4660
26098SOL    HW283142   8.616   7.459   2.656  1.5873  0.5068 -1.3688
26099SOL     OW83143   7.523   6.571   3.993  0.0633 -0.2094  0.4699
26099SOL    HW183144   7.462   6.497   3.989 -0.7419  0.4427  0.5337
26099SOL    HW283145   7.604   6.534   4.027  0.4596 -1.5911 -1.8916
26100SOL     OW83146   7.465   6.416   2.699 -0.6551  0.2429 -0.4489
26100SOL    HW183147   7.421   6.499   2.719  0.0048  0.3616  0.5504
26100SOL    HW283148   7.557   6.440   2.691 -0.6948 -0.0932 -2.0128
26101SOL     OW83149   5.673   7.095   0.904  0.0857  0.2272  0.1740
26101SOL    HW183150   5.597   7.101   0.846  0.3402  1.2360 -0.0596
26101SOL    HW283151   5.747   7.087   0.845  0.0953 -1.8516  0.4109
26102SOL     OW83152   8.897   6.329   4.751 -0.4380  0.2177 -0.7141
26102SOL    HW183153   8.987   6.343   4.722 -0.4342  0.0534 -0.7755
26102SOL    HW283154   8.869   6.250   4.706  0.4294 -1.5541  1.7154
26103SOL     OW83155   8.042   6.067   1.272  0.0145 -0.2774  0.2904
26103SOL    HW183156   7.950   6.090   1.288 -0.0757  0.2877 -0.9696
26103SOL    HW283157   8.041   6.027   1.185  1.1633  0.9854 -0.3203
26104SOL     OW83158   9.036   8.263   3.137  0.7286  0.1231 -0.0500
26104SOL    HW183159   8.977   8.296   3.205  0.8665  1.0826 -0.3775
26104SOL    HW283160   9.100   8.210   3.183 -0.0283 -0.4202  0.3895
26105SOL     OW83161   7.744   5.815   5.291  0.2850 -0.1140  0.3010
26105SOL    HW183162   7.774   5.729   5.318 -0.7076 -0.3470  0.7038
26105SOL    HW283163   7.683   5.798   5.219  0.9925  0.3308 -0.4012
26106SOL     OW83164   7.585   7.010   3.946 -0.3670 -0.4122  0.0465
26106SOL    HW183165   7.637   7.091   3.946 -0.9481 -0.0020  3.2133
26106SOL    HW283166   7.647   6.941   3.969 -0.8255 -0.1627  2.1130
26107SOL     OW83167   7.777   5.599   4.777  0.2751  0.3994 -0.3675
26107SOL    HW183168   7.831   5.675   4.755 -1.2583  1.8153  0.6980
26107SOL    HW283169   7.837   5.524   4.771  1.9829  1.7746 -0.6482
26108SOL     OW83170   8.766   7.578   4.295  0.0556 -0.9237 -0.0353
26108SOL    HW183171   8.840   7.530   4.332 -0.1208 -0.8489  0.4169
26108SOL    HW283172   8.705   7.510   4.266  0.2828 -0.9845 -0.3674
26109SOL     OW83173   7.020   7.234   1.848 -0.1902 -0.0432  0.3202
26109SOL    HW183174   7.020   7.282   1.931 -0.2510  1.4319 -0.5136
26109SOL    HW283175   7.108   7.246   1.813 -0.4031  0.0323 -0.2053
26110SOL     OW83176   6.670   6.388   4.114 -0.5152  0.6283  0.4280
26110SOL    HW183177   6.716   6.367   4.195  1.3861  0.1887 -0.7330
26110SOL    HW283178   6.580   6.356   4.128 -0.0031 -0.1358  2.0530
26111SOL     OW83179   8.826   5.748   3.934 -0.5566  0.2070  0.1929
26111SOL    HW183180   8.840   5.658   3.904 -0.6952  0.2009  0.1416
26111SOL    HW283181   8.904   5.795   3.907  0.5410 -0.3927  2.1905
26112SOL     OW83182   7.627   5.146   2.377 -0.0061 -0.1446  0.3888
26112SOL    HW183183   7.711   5.109   2.351  0.2069  0.2369  0.5375
26112SOL    HW283184   7.612   5.217   2.314 -0.0943 -0.0453  0.5221
26113SOL     OW83185   9.637   6.019   3.495  0.2835  0.0207 -0.6366
26113SOL    HW183186   9.560   5.963   3.483  0.5789 -0.3992 -0.5796
26113SOL    HW283187   9.667   5.999   3.584  0.7291 -0.1597 -0.8240
26114SOL     OW83188   9.702   5.390   3.290 -1.0402  0.3122 -0.2570
26114SOL    HW183189   9.685   5.478   3.258  0.2213  0.4255 -0.6394
26114SOL    HW283190   9.725   5.340   3.212  0.0744  0.1042  0.1888
26115SOL     OW83191   8.804   6.504   1.088  0.8520 -0.3460  0.1852
26115SOL    HW183192   8.724   6.548   1.058  1.9334  0.2766 -1.8870
26115SOL    HW283193   8.836   6.559   1.159  0.2406  0.2383  0.0152
26116SOL     OW83194   7.755   8.048   2.190  0.5694 -0.6922 -0.2630
26116SOL    HW183195   7.809   8.088   2.122 -0.3973 -1.0251 -1.2379
26116SOL    HW283196   7.770   7.954   2.181  1.3144 -0.6794  0.7351
26117SOL     OW83197   9.230   4.637   2.414 -0.5387 -0.6697  0.0937
26117SOL    HW183198   9.310   4.662   2.461 -0.5935 -0.4965  0.0949
26117SOL    HW283199   9.159   4.681   2.461 -0.8567 -2.4116  1.2942
26118SOL     OW83200   9.072   4.831   3.190  0.4918 -0.2331  0.1739
26118SOL    HW183201   9.142   4.862   3.133  2.0770 -1.2013  1.5572
26118SOL    HW283202   9.063   4.899   3.257  1.5633 -1.0955  1.2011
26119SOL     OW83203   9.105   6.883   3.894 -0.2470 -0.0344 -0.0946
26119SOL    HW183204   9.106   6.833   3.812 -4.1214 -1.8691  0.8442
26119SOL    HW283205   9.097   6.974   3.867  1.3069 -0.3530 -1.7536
26120SOL     OW83206   6.770   8.990   3.090 -0.3415  0.5038 -0.5622
26120SOL    HW183207   6.756   8.925   3.021  0.7443 -0.7919  0.4120
26120SOL    HW283208   6.784   9.072   3.044 -1.0328 -0.0798 -1.8332
26121SOL     OW83209   8.109   7.629   3.512  0.0471 -0.5399 -0.0094
26121SOL    HW183210   8.154   7.710   3.488 -1.6649  0.2269 -0.7255
26121SOL    HW283211   8.176   7.561   3.507  0.9184  0.4367 -1.9456
26122SOL     OW83212   8.729   7.445   2.089 -0.1490  0.1338  0.1064
26122SOL    HW183213   8.722   7.442   2.184  0.0698  2.2997  0.2318
26122SOL    HW283214   8.763   7.533   2.071  0.6456 -0.5581 -1.9213
26123SOL     OW83215   8.007   5.731   3.887  0.4504 -0.0929 -0.0871
26123SOL    HW183216   8.080   5.789   3.864  1.9679 -0.9425  2.3284
26123SOL    HW283217   8.049   5.658   3.932 -1.9153 -0.5599  1.4263
26124SOL     OW83218   0.101   5.184   4.175  0.5869 -0.2107 -0.5998
26124SOL    HW183219   0.007   5.176   4.192  0.5954  2.1412  0.8220
26124SOL    HW283220   0.118   5.125   4.102 -2.6347  1.6913 -3.0177
26125SOL     OW83221   7.825   6.690   1.994  0.1820  0.5088 -0.1644
26125SOL    HW183222   7.908   6.710   1.950  0.9272  0.2803  1.0896
26125SOL    HW283223   7.849   6.624   2.060 -1.6721 -2.3649 -2.2383
26126SOL     OW83224   6.761   5.926   3.259 -0.2902  0.2284 -0.1286
26126SOL    HW183225   6.763   6.017   3.288  1.7343  0.0803  0.2553
26126SOL    HW283226   6.791   5.930   3.168  1.8249 -0.2569  0.5189
26127SOL     OW83227   7.678   7.745   2.965  0.1316 -0.3201  0.0520
26127SOL    HW183228   7.590   7.767   2.997  0.7468  1.8556  0.2745
26127SOL    HW283229   7.686   7.792   2.883  0.5625 -1.6832 -0.6963
26128SOL     OW83230   8.177   4.528   2.069  0.1563 -0.4854  1.0381
26128SOL    HW183231   8.182   4.597   2.135 -0.4004 -0.4365  1.0345
26128SOL    HW283232   8.268   4.512   2.044  0.1505  1.7944 -0.5466
26129SOL     OW83233   9.210   6.941   4.349 -0.5665 -0.5144  0.2684
26129SOL    HW183234   9.118   6.945   4.321 -0.3706  0.9836 -0.2242
26129SOL    HW283235   9.259   6.946   4.267 -0.0153  1.7356  0.7062
26130SOL     OW83236   5.760   5.905   1.737  0.3517  0.6902 -0.5846
26130SOL    HW183237   5.689   5.847   1.709  0.3327  0.7517 -0.6606
26130SOL    HW283238   5.832   5.884   1.677  0.9121 -0.4848  0.4571
26131SOL     OW83239   9.085   6.441   3.024  0.1303 -1.1067  0.5170
26131SOL    HW183240   9.075   6.347   3.034  0.3899 -1.1370  0.5144
26131SOL    HW283241   8.999   6.477   3.044 -0.0925 -1.3778  0.0303
26132SOL     OW83242   8.528   4.829   2.280 -0.0371 -0.2812 -0.5420
26132SOL    HW183243   8.580   4.853   2.203  2.6698  1.7539  1.8276
26132SOL    HW283244   8.560   4.743   2.305 -1.6629 -1.4300 -2.2238
26133SOL     OW83245   9.662   6.658   2.077 -0.4420  0.4065 -0.4269
26133SOL    HW183246   9.693   6.600   2.007 -1.1215  0.9407 -1.1674
26133SOL    HW283247   9.693   6.745   2.052 -1.4789  0.7449 -0.5372
26134SOL     OW83248   8.348   5.950   1.944 -0.3821 -0.0827 -0.9184
26134SOL    HW183249   8.401   5.964   2.023  0.5958 -2.7140 -1.0444
26134SOL    HW283250   8.406   5.975   1.872  0.4580 -2.1648 -1.0103
26135SOL     OW83251   6.627   7.978   2.153  0.2460  0.3977 -0.0329
26135SOL    HW183252   6.683   7.934   2.090  0.9398 -1.7271  1.9666
26135SOL    HW283253   6.641   8.071   2.138  1.4472 -0.0739 -2.0320
26136SOL     OW83254   7.750   8.207   0.718 -0.6714 -0.1775 -0.0801
26136SOL    HW183255   7.664   8.173   0.693 -1.6222  1.6954  0.4920
26136SOL    HW283256   7.739   8.302   0.714  1.1885  0.0766  0.6604
26137SOL     OW83257   8.462   6.303   5.138  0.6071  0.2044 -0.1602
26137SOL    HW183258   8.525   6.354   5.088  1.0597 -1.4005 -1.2812
26137SOL    HW283259   8.493   6.212   5.130  0.7160 -0.1025  3.0460
26138SOL     OW83260   8.722   6.576   4.638 -0.3158 -0.0792  0.2278
26138SOL    HW183261   8.735   6.567   4.544  0.7106  2.3337  0.1011
26138SOL    HW283262   8.809   6.590   4.674 -0.7582 -0.4220  1.4613
26139SOL     OW83263   7.748   6.302   4.739 -0.6465 -0.0057  0.5341
26139SOL    HW183264   7.795   6.289   4.821  1.2309 -1.2630 -0.7024
26139SOL    HW283265   7.765   6.394   4.716  0.8144 -0.3086  0.3533
26140SOL     OW83266   6.908   6.534   5.446 -0.1363  0.0984 -0.6918
26140SOL    HW183267   6.855   6.455   5.449 -1.1995  0.7954 -0.7951
26140SOL    HW283268   6.908   6.560   5.354 -2.1586  1.7736 -0.2608
26141SOL     OW83269   9.891   6.647   3.359  0.4499  0.0181  0.4705
26141SOL    HW183270   9.944   6.607   3.290  1.4558 -0.8794  1.7306
26141SOL    HW283271   9.826   6.699   3.312  1.5600  0.0027 -1.1398
26142SOL     OW83272   8.740   5.267   4.463 -0.3832 -0.2225  0.0197
26142SOL    HW183273   8.739   5.195   4.527 -0.7591 -0.4074 -0.1892
26142SOL    HW283274   8.795   5.235   4.392  1.9480  0.8961  1.2726
26143SOL     OW83275   9.532   5.380   3.920 -0.2184  0.2901 -0.0981
26143SOL    HW183276   9.613   5.428   3.904  0.4766 -1.1443 -0.9948
26143SOL    HW283277   9.463   5.440   3.894  0.6971  0.2273 -2.8791
26144SOL     OW83278   8.989   7.005   4.232  0.1908 -0.0398  0.0067
26144SOL    HW183279   8.957   7.041   4.149 -0.1229  0.4034  0.3201
26144SOL    HW283280   8.913   6.960   4.269  0.4019 -0.4579 -0.0672
26145SOL     OW83281   7.392   7.346   8.085 -0.5702  0.2406 -0.0944
26145SOL    HW183282   7.412   7.434   8.118 -0.4140  0.3693 -0.5225
26145SOL    HW283283   7.319   7.316   8.139 -0.3977  0.4971  0.2797
26146SOL     OW83284   9.243   6.979   2.530 -0.3252  0.1475 -0.5695
26146SOL    HW183285   9.186   7.011   2.600  2.3307  1.5404  1.0206
26146SOL    HW283286   9.286   6.902   2.567  1.3209  1.0717 -0.5012
26147SOL     OW83287   8.303   7.018   5.233  0.0143  0.1486  0.1493
26147SOL    HW183288   8.269   7.005   5.145 -0.3605 -3.6560  0.7764
26147SOL    HW283289   8.233   7.063   5.280 -0.5834  0.3594 -0.9490
26148SOL     OW83290   8.088   8.323   4.340  0.8208 -0.6065 -0.1381
26148SOL    HW183291   8.167   8.375   4.357 -0.0586  0.4368  0.8725
26148SOL    HW283292   8.110   8.271   4.263  0.9416  3.0571 -2.7379
26149SOL     OW83293   9.330   6.718   4.980  0.1702 -0.4601  0.0124
26149SOL    HW183294   9.335   6.669   4.898  0.1603  0.2376 -0.4098
26149SOL    HW283295   9.410   6.769   4.983 -1.1846  1.7703 -1.0255
26150SOL     OW83296   7.554   5.794   5.106 -0.2436  0.2461 -0.0770
26150SOL    HW183297   7.544   5.775   5.013  0.1530 -0.7134  0.0707
26150SOL    HW283298   7.504   5.875   5.120 -1.9723 -0.6873 -0.7282
26151SOL     OW83299   7.940   6.367   4.494  0.2007  0.2915  0.1198
26151SOL    HW183300   8.007   6.425   4.459  0.7968 -0.0671  0.6695
26151SOL    HW283301   7.866   6.424   4.513 -0.5904  0.3541 -2.8625
26152SOL     OW83302   6.648   6.233   3.634  0.4539  0.3709  0.0120
26152SOL    HW183303   6.621   6.161   3.577 -1.5681  0.6803  0.5520
26152SOL    HW283304   6.670   6.304   3.573 -0.0088  0.1267 -0.4510
26153SOL     OW83305   7.970   5.871   4.432  0.4015 -0.0496  0.2259
26153SOL    HW183306   8.063   5.864   4.412  0.9142  1.7253  1.9281
26153SOL    HW283307   7.931   5.905   4.351  1.6632  1.8959  0.3998
26154SOL     OW83308   9.014   7.636   4.586 -0.3086 -0.2297  0.0752
26154SOL    HW183309   9.076   7.632   4.659 -0.1098  0.8878 -0.0158
26154SOL    HW283310   8.932   7.665   4.625 -0.5001 -0.7165  0.0342
26155SOL     OW83311   7.862   6.067   3.729 -0.2587 -0.1111  0.1032
26155SOL    HW183312   7.922   6.067   3.804  1.4954  1.4798 -1.2520
26155SOL    HW283313   7.892   5.994   3.675  1.2255  1.3701 -1.1273
26156SOL     OW83314   7.566   9.025   6.290  1.0640  0.2155 -0.3134
26156SOL    HW183315   7.646   9.063   6.328  2.4002 -1.1504 -1.6895
26156SOL    HW283316   7.538   9.088   6.224  0.8670  0.8184  0.3459
26157SOL     OW83317   7.081   6.662   4.023 -0.3069 -0.3315 -0.3581
26157SOL    HW183318   7.001   6.698   3.987 -0.7707 -0.3082  0.6919
26157SOL    HW283319   7.064   6.568   4.032  0.6110 -0.7210 -2.3187
26158SOL     OW83320   0.882   6.467   7.007  0.1180 -0.8269 -0.4524
26158SOL    HW183321   0.854   6.378   6.982 -1.0135 -0.3757 -0.8383
26158SOL    HW283322   0.837   6.524   6.945 -0.9019  0.1616  1.1442
26159SOL     OW83323   7.151   6.790   5.814  0.0075  0.2273  0.3574
26159SOL    HW183324   7.078   6.788   5.876  0.6512 -2.2344  1.1227
26159SOL    HW283325   7.225   6.752   5.862  1.7725  2.5147 -0.4630
26160SOL     OW83326   9.486   7.623   3.209  0.4045 -0.4109  0.1781
26160SOL    HW183327   9.552   7.635   3.277  0.1373  0.4919  0.2820
26160SOL    HW283328   9.518   7.674   3.135 -0.0166 -0.2253  0.1200
26161SOL     OW83329   8.717   6.544   5.218 -0.0504 -0.3493  0.2534
26161SOL    HW183330   8.742   6.498   5.138  2.4582  1.7231 -0.2327
26161SOL    HW283331   8.631   6.582   5.199 -0.1489 -1.1388 -0.9115
26162SOL     OW83332   8.390   6.356   5.419  0.3094 -0.0727  0.1445
26162SOL    HW183333   8.410   6.346   5.326  1.5620  1.5102  0.2170
26162SOL    HW283334   8.430   6.280   5.461 -0.0911 -0.6884 -0.5924
26163SOL     OW83335   8.077   7.780   4.634 -0.6307 -0.4343 -0.3059
26163SOL    HW183336   8.123   7.697   4.620 -0.2466 -0.1063 -1.0299
26163SOL    HW283337   8.138   7.846   4.601 -1.2450  0.0796 -0.4044
26164SOL     OW83338   8.949   5.880   5.858  0.2439  0.3486  0.4817
26164SOL    HW183339   8.950   5.937   5.781  0.8942 -0.3137 -0.0170
26164SOL    HW283340   8.969   5.938   5.932  1.7102  0.6299 -0.1152
26165SOL     OW83341   6.496   6.938   4.414 -0.1835 -0.4649  0.3780
26165SOL    HW183342   6.572   6.994   4.429  0.1306 -1.3132  2.1224
26165SOL    HW283343   6.427   6.976   4.470  0.0148 -1.7546  1.5206
26166SOL     OW83344   7.272   7.318   6.018  0.4507 -0.1071 -0.0614
26166SOL    HW183345   7.351   7.370   6.033  0.5165  0.3737 -1.9694
26166SOL    HW283346   7.200   7.378   6.036  0.5276  0.3573 -1.2705
26167SOL     OW83347   9.443   5.355   3.407 -0.1029 -0.6767 -0.7941
26167SOL    HW183348   9.396   5.352   3.324  0.5025  0.5200 -1.1969
26167SOL    HW283349   9.532   5.380   3.382  0.4832 -1.8399  0.0630
26168SOL     OW83350   8.550   7.800   4.586  0.5117 -0.8151  0.2277
26168SOL    HW183351   8.504   7.805   4.671  0.6435 -0.1248  0.2571
26168SOL    HW283352   8.566   7.891   4.562 -2.5717 -0.8536 -2.2036
26169SOL     OW83353   7.093   4.836   6.754 -0.0422  0.3301  0.7102
26169SOL    HW183354   7.040   4.770   6.798  0.9691 -0.1825  1.1823
26169SOL    HW283355   7.169   4.848   6.811  1.9323 -1.2818 -1.4711
26170SOL     OW83356   8.594   7.290   5.329  0.4750  0.0007  0.0790
26170SOL    HW183357   8.580   7.327   5.241  2.2351 -1.4314 -0.8197
26170SOL    HW283358   8.668   7.339   5.364 -0.5811  0.9538  1.0043
26171SOL     OW83359   9.340   7.286   3.401 -0.1004  0.1453 -0.3336
26171SOL    HW183360   9.263   7.334   3.372  0.7319  0.8653 -1.4128
26171SOL    HW283361   9.357   7.318   3.489 -1.5208 -0.6397  0.2406
26172SOL     OW83362   6.439   5.278   3.542  1.1530  0.5530 -0.7663
26172SOL    HW183363   6.427   5.206   3.604  0.9966 -0.5793 -2.0779
26172SOL    HW283364   6.532   5.297   3.546  1.2858 -0.0691 -0.7759
26173SOL     OW83365   9.980   5.383   4.850  0.3589  0.3487 -0.3330
26173SOL    HW183366   9.915   5.313   4.855  0.4339  0.3414  0.6361
26173SOL    HW283367  10.003   5.388   4.757 -0.8886  0.2395 -0.6554
26174SOL     OW83368   9.068   8.179   3.469 -0.1523  0.6671 -0.3775
26174SOL    HW183369   9.123   8.155   3.543 -0.5869  0.3834 -0.1446
26174SOL    HW283370   9.116   8.147   3.392  0.9979  2.2456 -0.3371
26175SOL     OW83371   7.732   6.039   4.854  0.4310  0.2562  0.0999
26175SOL    HW183372   7.803   6.094   4.821 -0.8484  1.6640 -0.3264
26175SOL    HW283373   7.660   6.099   4.870 -0.7307 -1.1812  0.3889
26176SOL     OW83374   0.196   5.730   6.656  0.2102  0.2030  0.1208
26176SOL    HW183375   0.200   5.643   6.617  0.5243 -0.4577  1.6006
26176SOL    HW283376   0.108   5.761   6.637  0.7412  0.3723 -2.1147
26177SOL     OW83377   9.014   6.542   5.182 -0.3014  0.5802 -0.3606
26177SOL    HW183378   8.923   6.556   5.211 -1.2265 -2.1646 -1.7151
26177SOL    HW283379   9.056   6.497   5.254  0.0693  2.0139  0.3405
26178SOL     OW83380   6.948   5.626   4.050  0.5394  0.2180  0.1089
26178SOL    HW183381   6.939   5.629   3.955 -0.3026 -1.9100  0.1108
26178SOL    HW283382   7.029   5.578   4.066 -0.7426 -1.8598  0.4918
26179SOL     OW83383   7.935   7.237   4.155  0.1776 -0.4181  0.2321
26179SOL    HW183384   7.958   7.234   4.248  2.1160  1.1084 -0.1513
26179SOL    HW283385   7.981   7.314   4.122 -1.2852 -0.3760 -1.7916
26180SOL     OW83386   5.572   6.062   1.337  0.4107  0.0386  0.2850
26180SOL    HW183387   5.504   6.087   1.274  0.9915 -1.7489 -1.0623
26180SOL    HW283388   5.549   5.973   1.362  0.1144  0.7651  2.7434
26181SOL     OW83389   9.080   8.939   5.729  0.2038 -0.1759 -0.0429
26181SOL    HW183390   9.105   8.847   5.737 -0.4242 -0.1711  2.1268
26181SOL    HW283391   9.116   8.981   5.807 -0.8412  1.1176 -0.2510
26182SOL     OW83392   9.529   6.364   2.313 -0.1976 -0.2270 -0.0167
26182SOL    HW183393   9.546   6.282   2.265  0.7339 -0.1951  0.2490
26182SOL    HW283394   9.616   6.396   2.337 -0.4279  1.9240 -1.9035
26183SOL     OW83395   7.754   5.772   3.779 -0.1534 -0.4860 -0.2096
26183SOL    HW183396   7.761   5.731   3.693  1.4327  1.5765 -1.1131
26183SOL    HW283397   7.841   5.764   3.818  0.3146  2.2865 -0.5812
26184SOL     OW83398   7.240   7.514   5.276 -0.0572  0.1026 -0.7213
26184SOL    HW183399   7.299   7.447   5.311  0.9902  0.1412 -2.3614
26184SOL    HW283400   7.207   7.477   5.194  0.1104  1.3701 -1.3754
26185SOL     OW83401   7.428   7.272   5.687 -0.4188  0.0934 -0.2149
26185SOL    HW183402   7.361   7.206   5.701 -1.1152  0.5636 -1.2891
26185SOL    HW283403   7.473   7.278   5.771 -0.9640 -1.0509  0.1763
26186SOL     OW83404   8.182   5.256   5.231  0.1321  0.2959 -0.2346
26186SOL    HW183405   8.176   5.192   5.161 -0.1195 -1.6589  1.5312
26186SOL    HW283406   8.121   5.225   5.297  0.0865  2.3070  0.7005
26187SOL     OW83407   0.448   7.624   5.404  0.4217 -0.8634  0.6713
26187SOL    HW183408   0.411   7.560   5.344 -0.1043 -0.7343  0.8538
26187SOL    HW283409   0.538   7.594   5.419  1.3305  0.4010 -1.9885
26188SOL     OW83410   9.710   6.332   6.337  0.0245  0.0118 -0.3071
26188SOL    HW183411   9.777   6.298   6.396  1.2000 -0.6808 -1.9873
26188SOL    HW283412   9.669   6.254   6.299 -0.9164  0.4464 -0.2068
26189SOL     OW83413   7.657   6.367   3.069 -0.5065 -0.1805  0.6860
26189SOL    HW183414   7.720   6.438   3.061  0.0618 -0.6412  1.0471
26189SOL    HW283415   7.645   6.354   3.163 -1.3018  0.0417  0.6225
26190SOL     OW83416   8.594   4.754   5.711 -0.0260  0.6782 -0.3924
26190SOL    HW183417   8.518   4.746   5.768 -1.3371 -0.6700 -2.2430
26190SOL    HW283418   8.663   4.705   5.755 -0.7110  0.5350  0.5305
26191SOL     OW83419   9.036   7.654   4.090 -0.3785 -0.1916  0.4711
26191SOL    HW183420   8.988   7.610   4.020  2.2651 -1.4791 -0.5914
26191SOL    HW283421   9.003   7.614   4.170  0.9493 -3.1455 -0.3981
26192SOL     OW83422   9.411   7.071   3.546  0.2828  0.7925 -0.1273
26192SOL    HW183423   9.414   7.103   3.636  1.9645  1.8385 -0.5416
26192SOL    HW283424   9.392   7.148   3.493 -1.9399 -0.0337 -0.5902
26193SOL     OW83425   8.791   6.258   4.508  0.4006  0.1248 -0.1028
26193SOL    HW183426   8.726   6.203   4.464 -1.3634  1.2165  1.0496
26193SOL    HW283427   8.784   6.343   4.465  0.4462  0.4937  0.6124
26194SOL     OW83428   7.454   8.635   4.486  0.2974 -0.1905 -0.0215
26194SOL    HW183429   7.538   8.592   4.471 -0.2317 -1.1643 -0.2597
26194SOL    HW283430   7.428   8.668   4.400  0.7643  0.7303  0.1858
26195SOL     OW83431   6.761   6.202   5.782  0.3326  0.0834  0.3127
26195SOL    HW183432   6.686   6.190   5.840  0.6487 -0.9222  0.5267
26195SOL    HW283433   6.827   6.245   5.836 -0.5245  2.1540 -0.2296
26196SOL     OW83434   7.809   6.206   5.432  0.3092 -0.0585 -0.1608
26196SOL    HW183435   7.848   6.293   5.444  3.1288 -1.4775  1.4705
26196SOL    HW283436   7.854   6.171   5.355 -1.4994  0.2484 -1.3842
26197SOL     OW83437   7.426   6.291   4.315  0.6726 -0.3167 -0.0421
26197SOL    HW183438   7.419   6.304   4.220  0.2909 -0.5395 -0.0476
26197SOL    HW283439   7.479   6.212   4.325  0.7851 -0.2443 -0.0666
26198SOL     OW83440   7.710   6.833   7.171 -0.0869 -0.3766  0.1953
26198SOL    HW183441   7.727   6.780   7.093 -2.2635  0.8073 -1.1321
26198SOL    HW283442   7.749   6.918   7.152 -3.0417  0.8050 -0.8380
26199SOL     OW83443   7.314   6.619   5.993 -0.2710 -0.3551  0.4347
26199SOL    HW183444   7.254   6.580   6.057 -1.8146  0.9784 -0.1576
26199SOL    HW283445   7.299   6.567   5.913 -0.8994  0.1876  0.1934
26200SOL     OW83446   8.917   6.745   3.380 -0.1176  0.4509  0.2321
26200SOL    HW183447   8.847   6.717   3.321  0.6497 -1.6870  0.2936
26200SOL    HW283448   8.996   6.706   3.343  1.0657  2.8610  0.1476
26201SOL     OW83449   7.824   5.456   4.356  0.1284  0.2426  0.2879
26201SOL    HW183450   7.744   5.508   4.366  0.8996  1.0387  2.6311
26201SOL    HW283451   7.867   5.492   4.279 -1.3964  0.3105 -0.5493
26202SOL     OW83452   8.496   7.462   4.572  0.0463  0.2130  0.3816
26202SOL    HW183453   8.580   7.416   4.567 -0.4744 -0.8489  1.0624
26202SOL    HW283454   8.431   7.392   4.580 -0.7607  1.0778  1.5505
26203SOL     OW83455   7.030   4.899   3.718 -0.1156 -0.1152  0.2650
26203SOL    HW183456   7.036   4.804   3.705  0.0943  0.0475 -0.8990
26203SOL    HW283457   7.005   4.933   3.632  0.6386  0.9661  0.4658
26204SOL     OW83458   8.399   6.034   3.504  0.3583  0.4033 -0.3291
26204SOL    HW183459   8.390   6.060   3.596 -0.0540 -1.8350  0.2939
26204SOL    HW283460   8.404   5.939   3.507  0.4368  0.3182 -2.6420
26205SOL     OW83461   8.138   7.404   4.807  0.8793 -0.2300 -0.1987
26205SOL    HW183462   8.143   7.341   4.735 -0.9353 -0.2969 -0.2838
26205SOL    HW283463   8.147   7.351   4.886 -0.6713 -0.5992 -0.2697
26206SOL     OW83464   7.391   7.086   4.126  0.6806  0.3813 -0.7580
26206SOL    HW183465   7.439   7.028   4.185 -0.3508 -1.7612 -1.9645
26206SOL    HW283466   7.431   7.071   4.040 -0.2450  0.7059 -1.2590
26207SOL     OW83467   9.439   8.264   5.809  0.2296 -0.0087 -0.4497
26207SOL    HW183468   9.528   8.293   5.831 -0.3886  1.0774  0.6647
26207SOL    HW283469   9.448   8.170   5.795  1.5656  0.0865 -0.3358
26208SOL     OW83470   8.350   6.797   5.383  0.6686  0.4867  0.2268
26208SOL    HW183471   8.334   6.875   5.329 -1.8921 -0.2781 -0.1700
26208SOL    HW283472   8.325   6.823   5.471 -1.9983 -0.4345 -0.2338
26209SOL     OW83473   1.460   6.533   3.925  0.6301  0.2243  0.2454
26209SOL    HW183474   1.451   6.626   3.947 -1.1247 -0.0242  0.6808
26209SOL    HW283475   1.499   6.493   4.002  1.5514  0.6143 -0.0081
26210SOL     OW83476   8.916   6.880   4.525 -0.4336  0.4327 -0.1531
26210SOL    HW183477   8.847   6.915   4.582 -1.1206 -1.6184  0.3171
26210SOL    HW283478   8.872   6.864   4.441 -0.3461 -0.1431 -0.0916
26211SOL     OW83479   9.562   6.559   3.437  0.0304  0.4613  0.1350
26211SOL    HW183480   9.635   6.606   3.477  0.6053  0.4328 -0.8466
26211SOL    HW283481   9.579   6.566   3.343 -0.5720 -0.5916 -0.0561
26212SOL     OW83482   8.993   5.962   4.176  0.4668  0.1853 -0.2391
26212SOL    HW183483   9.080   5.994   4.152  0.4393 -0.8497 -1.7630
26212SOL    HW283484   8.932   6.023   4.134  0.4267  1.0213  0.9821
26213SOL     OW83485   0.274   7.460   5.907 -0.1564  0.3066 -0.0963
26213SOL    HW183486   0.347   7.490   5.853  0.6347 -2.7958 -0.9019
26213SOL    HW283487   0.317   7.412   5.979 -1.2765  2.3013  1.9458
26214SOL     OW83488   6.615   7.461   4.771  0.4431 -0.2151  0.3826
26214SOL    HW183489   6.632   7.435   4.861  1.9392  1.7039  0.6840
26214SOL    HW283490   6.522   7.485   4.770 -0.1043 -2.2851  0.8820
26215SOL     OW83491   8.319   5.275   3.031  0.3074 -0.5030 -0.2092
26215SOL    HW183492   8.315   5.304   3.122 -0.0116  1.3566 -0.7979
26215SOL    HW283493   8.235   5.304   2.993  1.3252  0.6320 -1.6365
26216SOL     OW83494   8.708   6.550   4.338 -0.1409  0.2904 -0.1021
26216SOL    HW183495   8.797   6.518   4.326 -0.1079  0.4267 -0.2200
26216SOL    HW283496   8.681   6.581   4.252 -0.7925 -1.0032 -0.3775
26217SOL     OW83497   7.443   4.416   5.084  0.5334  0.0097  0.4711
26217SOL    HW183498   7.506   4.482   5.115  1.1850 -0.0049 -0.8001
26217SOL    HW283499   7.362   4.438   5.129  0.2233  2.8634 -1.3152
26218SOL     OW83500   9.265   6.663   5.410 -0.1243  0.5746  0.6490
26218SOL    HW183501   9.236   6.574   5.427 -1.2231  0.7840 -0.1288
26218SOL    HW283502   9.188   6.709   5.378  0.3170  1.9234  1.4324
26219SOL     OW83503   9.622   8.232   5.223 -0.4822  0.0814 -0.3159
26219SOL    HW183504   9.538   8.186   5.213 -0.6198  0.4764 -0.9748
26219SOL    HW283505   9.677   8.169   5.270 -1.6140  0.3935  1.4659
26220SOL     OW83506   9.376   6.347   4.935  0.2339 -0.0242 -0.1442
26220SOL    HW183507   9.410   6.386   4.854  0.6555  0.5944  0.3299
26220SOL    HW283508   9.282   6.336   4.918  0.1724  0.8879 -0.4077
26221SOL     OW83509   9.287   7.573   4.142  0.3154  0.3318 -0.1095
26221SOL    HW183510   9.330   7.602   4.223  0.2970  0.9499 -0.3167
26221SOL    HW283511   9.193   7.576   4.163  0.3069  0.5715 -0.1751
26222SOL     OW83512   0.595   5.566   3.360 -0.2309 -0.1612  0.5792
26222SOL    HW183513   0.683   5.592   3.390  0.2165 -0.4467 -0.4535
26222SOL    HW283514   0.585   5.476   3.392  0.0815 -0.3270  0.2088
26223SOL     OW83515   7.798   7.718   4.579 -0.8007 -0.1238  0.2114
26223SOL    HW183516   7.890   7.712   4.605 -0.0850 -0.3869 -2.2902
26223SOL    HW283517   7.795   7.794   4.521 -2.2197  0.0059  0.4402
26224SOL     OW83518   6.691   7.168   2.824  0.2304  0.0651  0.7130
26224SOL    HW183519   6.622   7.103   2.807  0.4666  0.0233 -0.1005
26224SOL    HW283520   6.769   7.116   2.844  0.4104  0.1034  0.0993
26225SOL     OW83521   9.359   7.349   3.070  0.3122  0.7784 -0.2168
26225SOL    HW183522   9.315   7.378   3.150  0.0665 -0.3910  0.0788
26225SOL    HW283523   9.442   7.396   3.070  0.4897  0.4780  0.9313
26226SOL     OW83524   9.340   5.936   6.750 -0.0959  0.1602 -0.4267
26226SOL    HW183525   9.433   5.943   6.728  0.0423  2.4152  0.6539
26226SOL    HW283526   9.327   6.003   6.817 -1.8726 -2.1396  1.5940
26227SOL     OW83527   6.991   5.657   4.322 -0.4429 -0.0418  0.7438
26227SOL    HW183528   6.985   5.749   4.345  1.2329  0.3309 -0.2078
26227SOL    HW283529   6.958   5.653   4.232  1.2285 -0.0299  0.1012
26228SOL     OW83530   7.531   7.309   4.237  0.1052 -0.0897  0.2440
26228SOL    HW183531   7.482   7.228   4.242  0.5091 -0.2977  0.8988
26228SOL    HW283532   7.471   7.372   4.196  0.2275 -1.0469 -1.4637
26229SOL     OW83533   7.008   5.300   6.149 -0.1796 -0.1181 -0.2023
26229SOL    HW183534   7.083   5.263   6.196 -0.5880 -1.8004 -0.8487
26229SOL    HW283535   7.018   5.269   6.059 -0.3865  1.6010 -0.8403
26230SOL     OW83536   8.617   7.151   3.079  0.1742 -0.4642  0.8779
26230SOL    HW183537   8.635   7.060   3.100 -0.4607 -0.5099  1.2452
26230SOL    HW283538   8.604   7.153   2.984  0.8390 -0.6434  0.7849
26231SOL     OW83539   9.029   6.494   3.452  0.3520 -0.2607  0.5628
26231SOL    HW183540   9.082   6.547   3.393 -0.5122 -1.0396 -0.9361
26231SOL    HW283541   9.083   6.419   3.473  0.3059 -0.4557 -0.0052
26232SOL     OW83542   8.056   6.789   4.799 -0.0050 -0.8786 -0.4015
26232SOL    HW183543   8.115   6.737   4.854 -0.3411 -1.0921 -0.2435
26232SOL    HW283544   8.049   6.873   4.844 -2.0120 -1.7836  1.0604
26233SOL     OW83545   6.330   6.045   3.360  0.0719  0.5735  0.5312
26233SOL    HW183546   6.359   6.118   3.305  2.3774 -1.5562 -1.2007
26233SOL    HW283547   6.254   6.010   3.314  1.5730 -0.7680 -0.9974
26234SOL     OW83548   8.128   6.742   6.050  0.0137 -0.3960  0.0341
26234SOL    HW183549   8.032   6.738   6.051  0.0295 -0.8580 -0.0980
26234SOL    HW283550   8.148   6.832   6.075 -0.4736 -0.0819 -0.6987
26235SOL     OW83551   7.896   4.977   5.765  0.4592  0.4032  1.1425
26235SOL    HW183552   7.945   4.913   5.714 -0.0173 -1.0862  2.4973
26235SOL    HW283553   7.962   5.018   5.822  0.6945  0.8279  0.5676
26236SOL     OW83554   9.862   7.595   4.170 -0.2234 -0.2756 -1.2112
26236SOL    HW183555   9.904   7.675   4.202  0.1612 -0.4862 -1.1827
26236SOL    HW283556   9.935   7.535   4.152 -0.6126 -1.4039  0.8522
26237SOL     OW83557   8.727   5.367   5.292  0.3444 -0.0944 -0.7289
26237SOL    HW183558   8.797   5.412   5.340  0.5827  2.2989 -3.1906
26237SOL    HW283559   8.647   5.412   5.317 -0.1327 -1.7572  0.8113
26238SOL     OW83560   8.845   6.170   3.651 -0.4876 -0.4852 -0.0665
26238SOL    HW183561   8.807   6.191   3.565 -1.4550  1.8900  0.9079
26238SOL    HW283562   8.913   6.106   3.631 -0.1035  0.6583 -2.7257
26239SOL     OW83563   7.169   6.148   5.305  0.0188 -0.0421 -0.5016
26239SOL    HW183564   7.085   6.133   5.262  0.6073 -0.6975 -1.4161
26239SOL    HW283565   7.225   6.183   5.236  0.4029  0.7128  0.1913
26240SOL     OW83566   8.875   7.641   6.331 -0.0168 -0.4664  0.1868
26240SOL    HW183567   8.807   7.644   6.263 -0.1672  0.1894  0.3640
26240SOL    HW283568   8.933   7.571   6.303 -0.1557 -0.2953 -0.5484
26241SOL     OW83569   8.719   5.535   4.975  0.5525 -0.1158  0.6401
26241SOL    HW183570   8.712   5.535   5.070  0.7678  1.4970  0.6808
26241SOL    HW283571   8.639   5.579   4.945  0.0885 -1.3438  0.0228
26242SOL     OW83572   7.577   5.640   2.973 -0.1098 -0.3501  0.4025
26242SOL    HW183573   7.649   5.652   2.911  0.2164  0.4521  0.9259
26242SOL    HW283574   7.612   5.671   3.057 -0.2114 -2.3489  1.2113
26243SOL     OW83575   8.793   4.237   4.825 -0.5574 -0.5209  0.0029
26243SOL    HW183576   8.835   4.287   4.755 -3.6502  0.5604 -1.1198
26243SOL    HW283577   8.754   4.162   4.781  1.1585 -2.2119  1.2269
26244SOL     OW83578   8.771   6.962   5.374 -0.5572 -0.1331  0.0030
26244SOL    HW183579   8.694   6.961   5.318  0.3464 -0.3365 -1.2501
26244SOL    HW283580   8.753   6.896   5.440 -0.9166 -1.0830 -1.0320
26245SOL     OW83581   8.876   5.690   6.215 -0.9516  0.1227  0.5301
26245SOL    HW183582   8.912   5.700   6.126  0.3641  0.2587  1.0630
26245SOL    HW283583   8.951   5.660   6.267 -1.6896  0.1800  1.6266
26246SOL     OW83584   9.242   6.077   4.145 -0.3046 -0.1762  0.0000
26246SOL    HW183585   9.331   6.044   4.135  0.1753  0.9531  0.4963
26246SOL    HW283586   9.236   6.151   4.085 -1.0897 -0.5779 -0.4358
26247SOL     OW83587   7.197   5.837   5.914 -0.2319  0.0773  0.0231
26247SOL    HW183588   7.280   5.798   5.885  0.2388  0.8342  0.3666
26247SOL    HW283589   7.149   5.764   5.954 -0.3304 -0.6807 -1.4398
26248SOL     OW83590   8.762   6.538   3.548  0.1994 -0.2616 -0.3373
26248SOL    HW183591   8.843   6.511   3.506  0.1466  2.0136 -1.9920
26248SOL    HW283592   8.694   6.486   3.504  0.5997 -1.1556  0.0862
26249SOL     OW83593   9.117   6.055   3.616 -0.3778 -0.4155 -0.1172
26249SOL    HW183594   9.130   6.148   3.638 -0.2808 -1.0397  2.7067
26249SOL    HW283595   9.206   6.019   3.611 -0.4633 -0.8314  1.1403
26250SOL     OW83596   9.951   6.261   3.914  0.0909 -0.9202  0.0347
26250SOL    HW183597   9.933   6.218   3.997 -2.1274  1.6904  0.9911
26250SOL    HW283598   9.879   6.235   3.856 -0.7271  0.6453  0.3159
26251SOL     OW83599   8.570   5.406   4.766  0.3401  0.3318 -0.0932
26251SOL    HW183600   8.524   5.479   4.806  1.8335  0.1725  2.0034
26251SOL    HW283601   8.629   5.447   4.702 -0.9501  0.6946 -1.0899
26252SOL     OW83602   8.507   6.352   3.729  0.6955  0.2250  0.5102
26252SOL    HW183603   8.452   6.274   3.741 -0.0649  0.7655  0.5691
26252SOL    HW283604   8.501   6.371   3.636  2.2575 -0.7867  0.1900
26253SOL     OW83605   8.607   5.873   3.225 -0.5705  0.2846  0.6016
26253SOL    HW183606   8.622   5.834   3.312 -2.3431 -1.7956  0.0163
26253SOL    HW283607   8.559   5.806   3.177 -0.1750  1.6789 -1.7990
26254SOL     OW83608   6.875   7.162   3.721 -0.7354  0.3773  0.1973
26254SOL    HW183609   6.888   7.067   3.727  0.0656  0.4435 -0.3512
26254SOL    HW283610   6.785   7.172   3.691 -0.7776 -0.2200  0.1131
26255SOL     OW83611   8.808   7.971   3.748  0.1039 -0.1080  0.0441
26255SOL    HW183612   8.832   8.001   3.660  1.7582  0.9397  0.8217
26255SOL    HW283613   8.891   7.962   3.794 -0.8201  0.9718  2.0011
26256SOL     OW83614   8.911   8.442   3.506  0.4124  0.1283  0.4559
26256SOL    HW183615   8.973   8.370   3.513  1.1641  0.2419 -3.7008
26256SOL    HW283616   8.855   8.419   3.431 -0.0762  3.2778 -0.2282
26257SOL     OW83617   8.787   6.831   3.643 -0.4941 -1.0551  0.2104
26257SOL    HW183618   8.776   6.914   3.596 -0.4723 -1.1456  0.0480
26257SOL    HW283619   8.789   6.764   3.575 -0.5190 -1.1911  0.3423
26258SOL     OW83620   7.122   7.401   3.516  0.1571 -0.1114  0.1478
26258SOL    HW183621   7.142   7.329   3.576 -0.0254  0.0036  0.3465
26258SOL    HW283622   7.197   7.460   3.523  0.1513 -0.1143  0.2419
26259SOL     OW83623   9.880   5.265   5.696  0.0980 -0.5176  0.5932
26259SOL    HW183624   9.876   5.288   5.603 -1.2128  0.3877  0.8539
26259SOL    HW283625   9.916   5.176   5.697 -0.8187 -0.9405 -0.8577
26260SOL     OW83626   8.539   6.760   4.713 -0.6821 -0.3076 -0.8689
26260SOL    HW183627   8.628   6.730   4.730 -1.2185 -1.7755 -0.6352
26260SOL    HW283628   8.521   6.732   4.623 -1.7819 -2.1627 -0.0805
26261SOL     OW83629   9.730   6.840   3.208 -0.5733 -0.6271  0.0744
26261SOL    HW183630   9.778   6.882   3.136 -2.1133  1.9281  0.4868
26261SOL    HW283631   9.639   6.866   3.194 -0.9373 -0.3805  2.7383
26262SOL     OW83632   8.186   8.774   4.435  0.0623 -0.2957  0.2447
26262SOL    HW183633   8.248   8.756   4.506 -0.7324 -0.3453  0.9329
26262SOL    HW283634   8.202   8.704   4.371  1.5608  0.4006 -0.1583
26263SOL     OW83635   5.800   5.550   2.504 -0.5619  0.0327 -0.1796
26263SOL    HW183636   5.833   5.493   2.434  0.7818 -0.6332  0.9676
26263SOL    HW283637   5.877   5.569   2.557 -1.6508  0.1834  1.3750
26264SOL     OW83638   7.791   7.039   4.408  0.4736  0.0625 -0.3507
26264SOL    HW183639   7.728   7.043   4.481  0.4779 -0.9231 -0.2813
26264SOL    HW283640   7.859   7.102   4.432 -0.1206  0.6066 -0.0713
26265SOL     OW83641   8.699   6.267   3.899 -0.2109 -0.1372  0.4382
26265SOL    HW183642   8.637   6.300   3.834  0.2703  0.4065  0.2512
26265SOL    HW283643   8.772   6.234   3.847  0.3211  0.6042  0.7193
26266SOL     OW83644   7.436   5.576   6.409  0.2228  0.3645 -0.0322
26266SOL    HW183645   7.377   5.526   6.464 -0.5579  0.4239 -0.7978
26266SOL    HW283646   7.416   5.668   6.429  0.7325  0.3787  0.4133
26267SOL     OW83647   9.113   5.127   3.260  0.7505 -0.0735 -0.1159
26267SOL    HW183648   9.104   5.174   3.343  1.8702  0.8114 -0.4812
26267SOL    HW283649   9.203   5.144   3.232 -0.2772  1.5488 -2.6393
26268SOL     OW83650   9.016   7.175   3.147 -0.2335  0.0665 -0.0431
26268SOL    HW183651   8.978   7.155   3.232 -2.3045 -1.2467 -1.2407
26268SOL    HW283652   9.047   7.091   3.114 -1.6668  0.1361 -1.6342
26269SOL     OW83653   8.729   7.042   3.484 -1.2389  0.3448  0.0214
26269SOL    HW183654   8.713   7.136   3.485 -1.1705  0.3593 -0.2955
26269SOL    HW283655   8.660   7.007   3.428 -0.2307  0.3962 -1.2798
26270SOL     OW83656   7.398   7.240   4.492  0.0951 -0.0527  0.6236
26270SOL    HW183657   7.423   7.332   4.479 -0.0183  0.0507  1.1309
26270SOL    HW283658   7.461   7.208   4.557 -0.2813 -0.1527  0.9373
26271SOL     OW83659   8.589   7.373   3.823  0.8031  0.2055 -0.2559
26271SOL    HW183660   8.506   7.395   3.863  0.0713 -0.9290 -1.1045
26271SOL    HW283661   8.610   7.286   3.858  0.9025 -0.1354 -1.1394
26272SOL     OW83662   0.060   7.622   5.992  0.4881  0.4656  0.3075
26272SOL    HW183663   0.082   7.683   5.921  0.2826 -0.4171 -0.5253
26272SOL    HW283664   0.113   7.544   5.973 -0.9161 -0.4568  0.1065
26273SOL     OW83665   8.933   6.222   4.064  0.5763  0.8928  0.5301
26273SOL    HW183666   9.006   6.277   4.034 -0.0664  2.4383  1.7501
26273SOL    HW283667   8.861   6.244   4.005  0.4297  1.0778  0.7779
26274SOL     OW83668   8.501   8.419   4.161  0.1089 -0.2345  0.3857
26274SOL    HW183669   8.555   8.341   4.175 -0.9977 -1.6636 -2.6762
26274SOL    HW283670   8.559   8.482   4.119 -0.3918 -1.5808 -2.4375
26275SOL     OW83671   8.727   8.543   6.198  0.3237  0.2727  0.1760
26275SOL    HW183672   8.721   8.527   6.104 -0.4876  1.2772  0.0509
26275SOL    HW283673   8.637   8.563   6.224  0.4074 -0.7908  1.3119
26276SOL     OW83674   8.966   6.673   4.725  0.1075 -0.7817 -0.4035
26276SOL    HW183675   9.016   6.640   4.800  0.5074 -0.0086 -0.3291
26276SOL    HW283676   8.919   6.749   4.759  0.6232 -0.1690 -1.0389
26277SOL     OW83677   8.449   5.655   4.554  0.1135 -0.1276  0.3381
26277SOL    HW183678   8.489   5.732   4.595  3.9235 -2.2282  0.8785
26277SOL    HW283679   8.407   5.609   4.626 -2.1311  1.3468  0.0226
26278SOL     OW83680   9.180   8.080   4.894  0.1672 -0.2324 -0.0158
26278SOL    HW183681   9.142   8.134   4.825 -1.3844 -0.0340  0.9576
26278SOL    HW283682   9.264   8.120   4.913 -0.0842  0.6295 -0.7104
26279SOL     OW83683   9.613   7.370   4.603  0.1216  0.3419 -0.6406
26279SOL    HW183684   9.665   7.444   4.572  0.0370 -0.3523 -2.4453
26279SOL    HW283685   9.526   7.384   4.566  0.2420 -0.9299 -1.4256
26280SOL     OW83686   8.740   5.040   5.650 -0.3303  0.3355  0.8958
26280SOL    HW183687   8.655   5.048   5.608 -0.1211  1.0235  0.5989
26280SOL    HW283688   8.792   5.113   5.615  0.0060  0.6243  1.9509
26281SOL     OW83689   7.450   6.710   4.971  0.3502  0.0779  0.0929
26281SOL    HW183690   7.478   6.619   4.955  2.0006  0.2705  1.7405
26281SOL    HW283691   7.355   6.706   4.969  0.3655 -0.9652 -3.6921
26282SOL     OW83692   7.457   8.262   6.060  0.1279  0.1015 -0.1604
26282SOL    HW183693   7.427   8.181   6.016  0.8723 -0.3784  0.2088
26282SOL    HW283694   7.545   8.276   6.026  0.8428 -0.4519  1.4150
26283SOL     OW83695   7.157   6.819   5.556 -0.4862  0.0834 -0.2850
26283SOL    HW183696   7.153   6.833   5.650 -1.4947 -0.5634 -0.2181
26283SOL    HW283697   7.206   6.738   5.545  1.6242  1.3616 -0.4458
26284SOL     OW83698   8.922   6.709   2.535  0.5714 -0.5473  0.2361
26284SOL    HW183699   8.994   6.765   2.567 -1.1104  1.4691  0.6016
26284SOL    HW283700   8.936   6.705   2.440  1.7820 -1.0595  0.4306
26285SOL     OW83701   9.066   7.553   2.649 -0.4089  0.0269  0.4870
26285SOL    HW183702   9.011   7.575   2.574 -0.6925  0.3220  0.7809
26285SOL    HW283703   9.061   7.629   2.706  0.0303 -0.0838  0.6786
26286SOL     OW83704   7.196   7.128   6.755 -0.0512 -0.8478  0.0894
26286SOL    HW183705   7.157   7.070   6.820  1.0202 -2.0226 -0.2992
26286SOL    HW283706   7.183   7.084   6.671  0.3827 -0.3177 -0.2651
26287SOL     OW83707   9.201   8.163   4.110 -0.6225 -0.0188 -0.2466
26287SOL    HW183708   9.228   8.179   4.019 -1.9419 -1.3939 -0.9160
26287SOL    HW283709   9.127   8.103   4.102 -0.1141 -0.9542  1.8080
26288SOL     OW83710   8.661   6.685   2.866  0.0451  0.7898  0.2129
26288SOL    HW183711   8.728   6.636   2.819  0.6660  1.5497  0.3015
26288SOL    HW283712   8.602   6.717   2.798 -0.7011 -0.5751  0.2024
26289SOL     OW83713   6.883   4.547   4.768  0.3002 -0.0035 -0.3036
26289SOL    HW183714   6.947   4.508   4.707 -0.4165 -1.0946 -0.3581
26289SOL    HW283715   6.891   4.496   4.848 -0.7230 -0.3415 -0.4123
26290SOL     OW83716   8.050   7.114   3.081  0.2963 -0.2865  0.3654
26290SOL    HW183717   8.046   7.023   3.109 -0.5631  0.2968  2.1950
26290SOL    HW283718   8.106   7.157   3.145 -0.7978  0.8457  0.5982
26291SOL     OW83719   0.051   6.608   3.106  0.0756  0.4926  0.2542
26291SOL    HW183720  -0.037   6.641   3.091  0.7387  1.6004 -1.2999
26291SOL    HW283721   0.097   6.622   3.023  1.4358 -0.9819  0.7184
26292SOL     OW83722   8.853   7.186   2.196  0.0712  0.3203  0.1815
26292SOL    HW183723   8.791   7.244   2.152 -1.6325 -1.3091  0.3486
26292SOL    HW283724   8.882   7.234   2.273 -2.4469  0.3927  1.1238
26293SOL     OW83725   7.222   6.397   4.483 -0.3091 -0.3727 -1.0527
26293SOL    HW183726   7.287   6.369   4.418 -0.4203 -1.4177 -0.7279
26293SOL    HW283727   7.258   6.368   4.567 -0.3755  0.5892 -0.6882
26294SOL     OW83728   8.666   6.374   5.707 -0.1101  0.1336 -0.5819
26294SOL    HW183729   8.691   6.435   5.636 -0.7473  1.4136  0.2674
26294SOL    HW283730   8.693   6.288   5.675 -0.7791  0.6342 -2.5777
26295SOL     OW83731   7.745   5.791   4.067  0.3255  0.1516  0.1155
26295SOL    HW183732   7.753   5.778   3.973  0.7408  1.0012  0.0345
26295SOL    HW283733   7.812   5.856   4.089  2.7039 -2.6298  1.5552
26296SOL     OW83734   9.935   6.798   4.078  0.0746 -0.0305 -0.3357
26296SOL    HW183735   9.941   6.890   4.104 -0.1614  0.1568 -0.9333
26296SOL    HW283736   9.873   6.760   4.140 -0.0701  0.2867 -0.2793
26297SOL     OW83737   8.233   6.439   5.175  0.1057  0.0553 -0.5990
26297SOL    HW183738   8.309   6.393   5.141 -1.1235 -1.1158 -1.8351
26297SOL    HW283739   8.231   6.417   5.268  0.4209 -1.1616 -0.8698
26298SOL     OW83740   9.553   6.386   3.739 -0.4152  0.3589 -0.1325
26298SOL    HW183741   9.598   6.468   3.718  0.2526  0.1236  0.3767
26298SOL    HW283742   9.535   6.346   3.654  0.7382  0.2377 -0.3196
26299SOL     OW83743   8.194   6.633   3.968  0.5154 -0.5351 -0.3872
26299SOL    HW183744   8.108   6.596   3.951  0.6529 -0.7043 -0.7171
26299SOL    HW283745   8.253   6.558   3.967  0.2784 -0.7982  2.6263
26300SOL     OW83746   8.912   8.251   4.815 -0.8746  0.2664  0.0143
26300SOL    HW183747   9.001   8.286   4.822 -0.1003 -1.9502  1.6390
26300SOL    HW283748   8.877   8.255   4.904 -1.0201 -2.3519  0.1121
26301SOL     OW83749   8.660   6.861   5.628  0.2903  0.0701 -0.4059
26301SOL    HW183750   8.693   6.799   5.694  1.6789 -0.1851 -1.3411
26301SOL    HW283751   8.704   6.943   5.647 -0.3823  0.3745 -0.1389
26302SOL     OW83752   8.097   5.429   5.050 -0.4838  0.5185  0.1414
26302SOL    HW183753   8.005   5.443   5.073 -0.1203  2.7911  0.3926
26302SOL    HW283754   8.129   5.368   5.117 -2.1614 -1.5249 -0.8625
26303SOL     OW83755   7.783   7.020   5.319 -0.1177 -0.2083 -0.3684
26303SOL    HW183756   7.771   6.942   5.375 -0.7214 -1.1260 -1.7437
26303SOL    HW283757   7.876   7.018   5.296 -0.0092 -0.2064  0.0545
26304SOL     OW83758   9.809   5.827   4.057 -0.7555  0.0537  0.0235
26304SOL    HW183759   9.881   5.823   3.995 -0.8749 -0.8000 -0.0670
26304SOL    HW283760   9.839   5.886   4.125 -0.3410  0.4341 -0.4854
26305SOL     OW83761   9.011   5.414   4.397  0.0020 -0.1371  0.3168
26305SOL    HW183762   9.002   5.349   4.327 -1.4214 -1.2336  1.5104
26305SOL    HW283763   8.948   5.483   4.373  2.2708  1.4032 -1.5303
26306SOL     OW83764   8.892   5.672   4.667  0.4875  0.0986  0.0978
26306SOL    HW183765   8.978   5.636   4.644 -0.9334 -2.1576 -1.9181
26306SOL    HW283766   8.865   5.721   4.590 -1.3601 -1.8451 -0.5628
26307SOL     OW83767   8.347   5.632   6.253  0.4965  0.4850 -0.2106
26307SOL    HW183768   8.431   5.675   6.237  0.3868  0.9729  0.4939
26307SOL    HW283769   8.289   5.665   6.184  1.3526 -1.2423 -1.8206
26308SOL     OW83770   0.595   4.907   4.986  0.5747  0.6753  0.4592
26308SOL    HW183771   0.503   4.881   4.975  0.8101 -0.0489  0.1754
26308SOL    HW283772   0.620   4.870   5.071  0.4975  1.1741  0.6967
26309SOL     OW83773   8.281   5.857   4.253 -0.0400 -0.4839  0.2032
26309SOL    HW183774   8.374   5.831   4.251  0.1230 -0.0690  1.9001
26309SOL    HW283775   8.283   5.952   4.243 -0.1424 -0.2360  2.3520
26310SOL     OW83776   9.621   7.092   4.564  0.3884 -0.4217 -0.3415
26310SOL    HW183777   9.620   7.187   4.571 -0.0831 -0.6312  3.8833
26310SOL    HW283778   9.529   7.066   4.557  0.5179 -0.5857 -1.5666
26311SOL     OW83779   7.101   6.884   3.050 -0.0914 -0.0088 -0.0658
26311SOL    HW183780   7.196   6.893   3.042 -0.4052  2.3545 -1.5831
26311SOL    HW283781   7.084   6.895   3.144  1.0407  0.6355  0.0739
26312SOL     OW83782   9.986   7.563   5.443  0.1918  0.6229 -0.1542
26312SOL    HW183783  10.025   7.650   5.453 -0.5031  1.1217 -1.6359
26312SOL    HW283784  10.006   7.537   5.353 -1.2033  0.0551 -0.3209
26313SOL     OW83785   7.578   6.455   7.412 -0.0972 -0.4631 -0.3579
26313SOL    HW183786   7.670   6.456   7.438 -0.5017 -0.0822  1.1013
26313SOL    HW283787   7.530   6.473   7.493 -1.2963  3.2446 -1.7871
26314SOL     OW83788   6.266   7.983   5.169  0.2584  0.0270 -0.2400
26314SOL    HW183789   6.175   7.996   5.144 -0.2149  0.6187  1.6831
26314SOL    HW283790   6.304   8.071   5.168  0.8062 -0.2092 -0.9697
26315SOL     OW83791   9.064   5.834   4.896  0.4567 -0.5383 -0.6255
26315SOL    HW183792   9.091   5.855   4.806 -0.7597  0.5547 -0.7523
26315SOL    HW283793   9.096   5.907   4.948  1.0285 -1.1011 -0.1733
26316SOL     OW83794   9.050   6.692   3.659  0.0063 -0.1435 -0.4961
26316SOL    HW183795   9.057   6.644   3.577 -3.0052 -0.0484 -0.8682
26316SOL    HW283796   9.005   6.773   3.635  0.6789  0.6800  0.9651
26317SOL     OW83797   5.879   4.726   3.039 -0.3272 -0.2755 -0.5821
26317SOL    HW183798   5.907   4.716   3.131 -2.0505 -2.1614 -0.2227
26317SOL    HW283799   5.873   4.636   3.007 -1.5593  0.3060 -2.0005
26318SOL     OW83800   6.462   7.008   3.747  0.0282  0.3232  0.1746
26318SOL    HW183801   6.403   6.962   3.687  0.7382  0.6428 -0.7686
26318SOL    HW283802   6.493   6.940   3.806  0.7438 -0.3456 -0.9502
26319SOL     OW83803   7.801   6.965   4.980  0.0878 -0.4231  0.2021
26319SOL    HW183804   7.850   6.903   5.034  2.0927  0.3949 -0.6257
26319SOL    HW283805   7.869   7.015   4.934 -1.5215  1.5351 -0.0837
26320SOL     OW83806   8.159   5.640   4.481  0.0541  0.1536 -0.8685
26320SOL    HW183807   8.134   5.638   4.389  0.6073 -0.4930 -1.0104
26320SOL    HW283808   8.254   5.651   4.481 -0.0940  1.5711 -0.3443
26321SOL     OW83809   8.672   6.573   3.806  0.5824  0.3309  0.9675
26321SOL    HW183810   8.690   6.585   3.713  1.3943 -1.4106  0.8892
26321SOL    HW283811   8.606   6.504   3.810  0.5070  0.4392  1.6762
26322SOL     OW83812   8.908   5.682   4.346  0.3488 -0.2331 -0.2599
26322SOL    HW183813   8.869   5.766   4.323 -0.1346 -0.1980  0.6439
26322SOL    HW283814   8.833   5.627   4.369  0.8325 -0.0771  1.7971
26323SOL     OW83815   6.784   7.456   5.059  0.1917  0.8204  0.3109
26323SOL    HW183816   6.812   7.388   5.120  0.1616  0.5162 -0.0178
26323SOL    HW283817   6.688   7.458   5.067  0.3160  2.0715  1.6605
26324SOL     OW83818   9.855   7.831   4.792  0.1295 -0.3343  0.0508
26324SOL    HW183819   9.932   7.875   4.758  0.4152 -0.9833 -0.1484
26324SOL    HW283820   9.791   7.836   4.721  0.1007 -0.0727  0.0969
26325SOL     OW83821   9.182   7.247   4.252  0.1424 -0.4510 -0.2180
26325SOL    HW183822   9.156   7.161   4.286 -1.9591 -0.0469 -0.7490
26325SOL    HW283823   9.182   7.236   4.157 -0.6411  0.2836 -0.3017
26326SOL     OW83824   7.807   8.380   5.497  0.6191 -0.2963  0.6672
26326SOL    HW183825   7.841   8.439   5.430  1.0436 -1.0136  0.2419
26326SOL    HW283826   7.791   8.297   5.451  0.1545 -0.5512  1.2815
26327SOL     OW83827   6.549   6.439   7.322  0.3905 -0.0862 -0.4127
26327SOL    HW183828   6.641   6.432   7.347  0.4052 -0.9476 -0.6727
26327SOL    HW283829   6.551   6.475   7.233  0.5747 -1.7559 -1.1183
26328SOL     OW83830   7.021   7.015   7.647  0.0392  0.6592 -0.2103
26328SOL    HW183831   6.995   6.978   7.731  1.3872  1.9195  0.7915
26328SOL    HW283832   6.939   7.021   7.597 -0.7366 -0.3196  0.9157
26329SOL     OW83833   8.510   7.371   5.594  0.1358  0.9978 -0.6277
26329SOL    HW183834   8.567   7.350   5.668  0.2039 -1.5234 -1.3353
26329SOL    HW283835   8.568   7.369   5.517 -0.5134  0.4286 -1.1130
26330SOL     OW83836   8.688   6.817   6.790  0.1213  0.1554 -0.3594
26330SOL    HW183837   8.662   6.842   6.879  3.1342  0.3398  0.4916
26330SOL    HW283838   8.635   6.739   6.771 -2.6201  1.7443  0.4572
26331SOL     OW83839   8.395   6.465   5.794 -0.2312 -0.6453  0.2770
26331SOL    HW183840   8.393   6.526   5.720 -0.4436 -0.6743  0.2579
26331SOL    HW283841   8.445   6.390   5.761 -1.5208 -1.2767 -0.3324
26332SOL     OW83842   7.830   5.824   7.150  0.2575  0.2580  0.3557
26332SOL    HW183843   7.814   5.854   7.240  0.1837 -0.9835  0.7683
26332SOL    HW283844   7.760   5.863   7.099  0.5897  1.3964  0.7406
26333SOL     OW83845   7.410   8.308   7.400 -0.2922  0.4639 -0.2698
26333SOL    HW183846   7.343   8.350   7.346  1.5795  0.5711 -2.5601
26333SOL    HW283847   7.457   8.251   7.340  0.0125 -1.6405  1.8699
26334SOL     OW83848   8.445   7.502   6.777 -0.4215  0.2904  0.5926
26334SOL    HW183849   8.379   7.482   6.844 -1.2883 -1.6110 -0.8041
26334SOL    HW283850   8.452   7.598   6.780 -4.4543  0.7230 -0.3400
26335SOL     OW83851   6.037   6.619   8.347 -0.0267  0.2904 -0.0392
26335SOL    HW183852   6.053   6.530   8.314  1.8111  0.4341  0.3713
26335SOL    HW283853   5.958   6.648   8.302  0.7906 -0.6188 -2.1128
26336SOL     OW83854   9.656   6.070   5.699  0.2746  0.2961 -0.1888
26336SOL    HW183855   9.646   6.083   5.605 -1.6453 -0.7513 -0.1717
26336SOL    HW283856   9.599   6.137   5.739  1.6120  1.1829  0.2473
26337SOL     OW83857   8.195   8.199   5.700 -0.1735  0.1143  0.0475
26337SOL    HW183858   8.100   8.186   5.693 -0.4020  0.8658  1.5371
26337SOL    HW283859   8.217   8.166   5.787  0.9171  0.0753 -0.2387
26338SOL     OW83860   5.942   6.948   7.136  0.5796  0.1787  0.4050
26338SOL    HW183861   5.911   7.037   7.154  0.7480  0.2650  0.2724
26338SOL    HW283862   5.974   6.917   7.221  0.5829  0.2677  0.4378
26339SOL     OW83863   7.387   9.020   4.330  0.3579  0.4244  0.3534
26339SOL    HW183864   7.294   8.996   4.320  0.3162  1.1792 -1.2231
26339SOL    HW283865   7.387   9.116   4.331  1.1335  0.4288  0.2090
26340SOL     OW83866   6.584   7.564   6.691  0.0869  0.1275  0.1237
26340SOL    HW183867   6.582   7.642   6.636  1.7349  0.8538  1.0382
26340SOL    HW283868   6.662   7.576   6.746 -1.4060 -0.6741  2.4729
26341SOL     OW83869   7.719   8.566   5.875 -0.3188 -0.6025  0.1279
26341SOL    HW183870   7.796   8.589   5.823 -2.0166 -0.9671 -2.6161
26341SOL    HW283871   7.664   8.644   5.872 -0.7062 -0.8420  0.8830
26342SOL     OW83872   1.286   5.939   5.801  0.4155 -0.1918 -0.4485
26342SOL    HW183873   1.329   5.945   5.716 -0.6205  0.0915 -0.9610
26342SOL    HW283874   1.207   5.991   5.791  1.0401  1.0925  1.1767
26343SOL     OW83875   6.852   6.883   7.826 -0.2670 -0.0879 -0.3688
26343SOL    HW183876   6.795   6.881   7.749 -1.6077 -0.6209  0.6235
26343SOL    HW283877   6.802   6.931   7.892  1.1576  0.9871 -0.0436
26344SOL     OW83878   8.424   7.903   6.108 -0.0894  0.2607  0.2850
26344SOL    HW183879   8.407   7.816   6.143 -0.2848  1.1198  2.3557
26344SOL    HW283880   8.519   7.914   6.114 -0.0915  0.2938  0.2676
26345SOL     OW83881   8.939   5.490   5.546  0.3798  0.1904  0.3072
26345SOL    HW183882   8.917   5.565   5.491 -0.4813 -1.3920 -1.6015
26345SOL    HW283883   8.864   5.481   5.606 -1.3520 -1.3440 -1.9597
26346SOL     OW83884   8.530   9.432   4.568  0.0617  0.0085  0.4587
26346SOL    HW183885   8.442   9.465   4.547  0.1891  0.5115  0.7037
26346SOL    HW283886   8.547   9.466   4.655  0.4189 -0.2616  0.4912
26347SOL     OW83887   8.228   5.107   4.626 -0.3481  0.0426 -0.9056
26347SOL    HW183888   8.284   5.184   4.639  1.0885 -1.0523 -0.5614
26347SOL    HW283889   8.170   5.133   4.554 -1.1525  2.1420  0.4417
26348SOL     OW83890   9.503   6.867   7.314  0.2854 -0.0870  0.2041
26348SOL    HW183891   9.545   6.806   7.253 -0.3675 -0.1745 -0.1622
26348SOL    HW283892   9.410   6.861   7.293  0.2400  1.2383 -0.0153
26349SOL     OW83893   7.719   5.226   6.171  0.1279  0.2215  0.0520
26349SOL    HW183894   7.722   5.134   6.147  2.3020  0.3989 -0.4243
26349SOL    HW283895   7.735   5.226   6.266  3.6458  0.3106 -0.4978
26350SOL     OW83896   7.999   7.639   4.882 -0.1542  0.3094  0.3101
26350SOL    HW183897   8.031   7.704   4.820 -1.3684  0.1124 -0.5418
26350SOL    HW283898   8.064   7.569   4.880 -1.0647 -0.5435 -2.1352
26351SOL     OW83899   9.562   8.144   7.479  0.3971 -0.2347 -0.4161
26351SOL    HW183900   9.632   8.095   7.435  1.4242 -0.1377  1.0872
26351SOL    HW283901   9.555   8.103   7.565 -0.4684  0.6438 -0.0619
26352SOL     OW83902   9.127   6.486   6.944 -0.1151 -0.5296  0.4576
26352SOL    HW183903   9.163   6.488   6.856  1.9913  2.2967  1.3388
26352SOL    HW283904   9.199   6.511   7.001 -1.8778 -0.6933  2.8709
26353SOL     OW83905   8.709   6.896   6.471  0.0509  0.3734 -0.0711
26353SOL    HW183906   8.740   6.985   6.452  0.4915 -0.0721 -1.4433
26353SOL    HW283907   8.640   6.909   6.536  0.0943  1.7243 -0.2719
26354SOL     OW83908   9.425   6.919   5.773  0.7751 -0.4081  0.6909
26354SOL    HW183909   9.381   6.991   5.818  0.9907 -1.0119  1.8968
26354SOL    HW283910   9.375   6.842   5.798  0.0124 -0.5868 -1.3067
26355SOL     OW83911   8.083   7.447   5.365  0.2310 -0.1212  0.3949
26355SOL    HW183912   8.168   7.411   5.393 -0.5720 -1.6602  0.9208
26355SOL    HW283913   8.060   7.396   5.287 -0.4514 -0.0608  0.5578
26356SOL     OW83914   9.707   5.708   7.037 -0.4448 -0.0840  0.2698
26356SOL    HW183915   9.668   5.794   7.023 -0.1632 -0.5092 -3.6016
26356SOL    HW283916   9.633   5.648   7.042 -0.6084  0.2596  2.2095
26357SOL     OW83917   0.102   8.812   5.653 -0.4632  0.3143 -0.4702
26357SOL    HW183918   0.157   8.825   5.576  0.9922 -0.5298  0.3988
26357SOL    HW283919   0.082   8.900   5.685 -0.8871  0.6564 -1.6698
26358SOL     OW83920   7.626   7.530   6.674 -0.4757  0.0468  0.0807
26358SOL    HW183921   7.613   7.438   6.696  0.6489  0.0195  0.7177
26358SOL    HW283922   7.715   7.549   6.705  0.2283  0.6968 -2.2467
26359SOL     OW83923   9.609   5.926   6.663 -1.1781  0.2091 -0.0769
26359SOL    HW183924   9.683   5.933   6.602 -1.9791  1.5545 -0.9110
26359SOL    HW283925   9.636   5.979   6.738 -1.0482  0.2183 -0.1291
26360SOL     OW83926   8.563   6.615   6.573  0.5718 -0.2533  0.1907
26360SOL    HW183927   8.478   6.619   6.617  1.1743 -0.5728  1.3931
26360SOL    HW283928   8.613   6.550   6.622  1.5838  0.0633 -0.3932
26361SOL     OW83929   8.464   6.030   5.138 -0.0923  0.3758  0.2101
26361SOL    HW183930   8.375   6.050   5.167 -0.0670  1.1526 -0.2373
26361SOL    HW283931   8.472   5.935   5.150 -1.1300  0.2300 -0.1630
26362SOL     OW83932   8.697   5.456   5.684  0.4891  0.4278 -0.1361
26362SOL    HW183933   8.750   5.456   5.764  0.1914 -1.0381  0.0710
26362SOL    HW283934   8.668   5.365   5.674 -3.1816  1.4502  0.5157
26363SOL     OW83935   9.133   8.780   7.298  0.3754 -0.2470 -0.2449
26363SOL    HW183936   9.117   8.874   7.312 -3.7661 -1.0277  1.1154
26363SOL    HW283937   9.095   8.763   7.212 -2.2967 -1.3162  1.0900
26364SOL     OW83938   7.408   5.149   6.425 -0.7633 -0.3451 -0.1051
26364SOL    HW183939   7.490   5.113   6.391  1.2803  0.2379  3.8690
26364SOL    HW283940   7.380   5.087   6.492 -3.1139 -0.0716 -0.7839
26365SOL     OW83941   8.497   4.743   9.202  0.3101 -0.1615  0.5481
26365SOL    HW183942   8.584   4.704   9.210  0.5463 -0.2834 -2.1100
26365SOL    HW283943   8.452   4.689   9.137 -0.8444  1.4336 -0.0262
26366SOL     OW83944   7.437   5.861   6.234 -0.0433  0.0903  0.1340
26366SOL    HW183945   7.411   5.838   6.145  1.1017 -2.1629  0.3386
26366SOL    HW283946   7.355   5.867   6.283 -0.6438  0.8947 -0.9547
26367SOL     OW83947   6.182   6.982   7.028  0.3226  0.1858 -0.1569
26367SOL    HW183948   6.248   6.946   7.088 -0.1829  0.8450  0.8011
26367SOL    HW283949   6.099   6.948   7.061  0.3697 -3.1990 -3.1711
26368SOL     OW83950   8.628   8.547   7.066  0.4215  0.1863  0.4574
26368SOL    HW183951   8.650   8.498   7.145 -0.1527  2.5354  2.1146
26368SOL    HW283952   8.533   8.559   7.071  0.5960  1.7493  0.2616
26369SOL     OW83953   9.255   6.376   7.922 -0.2197  0.1972  0.2804
26369SOL    HW183954   9.327   6.431   7.952 -1.4843  1.4523  1.0151
26369SOL    HW283955   9.192   6.437   7.884 -1.3991 -0.7845  0.6424
26370SOL     OW83956   6.600   7.098   4.083  0.2773 -0.4070  0.3227
26370SOL    HW183957   6.621   7.010   4.051 -0.5967 -0.5311  0.0724
26370SOL    HW283958   6.516   7.088   4.128  1.0831 -0.0634  1.9323
26371SOL     OW83959   8.935   8.157   7.093  0.1163 -0.5674 -0.0708
26371SOL    HW183960   9.004   8.122   7.037 -0.3657  0.8918 -1.5972
26371SOL    HW283961   8.856   8.110   7.066  0.2286 -1.2682  0.7630
26372SOL     OW83962   9.012   6.704   8.309  0.4263  0.0596  0.4267
26372SOL    HW183963   9.056   6.778   8.350  0.3822  0.6108 -0.4988
26372SOL    HW283964   8.931   6.741   8.273  0.5401 -0.3710 -0.2958
26373SOL     OW83965   8.658   5.805   3.528  0.4962  0.2826 -0.3576
26373SOL    HW183966   8.751   5.824   3.516  0.6787 -1.2402 -1.4040
26373SOL    HW283967   8.654   5.750   3.606  0.6769 -1.2171 -1.3863
26374SOL     OW83968   7.522   9.027   6.580  0.3905 -0.1687 -0.6856
26374SOL    HW183969   7.599   9.071   6.543  1.4486 -1.4133 -0.0128
26374SOL    HW283970   7.480   8.986   6.505  1.8195 -1.6107 -0.7383
26375SOL     OW83971   8.228   5.300   4.839  0.0878  0.0207 -0.5214
26375SOL    HW183972   8.299   5.365   4.842 -0.3558  0.4186  2.0473
26375SOL    HW283973   8.164   5.332   4.902  0.1019 -3.2110  1.2419
26376SOL     OW83974   9.081   7.812   6.743  0.5123  0.3809  0.0251
26376SOL    HW183975   9.139   7.886   6.763  0.7254  0.2779 -0.2170
26376SOL    HW283976   9.006   7.852   6.699  1.3538  0.2643 -1.5309
26377SOL     OW83977   8.143   6.792   6.417 -0.1573  0.0830  0.1806
26377SOL    HW183978   8.206   6.832   6.355  0.1877  0.4123  0.7371
26377SOL    HW283979   8.072   6.855   6.422  0.8678  1.1569  1.8632
26378SOL     OW83980   7.425   5.920   4.795 -0.2720  0.3156 -0.2524
26378SOL    HW183981   7.418   5.826   4.811  1.6144  0.0684 -0.7590
26378SOL    HW283982   7.496   5.928   4.732  0.3331  2.1601  0.6258
26379SOL     OW83983   8.044   4.882   7.532  0.1083 -0.0447 -0.2317
26379SOL    HW183984   8.020   4.862   7.441  0.7829 -1.1292 -0.1802
26379SOL    HW283985   7.983   4.952   7.558 -0.1980  0.1620 -1.4602
26380SOL     OW83986   7.555   5.361   3.999  0.9603  0.3698  1.0552
26380SOL    HW183987   7.595   5.284   4.041 -1.4593 -1.2371  0.5450
26380SOL    HW283988   7.549   5.426   4.069  2.6926 -0.0026  1.5916
26381SOL     OW83989   8.386   5.524   8.345  0.1980  0.5722  0.3621
26381SOL    HW183990   8.385   5.429   8.354  2.4556  0.4473 -0.5115
26381SOL    HW283991   8.425   5.556   8.426  0.8076  0.6707  0.0305
26382SOL     OW83992   7.712   8.863   7.994 -0.3143  0.7986  0.6691
26382SOL    HW183993   7.655   8.910   8.056 -0.8426  0.1622  0.6780
26382SOL    HW283994   7.658   8.790   7.963  0.7335 -0.2279  1.1992
26383SOL     OW83995   8.358   5.211   6.174 -0.5421  0.1237 -0.0876
26383SOL    HW183996   8.323   5.274   6.111 -1.1808 -1.4100 -1.2906
26383SOL    HW283997   8.303   5.221   6.251 -0.7883  0.8571 -0.3490
26384SOL     OW83998   8.140   6.497   6.831 -0.2013  0.3034 -0.2931
26384SOL    HW183999   8.064   6.542   6.868 -1.2189 -3.4184  2.3696
26384SOL    HW284000   8.189   6.466   6.907  1.8753 -0.7701 -2.0247
26385SOL     OW84001   8.055   5.686   7.202 -0.0923 -0.0749 -0.1987
26385SOL    HW184002   8.048   5.622   7.131 -1.0970 -1.5941  1.2291
26385SOL    HW284003   7.980   5.745   7.188 -0.4324 -0.5175 -0.2664
26386SOL     OW84004   8.089   5.571   5.388 -0.1803  0.3250  0.0865
26386SOL    HW184005   8.030   5.523   5.447  0.9876  0.6693  1.5730
26386SOL    HW284006   8.158   5.508   5.367 -0.1091  0.4858 -0.1608
26387SOL     OW84007   8.130   6.328   5.613  0.3158  0.7135  0.6350
26387SOL    HW184008   8.225   6.326   5.620  0.2940  1.7752  1.2252
26387SOL    HW284009   8.106   6.420   5.617 -0.7530  0.4506  0.6721
26388SOL     OW84010   8.126   6.137   5.877 -0.5615  0.4915 -0.0005
26388SOL    HW184011   8.192   6.068   5.887  1.4843  2.1880 -1.5474
26388SOL    HW284012   8.089   6.123   5.790 -0.2261  1.3005 -0.2700
26389SOL     OW84013   7.250   5.575   6.225  0.0416 -0.4012  0.4109
26389SOL    HW184014   7.201   5.621   6.294 -0.9970  0.1430 -0.6797
26389SOL    HW284015   7.339   5.569   6.260 -0.0454  1.5169  1.0228
26390SOL     OW84016   8.376   9.567   6.745 -0.0199  0.3671 -0.0920
26390SOL    HW184017   8.463   9.573   6.706  0.3084  0.6802  0.6761
26390SOL    HW284018   8.379   9.487   6.798 -0.1403  0.4759  0.0798
26391SOL     OW84019   8.861   7.226   6.061 -0.0433 -0.2220 -0.6305
26391SOL    HW184020   8.873   7.320   6.049 -0.7080 -0.3416 -2.4973
26391SOL    HW284021   8.945   7.195   6.094  0.1255  1.0516  0.1701
26392SOL     OW84022   9.646   8.374   5.502 -0.2244  0.6935 -0.0149
26392SOL    HW184023   9.684   8.460   5.518 -0.7177  1.5928 -3.2210
26392SOL    HW284024   9.707   8.331   5.443 -0.7220 -0.5940  0.3806
26393SOL     OW84025   7.094   6.033   5.561  0.7668  0.0351 -0.6692
26393SOL    HW184026   7.122   6.079   5.640  0.5755  2.0643 -1.7479
26393SOL    HW284027   7.145   6.072   5.490 -0.4593 -0.3970 -1.8191
26394SOL     OW84028   7.401   6.602   8.512  0.4492 -0.0159 -0.6898
26394SOL    HW184029   7.403   6.698   8.520 -0.5405  0.1602 -2.3396
26394SOL    HW284030   7.471   6.582   8.450  2.0270 -0.5685  1.2186
26395SOL     OW84031   7.880   6.106   6.367  0.2430  0.1949  0.3026
26395SOL    HW184032   7.878   6.201   6.354 -1.7433  0.0710 -0.3719
26395SOL    HW284033   7.808   6.072   6.314  0.5905 -1.6607  0.9587
26396SOL     OW84034   8.136   8.194   7.057 -0.3710 -0.2290  0.8996
26396SOL    HW184035   8.194   8.269   7.040  1.2332 -1.5066  0.6480
26396SOL    HW284036   8.167   8.126   6.997 -0.7197 -1.6648  2.3172
26397SOL     OW84037   6.567   7.727   5.270  0.6003 -0.4530  0.4865
26397SOL    HW184038   6.543   7.637   5.247 -1.6597 -0.1833  1.6907
26397SOL    HW284039   6.525   7.781   5.203  1.3352 -0.2279  0.1974
26398SOL     OW84040   0.006   7.953   5.539 -0.4012  0.1346 -0.1359
26398SOL    HW184041  -0.084   7.961   5.568 -0.1629  1.9926  0.2019
26398SOL    HW284042   0.044   8.040   5.554  1.3179 -0.4851 -0.6736
26399SOL     OW84043   9.467   5.987   5.401 -0.5456  0.6206 -0.3974
26399SOL    HW184044   9.537   6.018   5.343 -0.8154  0.4599 -0.8092
26399SOL    HW284045   9.489   5.896   5.419  0.1397  0.9811  0.6542
26400SOL     OW84046   6.707   6.950   7.601 -0.3270  0.3955 -0.5233
26400SOL    HW184047   6.693   6.907   7.517 -0.5907  1.0856 -0.8421
26400SOL    HW284048   6.634   7.012   7.609 -0.3882  0.2319  0.2837
26401SOL     OW84049   9.762   7.045   6.397  0.1733  0.0641  0.2884
26401SOL    HW184050   9.713   7.002   6.328 -0.4218  1.8150 -0.4165
26401SOL    HW284051   9.707   7.037   6.475  0.6309 -1.4985  0.4618
26402SOL     OW84052   7.884   6.519   5.993 -0.4726 -0.2806 -0.4035
26402SOL    HW184053   7.979   6.511   5.993 -0.3774  0.7389 -0.0119
26402SOL    HW284054   7.854   6.447   5.938  0.3930 -1.9278  1.2344
26403SOL     OW84055   8.891   5.371   7.367 -0.2640  0.0443 -0.0489
26403SOL    HW184056   8.839   5.450   7.382 -1.6915 -0.8380 -0.3677
26403SOL    HW284057   8.881   5.320   7.447  1.3654  0.5704  0.5066
26404SOL     OW84058   8.807   6.756   7.214 -0.1748  0.9367 -0.5288
26404SOL    HW184059   8.821   6.673   7.169  1.0775  1.1054 -0.4878
26404SOL    HW284060   8.757   6.733   7.293  2.0528 -0.1267  0.6229
26405SOL     OW84061   0.305   7.716   6.763  0.5801  0.6052 -0.0101
26405SOL    HW184062   0.311   7.648   6.697  0.7755 -1.1406  1.7563
26405SOL    HW284063   0.390   7.759   6.762  0.5159  0.7032 -1.0207
26406SOL     OW84064   7.645   8.282   4.972  0.0118  0.2519 -0.2686
26406SOL    HW184065   7.612   8.311   4.887  0.9375 -2.1687 -1.4837
26406SOL    HW284066   7.732   8.246   4.954 -0.3278 -1.5314  1.4692
26407SOL     OW84067   9.344   6.199   6.846  0.0210 -0.0579  0.6504
26407SOL    HW184068   9.344   6.250   6.765  0.5484 -0.1512  0.5907
26407SOL    HW284069   9.409   6.242   6.901  2.3262 -2.1590 -0.3437
26408SOL     OW84070   7.237   7.947   5.164  0.3487 -0.1574  0.7651
26408SOL    HW184071   7.314   7.994   5.133  0.3184 -1.4435 -1.3308
26408SOL    HW284072   7.195   8.007   5.226  2.6132  0.8399  1.3673
26409SOL     OW84073   7.714   7.198   7.904 -0.5351  0.2148  0.7299
26409SOL    HW184074   7.778   7.258   7.864 -1.3117 -0.4816 -1.6812
26409SOL    HW284075   7.756   7.112   7.901 -1.4543 -0.2098 -0.6630
26410SOL     OW84076   7.794   3.901   7.090  0.4044  0.3007 -0.7474
26410SOL    HW184077   7.859   3.836   7.062 -0.9694 -0.4608 -2.2031
26410SOL    HW284078   7.837   3.985   7.075  1.5442 -0.2201 -0.4718
26411SOL     OW84079   6.206   0.525   5.998  0.1064  0.7262 -0.0474
26411SOL    HW184080   6.121   0.552   6.034 -0.3717  0.7110 -1.1333
26411SOL    HW284081   6.185   0.452   5.940  1.0728 -0.3417  0.9108
26412SOL     OW84082   7.214   6.109   5.797 -0.1064  0.5638 -0.1139
26412SOL    HW184083   7.295   6.159   5.794  0.6819 -0.7704 -2.1358
26412SOL    HW284084   7.234   6.033   5.852 -0.3456  0.7998  0.3091
26413SOL     OW84085   8.717   5.586   7.423 -0.4150 -0.3037  0.7940
26413SOL    HW184086   8.750   5.675   7.436 -1.8411  0.4827 -0.9068
26413SOL    HW284087   8.669   5.567   7.504  0.2966  0.2766  1.3637
26414SOL     OW84088   8.508   6.672   5.963  0.5587 -0.1507 -0.3704
26414SOL    HW184089   8.516   6.613   5.888 -1.0052 -0.4474 -0.3217
26414SOL    HW284090   8.473   6.616   6.033 -1.5743  0.9642 -0.5094
26415SOL     OW84091   9.260   6.791   7.229  0.0535 -0.0418 -0.1978
26415SOL    HW184092   9.338   6.738   7.214  0.0245  0.3036 -1.6345
26415SOL    HW284093   9.246   6.837   7.146 -3.0134 -1.8080 -0.7142
26416SOL     OW84094   7.910   6.889   8.103  0.6529  0.0247 -0.2137
26416SOL    HW184095   7.897   6.979   8.133 -1.2580 -0.9128  1.9190
26416SOL    HW284096   7.837   6.872   8.044 -0.3425 -0.8729  1.2485
26417SOL     OW84097   8.396   6.706   6.922 -0.4576 -0.4373  0.3914
26417SOL    HW184098   8.311   6.662   6.924 -0.7313  0.1137  1.0730
26417SOL    HW284099   8.428   6.700   7.012  0.8031 -1.7552 -0.1275
26418SOL     OW84100   8.923   6.693   7.644  0.4556 -0.2748  0.0018
26418SOL    HW184101   8.847   6.739   7.680 -0.6424 -1.3330 -0.9351
26418SOL    HW284102   8.953   6.749   7.572  1.1666  0.6285  0.9914
26419SOL     OW84103   8.076   4.238   9.015  0.5543  0.0551  0.0688
26419SOL    HW184104   8.075   4.312   9.076  0.1508  1.8147 -2.0194
26419SOL    HW284105   7.986   4.206   9.014  0.5380  0.0876  0.3029
26420SOL     OW84106   8.664   6.901   5.927  0.5316  0.6824 -0.7239
26420SOL    HW184107   8.758   6.902   5.944  0.5772  2.4034 -0.9534
26420SOL    HW284108   8.639   6.809   5.932  2.1728  0.2470 -0.3661
26421SOL     OW84109   7.351   6.571   5.631 -0.2413 -0.0790 -0.0217
26421SOL    HW184110   7.440   6.603   5.615 -0.5869  0.9251  0.0536
26421SOL    HW284111   7.337   6.506   5.562 -0.0693  0.9906 -1.0812
26422SOL     OW84112   6.829   5.804   6.418 -0.5928  0.1154 -0.2202
26422SOL    HW184113   6.845   5.873   6.354 -1.5900 -0.1198 -0.7421
26422SOL    HW284114   6.737   5.780   6.405 -0.1969 -1.4848 -0.2349
26423SOL     OW84115   6.084   7.286   7.013  0.2087 -0.1817  0.1829
26423SOL    HW184116   6.030   7.365   7.007 -0.2588 -0.3274  2.3588
26423SOL    HW284117   6.051   7.240   7.090  1.2316 -1.9427 -0.4211
26424SOL     OW84118   7.831   7.831   7.809  0.1317  0.0246 -0.5286
26424SOL    HW184119   7.869   7.859   7.892  0.5031 -1.0801 -0.3215
26424SOL    HW284120   7.739   7.814   7.828 -0.0501  0.8738 -0.6105
26425SOL     OW84121   7.727   5.358   6.483  0.3355 -0.1664 -0.6175
26425SOL    HW184122   7.685   5.373   6.568  1.7268  1.0318 -0.1324
26425SOL    HW284123   7.703   5.268   6.461 -0.5129 -0.3042  0.7835
26426SOL     OW84124   9.484   7.870   7.026  0.2986  0.2196  0.2328
26426SOL    HW184125   9.515   7.860   6.935  0.6436  1.1685  0.2290
26426SOL    HW284126   9.564   7.885   7.076  0.0518  0.3329  0.5918
26427SOL     OW84127   8.604   5.409   6.079 -0.3024 -0.5645  0.1957
26427SOL    HW184128   8.658   5.361   6.016 -0.1220 -0.3451  0.1810
26427SOL    HW284129   8.577   5.343   6.143 -1.2047 -0.9589 -0.5910
26428SOL     OW84130   1.273   6.286   4.834  0.5696  0.0625  0.3100
26428SOL    HW184131   1.235   6.199   4.820 -2.3208  1.2078  0.6288
26428SOL    HW284132   1.280   6.323   4.746 -1.3616  0.7355  0.4118
26429SOL     OW84133   6.584   4.938   4.301 -0.6413  0.7557 -0.1951
26429SOL    HW184134   6.670   4.976   4.315 -0.0204 -0.7257  0.1659
26429SOL    HW284135   6.551   4.920   4.389 -1.1598  0.9894 -0.3408
26430SOL     OW84136   7.927   7.322   6.744  0.7409 -0.6701 -0.2682
26430SOL    HW184137   7.846   7.371   6.735  0.2989 -1.5857 -1.4362
26430SOL    HW284138   7.988   7.366   6.685  1.1673  0.1588  0.7839
26431SOL     OW84139   8.971   6.985   7.736 -0.2776 -0.4681 -0.0394
26431SOL    HW184140   8.888   6.951   7.769 -0.1101 -1.6320 -0.7644
26431SOL    HW284141   8.995   7.055   7.797 -1.3636 -0.6883  0.6543
26432SOL     OW84142   8.724   6.100   5.797 -0.4943  0.0999  0.0071
26432SOL    HW184143   8.804   6.137   5.760 -0.6608  0.9374  0.4608
26432SOL    HW284144   8.748   6.077   5.887 -0.8129  0.5380  0.2075
26433SOL     OW84145   8.471   7.010   6.560  0.9897  0.4212  0.5356
26433SOL    HW184146   8.454   6.983   6.650  1.9339 -0.9922  0.3251
26433SOL    HW284147   8.496   7.102   6.566  0.3895  0.5106  1.6430
26434SOL     OW84148   7.189   6.713   6.692 -0.5204 -0.2814 -0.0762
26434SOL    HW184149   7.244   6.684   6.620  0.8779 -0.2521  0.9617
26434SOL    HW284150   7.141   6.635   6.719  0.1682 -0.6733  0.0218
26435SOL     OW84151   8.787   6.711   6.199  0.1657  0.2316  0.2755
26435SOL    HW184152   8.880   6.708   6.219  0.1474  3.1434  0.9333
26435SOL    HW284153   8.783   6.739   6.107 -0.0764  0.1954  0.2744
26436SOL     OW84154   0.109   4.168   8.353  0.1875  0.0870 -0.6748
26436SOL    HW184155   0.061   4.192   8.432  0.6454 -1.9061  0.2392
26436SOL    HW284156   0.075   4.082   8.329  2.3712 -0.7821 -0.7548
26437SOL     OW84157   9.947   4.965   9.256 -0.7512  0.1170 -0.3620
26437SOL    HW184158   9.892   5.007   9.322 -0.9559 -0.9042  0.1315
26437SOL    HW284159   9.898   4.972   9.175 -1.2399 -0.0486 -0.0844
26438SOL     OW84160   8.073   7.169   5.988  0.3305  0.4080 -0.1822
26438SOL    HW184161   8.088   7.214   5.905  1.6143  0.2512 -0.0485
26438SOL    HW284162   8.148   7.193   6.043  1.2071 -2.0746 -0.2010
26439SOL     OW84163   8.275   8.131   6.433  0.2856  0.1583  0.1511
26439SOL    HW184164   8.220   8.120   6.355  0.5109  0.8704 -0.1130
26439SOL    HW284165   8.334   8.055   6.431 -2.1448 -1.8098  1.6745
26440SOL     OW84166   8.355   6.905   5.888  0.4896 -0.6675  0.4207
26440SOL    HW184167   8.344   6.924   5.981 -1.5213 -0.8474  0.2553
26440SOL    HW284168   8.413   6.829   5.886  0.8674 -0.4208  1.5016
26441SOL     OW84169   7.121   5.712   6.435 -0.4461 -0.0969 -0.2651
26441SOL    HW184170   7.110   5.784   6.372 -2.4661 -0.6376 -0.5769
26441SOL    HW284171   7.054   5.728   6.501  0.3833 -0.6240  0.7072
26442SOL     OW84172   7.256   6.441   7.587  0.0672  0.1419  0.1070
26442SOL    HW184173   7.211   6.515   7.545  0.8899 -0.0861 -1.1869
26442SOL    HW284174   7.340   6.477   7.615  0.7591 -0.4988 -1.1733
26443SOL     OW84175   8.606   6.217   8.196  0.1836  0.4282  0.1157
26443SOL    HW184176   8.680   6.201   8.138  0.7585  0.6004  0.8051
26443SOL    HW284177   8.636   6.190   8.283 -1.9951 -3.6690 -0.2453
26444SOL     OW84178   7.819   5.730   5.677  0.4729  0.0216 -0.2340
26444SOL    HW184179   7.887   5.778   5.629 -1.1984  1.7602 -0.9321
26444SOL    HW284180   7.842   5.742   5.769  1.2216  0.4342 -0.4722
26445SOL     OW84181   9.732   6.310   6.614 -0.1176  0.1995  0.6026
26445SOL    HW184182   9.680   6.312   6.694 -0.4571  0.4715  0.3819
26445SOL    HW284183   9.795   6.382   6.624  0.2690 -0.1829  0.9055
26446SOL     OW84184   9.375   8.332   8.783  0.4847 -0.2624 -0.4183
26446SOL    HW184185   9.354   8.368   8.870 -0.4531  1.2464 -1.2435
26446SOL    HW284186   9.471   8.331   8.780  0.5228 -0.5472  0.7223
26447SOL     OW84187   9.590   5.543   6.290 -0.4166  0.0700  0.0389
26447SOL    HW184188   9.508   5.513   6.251 -1.0156 -0.4240  1.6497
26447SOL    HW284189   9.604   5.630   6.253 -0.7805 -0.5346 -1.5362
26448SOL     OW84190   8.819   9.130   7.193 -0.2034 -0.1670  0.4003
26448SOL    HW184191   8.837   9.224   7.195 -0.8842 -0.0272  0.1560
26448SOL    HW284192   8.821   9.108   7.100  1.3214 -0.6722  0.5325
26449SOL     OW84193   9.002   5.543   5.165 -0.5107 -0.4873 -0.2566
26449SOL    HW184194   9.051   5.464   5.187 -0.1323 -0.1472  0.1286
26449SOL    HW284195   9.060   5.615   5.189 -0.8723 -0.0927 -0.5624
26450SOL     OW84196   5.885   8.805   7.401 -0.2360  0.0944  0.2362
26450SOL    HW184197   5.899   8.751   7.323 -1.4454 -0.5088  0.4184
26450SOL    HW284198   5.818   8.868   7.374  0.4428  0.8547  0.3305
26451SOL     OW84199   8.551   5.357   6.968  0.1568 -0.0736  0.1989
26451SOL    HW184200   8.644   5.335   6.967  0.2332  0.2572 -0.3841
26451SOL    HW284201   8.510   5.285   7.015  0.8391  0.3488  1.4655
26452SOL     OW84202   9.890   5.535   5.743 -0.0970 -0.3023  0.1321
26452SOL    HW184203   9.890   5.440   5.750 -0.1001 -0.4847 -2.0772
26452SOL    HW284204   9.876   5.553   5.650  2.2197  1.8280  0.1397
26453SOL     OW84205   9.068   7.831   6.350 -0.0276 -0.6938 -0.1241
26453SOL    HW184206   8.995   7.774   6.328  0.3030 -1.5718  1.0043
26453SOL    HW284207   9.106   7.792   6.429  0.6737  0.6529  0.2189
26454SOL     OW84208   9.327   8.978   7.087 -0.3392  0.0784 -0.4609
26454SOL    HW184209   9.369   9.026   7.016  1.2787 -0.5504  0.0254
26454SOL    HW284210   9.274   9.043   7.133  0.1560  0.9182 -1.0712
26455SOL     OW84211   6.593   6.182   3.886 -0.2410  0.3688 -0.6769
26455SOL    HW184212   6.636   6.182   3.800 -1.6844 -1.2836 -1.4133
26455SOL    HW284213   6.514   6.234   3.873 -0.1051  0.7119 -0.1521
26456SOL     OW84214   1.990   6.548   7.166  0.1668  0.4798  0.2777
26456SOL    HW184215   2.068   6.494   7.156 -1.0241 -1.1325 -0.5943
26456SOL    HW284216   1.967   6.539   7.259 -1.1655 -2.2149 -0.2435
26457SOL     OW84217   9.615   6.853   5.974  0.6103  0.3144 -0.2977
26457SOL    HW184218   9.554   6.886   5.908  0.0419 -0.2491 -0.0509
26457SOL    HW284219   9.681   6.805   5.923 -0.5963 -1.3349 -0.3650
26458SOL     OW84220   8.408   6.984   7.182 -0.7266 -0.1627  0.1618
26458SOL    HW184221   8.327   6.933   7.192 -1.4603  0.9854  0.1677
26458SOL    HW284222   8.379   7.075   7.183  0.3672  0.2369 -1.6759
26459SOL     OW84223   9.019   6.574   6.421  0.1708 -0.3819  0.7750
26459SOL    HW184224   9.022   6.544   6.331 -2.1612  0.1066  0.5106
26459SOL    HW284225   9.100   6.625   6.432  0.7983 -1.0171 -0.8128
26460SOL     OW84226   7.297   6.245   7.423  0.6077 -0.4208  0.9802
26460SOL    HW184227   7.353   6.180   7.465 -0.2319 -0.1944  2.4850
26460SOL    HW284228   7.306   6.323   7.479 -1.1344 -0.3595  1.1805
26461SOL     OW84229   7.145   8.855   8.031 -0.8534  0.0255 -0.2341
26461SOL    HW184230   7.105   8.919   8.090  0.1126 -0.7171  1.2332
26461SOL    HW284231   7.158   8.777   8.084  0.5141 -0.4765 -1.2675
26462SOL     OW84232   1.078   6.113   6.608  0.3087  0.4773 -0.4929
26462SOL    HW184233   1.126   6.081   6.685 -0.6549 -0.3757 -0.2420
26462SOL    HW284234   1.057   6.203   6.630 -0.2253  0.1489  0.3787
26463SOL     OW84235   7.526   4.294   4.115 -0.0055  0.1256 -0.1938
26463SOL    HW184236   7.536   4.263   4.205  0.6067  0.7811 -0.0309
26463SOL    HW284237   7.599   4.355   4.102 -1.4670  1.9033 -0.3373
26464SOL     OW84238   7.567   5.708   7.291  0.3415  0.6351 -0.2057
26464SOL    HW184239   7.637   5.731   7.352  2.3194 -1.3184 -1.6580
26464SOL    HW284240   7.568   5.778   7.225  0.0214  1.2968  0.4805
26465SOL     OW84241   8.928   6.863   6.012 -0.1966 -0.4908 -0.1303
26465SOL    HW184242   8.962   6.881   6.100  1.1909  0.0661 -0.7570
26465SOL    HW284243   9.006   6.838   5.962 -0.9351 -0.5145 -1.2779
26466SOL     OW84244   7.339   6.273   5.139  0.1267  0.0327  0.0133
26466SOL    HW184245   7.384   6.192   5.115 -1.4496 -1.0917  0.7343
26466SOL    HW284246   7.369   6.337   5.075  0.4661 -1.4248 -1.3197
26467SOL     OW84247   7.286   6.146   6.111  0.4662  0.2650 -0.0696
26467SOL    HW184248   7.261   6.088   6.182  1.3012  0.8299  0.6912
26467SOL    HW284249   7.328   6.088   6.047 -1.3291 -0.4300 -0.6513
26468SOL     OW84250   9.011   5.427   6.775  0.1498  0.3668 -0.3814
26468SOL    HW184251   8.952   5.502   6.782 -0.4040 -0.0363 -0.6695
26468SOL    HW284252   9.082   5.446   6.837  0.2010  1.2921 -0.7244
26469SOL     OW84253   8.509   7.854   5.425  0.2432 -0.4686 -0.0033
26469SOL    HW184254   8.429   7.802   5.430 -0.6274  0.7807 -0.5817
26469SOL    HW284255   8.495   7.925   5.487  0.6235  0.1305 -0.5963
26470SOL     OW84256   1.356   4.611   6.507 -0.2030  0.2868  0.0359
26470SOL    HW184257   1.420   4.562   6.559 -0.8265 -1.1130 -0.4769
26470SOL    HW284258   1.285   4.630   6.569 -0.4584 -0.4314 -0.0335
26471SOL     OW84259   6.915   7.196   4.446  0.5655  0.0491 -0.4867
26471SOL    HW184260   6.890   7.266   4.506 -1.7118 -0.6400 -0.6102
26471SOL    HW284261   7.011   7.202   4.442  0.5207  2.1300  0.7222
26472SOL     OW84262   7.877   5.445   6.761  0.0726  0.1370  0.7392
26472SOL    HW184263   7.915   5.396   6.688  0.1515  1.1749  0.0755
26472SOL    HW284264   7.789   5.407   6.771 -1.1833  2.0857 -2.0160
26473SOL     OW84265   8.517   5.955   7.177  0.7369 -0.4671  0.7822
26473SOL    HW184266   8.602   5.939   7.217  0.9976 -1.9709 -0.3529
26473SOL    HW284267   8.467   5.875   7.190 -0.3402  0.2216  1.0064
26474SOL     OW84268   7.043   8.327   3.841 -0.2703 -0.5681  0.8092
26474SOL    HW184269   7.025   8.411   3.883  0.0498  0.8953 -1.8705
26474SOL    HW284270   7.005   8.335   3.754  0.3149 -2.9770  0.2946
26475SOL     OW84271   8.769   7.144   7.152 -0.2970 -0.0990 -0.1124
26475SOL    HW184272   8.854   7.111   7.122  0.9651  2.8003  0.1238
26475SOL    HW284273   8.705   7.084   7.115  1.5759  0.0621 -3.7886
26476SOL     OW84274   8.543   5.275   5.037 -0.3769 -0.0792 -0.1164
26476SOL    HW184275   8.601   5.306   5.107  0.0272 -2.1436  0.4725
26476SOL    HW284276   8.578   5.316   4.958  1.1661 -0.3601  0.4031
26477SOL     OW84277   7.165   5.519   4.450 -0.1301  0.1252 -0.2304
26477SOL    HW184278   7.098   5.575   4.409  0.3137  0.6029 -0.3053
26477SOL    HW284279   7.196   5.463   4.379  1.1001  1.3963 -0.7088
26478SOL     OW84280   9.530   7.539   4.825 -0.3338 -0.1992  0.1852
26478SOL    HW184281   9.508   7.615   4.771 -1.4029 -1.3390 -1.0114
26478SOL    HW284282   9.625   7.535   4.822 -0.2562  1.1672  0.3651
26479SOL     OW84283   8.869   6.008   6.674 -0.0996  0.5192 -0.0671
26479SOL    HW184284   8.943   5.948   6.670 -1.5122 -1.2553 -0.3858
26479SOL    HW284285   8.838   6.003   6.764 -0.3021  0.6652 -0.1272
26480SOL     OW84286   8.679   6.431   7.835 -0.3026  0.5325 -0.1257
26480SOL    HW184287   8.658   6.456   7.745 -1.2527  1.2841  0.2959
26480SOL    HW284288   8.747   6.364   7.826  0.0240  1.0144 -1.3825
26481SOL     OW84289   9.229   7.392   6.676  0.4680  0.4707 -0.0867
26481SOL    HW184290   9.189   7.319   6.627  0.9342  0.4035 -0.3760
26481SOL    HW284291   9.232   7.361   6.766 -0.1041  0.4636 -0.0655
26482SOL     OW84292   8.317   8.468   7.571  0.2843  0.3612 -0.4935
26482SOL    HW184293   8.329   8.480   7.477  1.8333  0.1414 -0.3413
26482SOL    HW284294   8.368   8.390   7.592  1.4411  1.4397  0.8166
26483SOL     OW84295   9.581   8.085   6.663  0.2295 -0.0395 -0.2089
26483SOL    HW184296   9.638   8.149   6.620  0.6922 -0.0897  0.3307
26483SOL    HW284297   9.554   8.128   6.744 -2.3384  0.9226 -1.4815
26484SOL     OW84298   8.317   3.971   6.834 -0.1898 -0.2313  0.2954
26484SOL    HW184299   8.346   4.062   6.827  1.5334 -0.6329  1.7763
26484SOL    HW284300   8.250   3.973   6.902 -1.1376  0.1394 -0.6393
26485SOL     OW84301   9.230   4.772   6.121  0.4999 -0.3641 -0.7337
26485SOL    HW184302   9.299   4.746   6.182  2.3785  1.5355 -1.9796
26485SOL    HW284303   9.185   4.690   6.100  1.6202 -1.4573  1.0048
26486SOL     OW84304   9.027   6.801   7.400  0.3568 -0.2024  0.2438
26486SOL    HW184305   8.961   6.773   7.336  0.7731 -0.8721  0.1017
26486SOL    HW284306   9.111   6.788   7.355  0.5575  1.7236 -0.0070
26487SOL     OW84307   7.809   6.135   4.450 -0.5856 -0.5565 -0.4322
26487SOL    HW184308   7.852   6.219   4.466 -0.4351 -0.6800 -0.1702
26487SOL    HW284309   7.879   6.079   4.417 -0.4629 -0.8566  0.3142
26488SOL     OW84310   7.724   8.312   5.978 -0.1210 -0.4833 -0.2722
26488SOL    HW184311   7.711   8.391   5.925 -0.5045 -0.9667 -0.8982
26488SOL    HW284312   7.818   8.296   5.974  0.0705  0.3747  0.4869
26489SOL     OW84313   7.891   6.630   6.883 -0.5119  0.5906  0.4119
26489SOL    HW184314   7.810   6.657   6.840  0.0904  2.5649  0.4768
26489SOL    HW284315   7.917   6.706   6.935  1.6729  0.1686 -0.0232
26490SOL     OW84316   8.147   6.416   5.917  0.9094  0.0799 -0.0907
26490SOL    HW184317   8.234   6.451   5.900  1.5895 -1.3756  0.3494
26490SOL    HW284318   8.149   6.327   5.883 -0.3955  0.0182 -0.0466
26491SOL     OW84319   9.612   6.914   6.232  0.5555 -0.6932 -0.1469
26491SOL    HW184320   9.604   6.876   6.144  1.3536 -1.1975 -0.0027
26491SOL    HW284321   9.563   6.854   6.288 -0.4498 -0.0547 -0.3343
26492SOL     OW84322   7.274   7.306   6.984  0.1589  0.4054  0.6713
26492SOL    HW184323   7.260   7.249   6.908  0.9028 -0.7859  1.3978
26492SOL    HW284324   7.199   7.365   6.984 -1.0545 -1.0834  0.3241
26493SOL     OW84325   9.879   4.984   7.541  0.4773  0.8763 -0.2888
26493SOL    HW184326   9.890   4.916   7.475  1.5810 -1.6445  2.3920
26493SOL    HW284327   9.957   5.039   7.533  1.3146 -0.2720 -0.1345
26494SOL     OW84328   7.581   6.234   7.105 -0.1172  0.5683 -0.2656
26494SOL    HW184329   7.665   6.218   7.148 -0.4740 -0.5317  0.0443
26494SOL    HW284330   7.599   6.226   7.012  0.0453 -0.0763 -0.1820
26495SOL     OW84331   8.709   5.795   5.718  0.2558  0.5197 -0.0175
26495SOL    HW184332   8.706   5.891   5.721 -0.2973  0.4760  1.2307
26495SOL    HW284333   8.790   5.773   5.764  0.8193  0.4121 -1.0557
26496SOL     OW84334   7.449   6.218   5.758 -0.2855  0.0154  0.1009
26496SOL    HW184335   7.513   6.152   5.733  0.4746 -0.2849  2.6335
26496SOL    HW284336   7.492   6.301   5.739  2.3823 -0.0960  4.8825
26497SOL     OW84337   8.942   5.195   5.575 -0.1734  0.0281 -0.2671
26497SOL    HW184338   9.022   5.162   5.615 -0.3290  1.5312  1.3263
26497SOL    HW284339   8.969   5.274   5.529 -0.3352 -0.7094 -1.6585
26498SOL     OW84340   8.763   4.784   6.034 -0.2682  0.2995  0.0006
26498SOL    HW184341   8.836   4.822   5.985  0.0253  1.1578  1.0887
26498SOL    HW284342   8.754   4.696   5.998 -0.6142  1.1962 -2.1733
26499SOL     OW84343   8.761   6.993   4.761 -0.0282 -0.2755  0.4898
26499SOL    HW184344   8.767   7.067   4.822  1.5319 -1.7836  2.2169
26499SOL    HW284345   8.784   6.916   4.814  0.1709 -1.7770 -1.7114
26500SOL     OW84346   8.722   6.850   4.310 -0.4133  0.2136 -0.9879
26500SOL    HW184347   8.713   6.835   4.216 -2.4289 -0.5077 -0.7063
26500SOL    HW284348   8.632   6.855   4.342  0.2631  1.1721  0.7945
26501SOL     OW84349   8.941   5.554   7.152  0.2181  0.3484 -0.4752
26501SOL    HW184350   8.873   5.534   7.087  0.7980  1.0627 -1.3297
26501SOL    HW284351   8.951   5.474   7.202  0.2368 -0.4387 -1.7181
26502SOL     OW84352   6.988   5.295   6.910  0.7050 -0.1883  0.2889
26502SOL    HW184353   6.901   5.305   6.949  0.5125  1.3690 -0.4998
26502SOL    HW284354   7.048   5.301   6.984  0.2179  0.3702  0.6479
26503SOL     OW84355   7.399   6.567   6.472  0.4939  0.1564  0.4680
26503SOL    HW184356   7.478   6.621   6.485  0.1484  0.4777  1.2749
26503SOL    HW284357   7.372   6.587   6.382  0.9819  0.5165  0.3939
26504SOL     OW84358   8.270   4.425   7.321 -0.4833 -0.2956 -0.0505
26504SOL    HW184359   8.333   4.385   7.261  0.7970  0.2097  0.9281
26504SOL    HW284360   8.223   4.351   7.360 -2.0293 -0.5974 -2.3690
26505SOL     OW84361   6.131   7.647   6.664  0.4706  0.0857 -0.1398
26505SOL    HW184362   6.178   7.647   6.748  0.8077 -0.3065 -0.3270
26505SOL    HW284363   6.189   7.692   6.604  0.2920  0.2377 -0.1967
26506SOL     OW84364   9.107   5.381   9.138 -0.2380 -0.4065 -0.1518
26506SOL    HW184365   9.090   5.361   9.230  0.8436  0.3412  0.2328
26506SOL    HW284366   9.097   5.298   9.092  0.5466 -1.0639  0.8564
26507SOL     OW84367   7.049   6.554   9.741  0.6967  0.4958 -0.5018
26507SOL    HW184368   7.100   6.511   9.809  2.0695 -1.2418 -2.5573
26507SOL    HW284369   7.043   6.645   9.769  1.9883  0.0040  1.4625
26508SOL     OW84370   7.417   8.502   9.692  0.1215  0.4380 -0.5920
26508SOL    HW184371   7.492   8.560   9.679  0.5859 -0.0195  0.0295
26508SOL    HW284372   7.420   8.480   9.786 -2.0219  2.1170 -0.0922
26509SOL     OW84373   9.364   6.625   8.399 -1.0101 -0.4072 -0.3901
26509SOL    HW184374   9.309   6.547   8.394 -0.1937 -1.0300  0.2549
26509SOL    HW284375   9.301   6.698   8.398 -1.8305 -1.0996 -0.0418
26510SOL     OW84376   9.885   5.999   8.072 -0.2013 -0.0051 -0.6935
26510SOL    HW184377   9.832   5.949   8.133  1.6859 -2.5830 -1.0671
26510SOL    HW284378   9.895   6.085   8.113 -1.3202 -0.7685  1.2405
26511SOL     OW84379   9.374   6.489   8.972 -0.0047 -0.7071  0.1460
26511SOL    HW184380   9.367   6.516   9.064 -0.4463 -0.8405  0.1521
26511SOL    HW284381   9.286   6.504   8.936 -0.0612 -1.4665 -0.0360
26512SOL     OW84382   8.066   6.633   8.446 -0.2366  0.3295  0.3415
26512SOL    HW184383   8.039   6.560   8.389  0.6876  0.4210 -0.2195
26512SOL    HW284384   8.065   6.596   8.534  2.2310 -0.9659 -0.1476
26513SOL     OW84385   7.939   8.666   0.032  0.3866  0.1552  0.3647
26513SOL    HW184386   8.025   8.700   0.008  1.4931 -1.1553  2.4076
26513SOL    HW284387   7.887   8.744   0.053  0.7370  1.0176 -1.7720
26514SOL     OW84388   7.570   7.127   5.860 -0.3194  0.5255 -0.1180
26514SOL    HW184389   7.659   7.162   5.856 -0.6222  1.5277  1.1370
26514SOL    HW284390   7.563   7.067   5.786  1.7006 -0.2880  0.3293
26515SOL     OW84391   7.833   8.083   8.768  0.1449  0.5078 -0.2197
26515SOL    HW184392   7.753   8.123   8.801  1.3734  0.6116  2.7593
26515SOL    HW284393   7.901   8.148   8.784  1.3525 -0.8372  0.2144
26516SOL     OW84394   9.723   4.712   9.755  0.3670  0.4024  0.1430
26516SOL    HW184395   9.645   4.765   9.774  0.9964  1.3247  0.1357
26516SOL    HW284396   9.724   4.647   9.826 -0.8253 -0.0867 -0.2652
26517SOL     OW84397   9.407   5.763   7.137 -0.4642  0.5135  0.4143
26517SOL    HW184398   9.336   5.708   7.104 -0.4836  0.7119  0.1174
26517SOL    HW284399   9.421   5.734   7.227 -1.1152  0.6668  0.5668
26518SOL     OW84400   8.578   9.250   6.720 -0.1553 -0.7477  0.0490
26518SOL    HW184401   8.551   9.307   6.792 -1.6254 -0.3708 -0.7732
26518SOL    HW284402   8.495   9.217   6.683  0.6460 -2.6520 -0.0954
26519SOL     OW84403   8.517   6.384   0.808 -0.2148 -0.3014  0.5548
26519SOL    HW184404   8.539   6.437   0.885  0.1168 -0.9102  0.8830
26519SOL    HW284405   8.593   6.392   0.750  0.3830 -1.4307  1.1602
26520SOL     OW84406   8.555   6.890   7.403 -0.7226  0.1310 -0.2865
26520SOL    HW184407   8.496   6.933   7.342 -1.0935 -0.4599 -0.3463
26520SOL    HW284408   8.567   6.802   7.367 -1.4564 -0.4387  0.8235
26521SOL     OW84409   8.475   6.225   7.521  0.1425  0.5608 -0.4910
26521SOL    HW184410   8.492   6.144   7.570  0.4899  1.5859  1.1265
26521SOL    HW284411   8.445   6.287   7.587  1.2763  2.1887 -1.4715
26522SOL     OW84412   9.923   8.997   7.350 -0.7813  0.0753  0.1562
26522SOL    HW184413   9.884   8.958   7.272 -1.5643 -2.2427  1.6676
26522SOL    HW284414   9.932   8.925   7.411  1.5222  1.4924  1.5818
26523SOL     OW84415   7.090   7.529   7.024  0.3070 -0.5037  0.2815
26523SOL    HW184416   7.113   7.608   6.975 -0.2734 -0.1745  0.5263
26523SOL    HW284417   7.042   7.562   7.100 -2.7515 -1.2599 -1.2454
26524SOL     OW84418   9.564   4.518   9.902  0.2043 -0.2919  0.2735
26524SOL    HW184419   9.590   4.505   9.994  0.6413  0.2844  0.2285
26524SOL    HW284420   9.471   4.542   9.907  0.4896  0.7734  0.6388
26525SOL     OW84421   8.472   5.882   8.247 -0.0130  0.1260  0.6378
26525SOL    HW184422   8.423   5.964   8.250 -0.2197  0.0090  0.4378
26525SOL    HW284423   8.407   5.815   8.227  0.2203 -0.0355  0.4058
26526SOL     OW84424   9.685   6.977   7.724  0.2151 -0.4366 -0.0997
26526SOL    HW184425   9.593   6.981   7.697 -0.5426 -1.5124  2.1784
26526SOL    HW284426   9.716   7.067   7.715 -0.6131 -0.3516 -2.3622
26527SOL     OW84427   8.813   6.587   9.192  0.2762  0.5936 -0.0708
26527SOL    HW184428   8.890   6.642   9.177  0.4475  0.9075  1.7574
26527SOL    HW284429   8.739   6.638   9.159  0.5442  1.5396  0.7604
26528SOL     OW84430   9.292   7.066   7.507 -0.1702 -0.4407 -0.5317
26528SOL    HW184431   9.342   7.051   7.587 -1.0183 -3.3640 -0.5061
26528SOL    HW284432   9.277   7.161   7.506  2.2601  0.0157  1.2804
26529SOL     OW84433   8.257   7.300   7.757  0.2638  0.2933 -0.2096
26529SOL    HW184434   8.308   7.328   7.681  0.3916  0.9106  0.0986
26529SOL    HW284435   8.321   7.266   7.819  0.2459  0.5670 -0.0404
26530SOL     OW84436   8.408   5.557   8.809  1.0163  0.0575  0.2054
26530SOL    HW184437   8.365   5.584   8.891 -0.5999 -1.0438 -0.2647
26530SOL    HW284438   8.478   5.499   8.837  0.5077 -0.2652  0.8225
26531SOL     OW84439   7.648   7.006   8.689 -0.4953 -0.3535 -0.0981
26531SOL    HW184440   7.660   6.943   8.618 -3.0688 -0.8967 -0.0932
26531SOL    HW284441   7.691   6.965   8.764  1.7787 -0.0156 -1.1450
26532SOL     OW84442   8.460   7.035   9.651  0.0565 -0.6046 -0.5136
26532SOL    HW184443   8.545   7.068   9.622 -0.0749  1.1133  0.9576
26532SOL    HW284444   8.450   6.951   9.606  1.7180  0.0125 -2.0806
26533SOL     OW84445   9.141   4.231   7.951  0.5159 -0.5970 -0.0877
26533SOL    HW184446   9.179   4.143   7.957  1.3816 -0.1311  1.3223
26533SOL    HW284447   9.206   4.289   7.990 -0.6259  0.5185  0.2083
26534SOL     OW84448   7.293   9.308   9.764  0.3569  0.3522  0.6300
26534SOL    HW184449   7.298   9.360   9.844 -1.0205  1.5593 -0.0361
26534SOL    HW284450   7.211   9.259   9.773 -0.3194  1.2630 -0.4769
26535SOL     OW84451   8.174   5.387   6.786 -0.5774 -0.2415 -0.0718
26535SOL    HW184452   8.125   5.325   6.732 -0.6285  1.9323 -2.6546
26535SOL    HW284453   8.266   5.369   6.766 -0.5828  0.2511 -0.5673
26536SOL     OW84454   8.803   8.093   8.686  0.1941  0.3184 -0.9111
26536SOL    HW184455   8.806   8.143   8.767  1.0171 -0.7161 -0.2850
26536SOL    HW284456   8.825   8.155   8.617 -0.0779  1.0982 -0.2914
26537SOL     OW84457   8.161   5.868   8.850  0.1868 -0.2162 -0.0985
26537SOL    HW184458   8.140   5.787   8.895  0.0265  1.0667  2.2157
26537SOL    HW284459   8.120   5.860   8.764  0.0038 -2.4747  0.1767
26538SOL     OW84460   9.311   8.015   8.470  0.7956  0.2819  0.0310
26538SOL    HW184461   9.270   8.101   8.478  0.9548  0.6068 -2.2330
26538SOL    HW284462   9.404   8.034   8.456  0.8518 -0.2552 -0.3117
26539SOL     OW84463   8.150   8.190   8.822  0.5036  0.0002  0.1219
26539SOL    HW184464   8.153   8.129   8.896  0.8242 -0.4445 -0.2561
26539SOL    HW284465   8.201   8.147   8.754 -1.6675 -0.6360 -1.1530
26540SOL     OW84466   7.950   5.704   7.469  0.6264  0.4192  0.0950
26540SOL    HW184467   7.883   5.749   7.418  1.6897  0.5513 -1.2235
26540SOL    HW284468   8.019   5.769   7.481  0.8833  0.0344  0.7330
26541SOL     OW84469   0.322   6.378   8.324  0.6397  0.2597 -0.1417
26541SOL    HW184470   0.336   6.326   8.404  1.1905 -0.7532 -0.8856
26541SOL    HW284471   0.405   6.422   8.310  0.4459  0.6768  0.0033
26542SOL     OW84472   8.720   7.570   7.682  0.0085 -0.5541 -0.0440
26542SOL    HW184473   8.656   7.641   7.683  2.0452  1.3444 -1.2317
26542SOL    HW284474   8.758   7.570   7.770  0.3444  0.1518 -0.1887
26543SOL     OW84475   5.993   7.551   0.383 -0.6988 -0.4570 -0.1783
26543SOL    HW184476   6.002   7.595   0.298  0.1184 -1.5904 -0.6900
26543SOL    HW284477   5.899   7.551   0.400 -0.6509  2.3624  0.3177
26544SOL     OW84478   7.068   5.904   0.434 -0.1118  0.0071  0.0390
26544SOL    HW184479   7.078   5.959   0.511 -0.1342  0.5800 -0.3713
26544SOL    HW284480   7.133   5.936   0.372  0.4107 -0.9268  0.0844
26545SOL     OW84481   6.258   7.309   8.870  0.1559  0.3130 -0.4123
26545SOL    HW184482   6.225   7.333   8.957 -0.4149  0.1112 -0.5737
26545SOL    HW284483   6.308   7.385   8.842 -0.7748  0.9086 -0.4782
26546SOL     OW84484   8.027   6.606   7.182  0.8215  0.7703  0.6039
26546SOL    HW184485   8.098   6.554   7.145  0.6074  0.4189  0.6837
26546SOL    HW284486   8.024   6.684   7.128 -0.0103 -0.1026 -0.6293
26547SOL     OW84487   8.608   6.517   7.590 -0.3828  0.1342 -0.1282
26547SOL    HW184488   8.521   6.494   7.621 -0.0781 -0.5668  0.2315
26547SOL    HW284489   8.594   6.555   7.504 -0.9046 -1.6225 -0.8365
26548SOL     OW84490   9.283   7.048   7.927 -0.5467 -0.0983  0.2218
26548SOL    HW184491   9.208   7.082   7.975 -0.3279 -1.2451  1.3939
26548SOL    HW284492   9.356   7.055   7.988 -0.6131 -3.2145  0.7314
26549SOL     OW84493   7.164   7.946   0.061  0.3889  1.0266  0.3673
26549SOL    HW184494   7.106   7.870   0.058  0.3821  1.0130  0.7807
26549SOL    HW284495   7.246   7.915   0.021 -0.7477  1.8250 -2.6857
26550SOL     OW84496   8.837   5.394   5.891  0.3302 -0.0859 -0.3848
26550SOL    HW184497   8.885   5.312   5.900  0.6370  0.2188  0.8145
26550SOL    HW284498   8.881   5.454   5.951 -2.7191 -0.3489  2.2352
26551SOL     OW84499   0.891   5.543   8.482  0.0154  0.2435  0.4374
26551SOL    HW184500   0.983   5.532   8.505  0.0871  1.0993  0.5739
26551SOL    HW284501   0.880   5.637   8.474 -1.3693  0.2761  2.5395
26552SOL     OW84502   7.598   7.530   8.263 -0.4201  0.6723  0.4570
26552SOL    HW184503   7.559   7.613   8.234  0.0662  0.9538  0.6052
26552SOL    HW284504   7.612   7.541   8.357  1.2864  1.0990  0.1730
26553SOL     OW84505   8.608   5.877   8.471 -0.7648  0.1621 -0.3523
26553SOL    HW184506   8.629   5.970   8.473  2.2971 -0.4547 -0.8999
26553SOL    HW284507   8.564   5.865   8.387 -0.6501  1.0007 -0.5397
26554SOL     OW84508   0.106   8.305   9.185  0.5819 -0.0494 -0.0452
26554SOL    HW184509   0.090   8.280   9.094  1.4244 -2.3093  0.3999
26554SOL    HW284510   0.199   8.328   9.188  0.7212 -0.6686  0.3940
26555SOL     OW84511   8.520   0.323   6.721 -0.3414 -0.4153 -0.3985
26555SOL    HW184512   8.492   0.333   6.630 -1.4940 -1.5854 -0.1846
26555SOL    HW284513   8.602   0.371   6.726  0.1347 -0.9844 -2.2722
26556SOL     OW84514   0.496   7.368   7.796 -0.4452 -0.1650  0.2284
26556SOL    HW184515   0.462   7.336   7.880 -2.4076 -0.1194 -0.5112
26556SOL    HW284516   0.426   7.425   7.763  0.8684  0.8514 -0.8331
26557SOL     OW84517   9.737   7.745   9.114 -0.2013  0.0770  0.6604
26557SOL    HW184518   9.712   7.751   9.207  0.1904  1.7421  0.6718
26557SOL    HW284519   9.788   7.824   9.098 -2.1640  0.9540 -1.5565
26558SOL     OW84520   6.765   6.942   9.021  0.2839  0.0418 -0.0431
26558SOL    HW184521   6.806   6.906   9.100  0.2872  2.1619  0.9805
26558SOL    HW284522   6.837   6.949   8.958  0.6053 -0.2599  0.2897
26559SOL     OW84523   8.019   7.273   9.935 -0.2655 -0.6583 -0.3635
26559SOL    HW184524   8.055   7.361   9.944 -0.6712 -0.5008 -0.2554
26559SOL    HW284525   8.047   7.245   9.848 -2.4276  0.6670 -1.5383
26560SOL     OW84526   8.886   7.872   8.452 -0.4029  0.2595  0.4078
26560SOL    HW184527   8.803   7.889   8.407 -0.3875  0.8753  0.6106
26560SOL    HW284528   8.942   7.946   8.429 -0.8054  1.1980  2.4301
26561SOL     OW84529   8.076   6.213   8.570  0.2273 -0.3945  0.4414
26561SOL    HW184530   8.149   6.192   8.628 -0.4743 -3.4663  0.2959
26561SOL    HW284531   8.116   6.235   8.487  1.0384 -2.1845  0.3277
26562SOL     OW84532   0.024   7.270   8.302 -0.6853  0.3324 -0.1789
26562SOL    HW184533   0.098   7.278   8.242 -2.5144 -0.4775 -2.6600
26562SOL    HW284534   0.007   7.359   8.332  1.5138  0.4717  0.7145
26563SOL     OW84535   7.571   6.302   8.386 -0.1836 -0.1593  0.5585
26563SOL    HW184536   7.662   6.296   8.416  0.3497 -0.0870 -1.0056
26563SOL    HW284537   7.519   6.299   8.466  1.2117  0.0493  1.4861
26564SOL     OW84538   9.636   4.725   7.636 -0.0814  0.3877  0.2287
26564SOL    HW184539   9.729   4.705   7.640  0.1370  1.7711  2.8544
26564SOL    HW284540   9.596   4.671   7.704 -0.7206  2.1725  1.3133
26565SOL     OW84541   9.060   7.789   7.147 -0.2269  0.3532  0.0860
26565SOL    HW184542   9.133   7.828   7.097  0.5895  1.9310  2.4182
26565SOL    HW284543   8.985   7.794   7.087  1.0453  0.8224 -1.5253
26566SOL     OW84544   6.967   6.773   8.752  0.7998 -0.4866  0.0558
26566SOL    HW184545   7.054   6.805   8.775 -0.3158  3.0919 -0.3536
26566SOL    HW284546   6.932   6.738   8.834  1.5200  0.7978  0.9373
26567SOL     OW84547   9.412   5.879   8.183 -0.0374  0.0517  0.0363
26567SOL    HW184548   9.432   5.933   8.259 -0.6186 -0.6174  0.6631
26567SOL    HW284549   9.340   5.925   8.139 -0.7536 -0.3860  0.7503
26568SOL     OW84550   7.938   6.542   8.987 -0.1949  0.5024 -0.0223
26568SOL    HW184551   7.852   6.534   9.028 -0.2397  0.3817 -0.1380
26568SOL    HW284552   7.932   6.621   8.933 -0.0811  0.7539  0.3358
26569SOL     OW84553   7.374   5.895   9.854 -0.0379 -0.4591  0.0023
26569SOL    HW184554   7.332   5.820   9.812 -0.8698 -0.1115  0.1937
26569SOL    HW284555   7.451   5.913   9.801 -0.9961 -0.1086 -1.2797
26570SOL     OW84556   7.950   7.649   8.115 -0.1523 -0.1135 -0.0930
26570SOL    HW184557   8.005   7.675   8.041 -0.9945  1.0463 -0.3198
26570SOL    HW284558   7.943   7.728   8.168 -0.2165 -0.7269  0.8148
26571SOL     OW84559   0.164   7.361   7.483  0.2690 -0.2643 -0.1861
26571SOL    HW184560   0.191   7.431   7.542  0.6100 -1.0124  0.5444
26571SOL    HW284561   0.081   7.330   7.520 -0.9777  1.1514 -1.6888
26572SOL     OW84562   7.944   7.412   7.362 -0.2908  0.0136  0.5219
26572SOL    HW184563   7.896   7.329   7.371 -0.0527 -0.3356 -1.2208
26572SOL    HW284564   8.035   7.386   7.352 -0.0074  0.5738  1.6660
26573SOL     OW84565   7.328   7.519   8.492 -0.0336  0.5558  0.8696
26573SOL    HW184566   7.361   7.429   8.483 -0.8436  0.5009 -1.7726
26573SOL    HW284567   7.405   7.569   8.519  1.3894 -0.2447 -1.5382
26574SOL     OW84568   8.859   6.534   7.022  0.4626 -0.5897  0.4402
26574SOL    HW184569   8.818   6.497   6.944 -1.1400 -1.0715  1.4882
26574SOL    HW284570   8.952   6.513   7.011  0.2575 -0.7090 -1.2953
26575SOL     OW84571   7.545   5.651   6.827  0.3134 -1.0904 -0.7566
26575SOL    HW184572   7.476   5.692   6.775  1.9953  0.4833 -1.8082
26575SOL    HW284573   7.623   5.655   6.771  1.8456 -0.6215  1.3517
26576SOL     OW84574   9.105   5.809   6.700 -0.6234 -0.1559 -0.3592
26576SOL    HW184575   9.199   5.803   6.718 -0.8366 -1.2784  0.4608
26576SOL    HW284576   9.064   5.801   6.786 -1.4774  0.2076 -0.7264
26577SOL     OW84577   8.830   5.531   9.478  0.0757  0.0632  0.1371
26577SOL    HW184578   8.735   5.539   9.471  0.0615 -0.0312  0.2203
26577SOL    HW284579   8.850   5.562   9.567  0.1054 -0.0663  0.1769
26578SOL     OW84580   9.015   7.424   8.493 -0.3512 -0.1236  0.1006
26578SOL    HW184581   9.021   7.424   8.397 -1.1667 -2.8779  0.0005
26578SOL    HW284582   9.072   7.496   8.521 -0.0559  0.6797 -2.4374
26579SOL     OW84583   8.658   8.029   6.189 -0.2684 -0.2833 -0.0406
26579SOL    HW184584   8.711   8.048   6.112  0.0772 -2.4472 -0.3476
26579SOL    HW284585   8.578   8.081   6.177  0.1458  0.0334 -1.4297
26580SOL     OW84586   8.397   6.954   6.838 -0.5455  0.2490 -0.3764
26580SOL    HW184587   8.399   6.861   6.856  0.6622  0.3573  0.0810
26580SOL    HW284588   8.431   6.995   6.917  0.5527  0.9718 -1.2102
26581SOL     OW84589   8.848   5.663   7.797 -0.0970  0.1287  0.0660
26581SOL    HW184590   8.907   5.614   7.854 -1.3802 -2.3999 -0.7086
26581SOL    HW284591   8.890   5.662   7.711 -1.5624 -2.3670 -0.6751
26582SOL     OW84592   7.061   7.082   9.795 -0.4255  0.3611 -0.1792
26582SOL    HW184593   6.982   7.136   9.806 -1.0619 -0.4399 -0.7814
26582SOL    HW284594   7.126   7.124   9.852 -0.7365  2.0808 -1.0573
26583SOL     OW84595   8.543   6.035   9.119  0.0929 -0.2117 -0.4196
26583SOL    HW184596   8.549   6.095   9.045  1.2654 -2.0413 -1.8596
26583SOL    HW284597   8.449   6.024   9.133 -0.1389  1.1670 -0.7653
26584SOL     OW84598   8.365   4.565   6.944  0.3663  0.0261  0.3873
26584SOL    HW184599   8.309   4.633   6.907 -1.7518 -0.8350  1.9256
26584SOL    HW284600   8.448   4.574   6.898 -1.0228  1.3741 -1.9143
26585SOL     OW84601   9.860   4.795   8.122  0.2000  0.1789 -0.0089
26585SOL    HW184602   9.868   4.890   8.110 -2.4570 -0.0285 -3.9389
26585SOL    HW284603   9.910   4.757   8.050  0.4717 -1.4253  0.9986
26586SOL     OW84604   9.032   5.594   8.992 -0.3448 -0.3423  0.0587
26586SOL    HW184605   9.118   5.634   8.984 -0.0814 -0.6170  1.3892
26586SOL    HW284606   9.044   5.524   9.056 -1.3792 -0.8988 -0.3399
26587SOL     OW84607   8.788   7.146   8.665  0.2030  0.0783  0.0107
26587SOL    HW184608   8.703   7.189   8.667  0.3952  0.4183  1.7442
26587SOL    HW284609   8.843   7.199   8.722  0.6822 -1.9756  1.5237
26588SOL     OW84610   0.037   5.035   6.502 -0.1646 -0.1435 -0.1073
26588SOL    HW184611  -0.010   5.105   6.456 -0.1196 -0.2564 -0.3275
26588SOL    HW284612   0.028   5.057   6.594 -0.2988  0.0607 -0.1676
26589SOL     OW84613   8.025   9.142   7.183  0.7507  0.2842  0.2484
26589SOL    HW184614   8.074   9.064   7.158 -0.8288 -0.0974 -1.7524
26589SOL    HW284615   8.079   9.183   7.251  1.5866 -2.5485  1.3654
26590SOL     OW84616   7.824   7.111   7.468  0.2396  0.0723 -0.1047
26590SOL    HW184617   7.899   7.060   7.436  0.8518  1.0598 -0.2663
26590SOL    HW284618   7.753   7.090   7.407  0.1491 -1.5124  0.5407
26591SOL     OW84619   9.120   6.600   7.838  0.2927 -0.1516 -0.2361
26591SOL    HW184620   9.073   6.645   7.768  0.0508 -2.1235 -1.3779
26591SOL    HW284621   9.180   6.666   7.873 -2.0692  1.8926  0.0918
26592SOL     OW84622   8.423   5.834   6.908  0.7261  0.5573 -0.1213
26592SOL    HW184623   8.484   5.773   6.868  0.6675 -0.6172  1.5130
26592SOL    HW284624   8.470   5.918   6.910  0.8294  0.5857 -2.3154
26593SOL     OW84625   8.332   7.783   8.787 -0.5376 -0.1515  0.3287
26593SOL    HW184626   8.408   7.842   8.788 -0.3433 -0.3916 -0.3104
26593SOL    HW284627   8.364   7.703   8.827  0.2891 -1.1554 -2.2358
26594SOL     OW84628   8.794   8.269   8.904  0.1920  0.5461 -0.4945
26594SOL    HW184629   8.798   8.183   8.946 -1.4506  0.7068  0.0372
26594SOL    HW284630   8.879   8.309   8.923  1.1982 -1.1762 -1.2530
26595SOL     OW84631   8.821   6.428   9.953 -0.1593  0.1737 -0.0925
26595SOL    HW184632   8.819   6.427  10.049 -0.2338 -0.9299 -0.0952
26595SOL    HW284633   8.854   6.341   9.929  0.3473  0.6287 -1.0564
26596SOL     OW84634   7.376   6.907   8.176 -0.4940  0.4191  0.2146
26596SOL    HW184635   7.340   6.926   8.263  0.4598 -0.2420  0.7713
26596SOL    HW284636   7.409   6.991   8.144 -1.1196  0.7237  0.3646
26597SOL     OW84637   0.177   7.013   9.507 -0.0703  0.2149  0.0473
26597SOL    HW184638   0.261   7.029   9.550 -0.5584 -0.4476  1.2888
26597SOL    HW284639   0.200   6.973   9.424  0.8055 -1.7901  1.2088
26598SOL     OW84640   8.438   7.059   8.901  0.1779 -0.0482 -0.8359
26598SOL    HW184641   8.483   6.975   8.887  0.6829  0.0679  0.0406
26598SOL    HW284642   8.363   7.037   8.956 -0.0410 -0.0169 -1.1200
26599SOL     OW84643   9.036   6.417   9.239 -0.7182 -0.4360 -0.1118
26599SOL    HW184644   8.992   6.348   9.190 -1.7817  0.3863 -0.3229
26599SOL    HW284645   8.982   6.495   9.226  0.4746  0.4504  0.1088
26600SOL     OW84646   7.576   6.669   6.897  0.0547  0.1004 -0.0045
26600SOL    HW184647   7.555   6.621   6.977  2.2593  1.2327  1.2929
26600SOL    HW284648   7.604   6.601   6.836 -0.2884 -0.6248  0.6283
26601SOL     OW84649   6.902   6.298   9.498 -0.1731 -0.1945  0.4654
26601SOL    HW184650   6.839   6.314   9.568  0.2318 -0.1355  0.8176
26601SOL    HW284651   6.868   6.348   9.423  0.5033  1.4413  1.2361
26602SOL     OW84652   7.702   6.864   8.404 -0.0429 -0.4930  0.5400
26602SOL    HW184653   7.681   6.779   8.367  1.2867 -1.4892  1.9919
26602SOL    HW284654   7.798   6.868   8.404 -0.0913  1.3952 -0.3790
26603SOL     OW84655   8.789   5.366   8.370  0.2086  0.1546 -0.4430
26603SOL    HW184656   8.844   5.323   8.435  1.3952  0.9048 -0.9278
26603SOL    HW284657   8.780   5.301   8.300  1.0247  0.2606 -0.6509
26604SOL     OW84658   9.495   6.644   8.649 -0.2644 -0.2787 -0.2273
26604SOL    HW184659   9.580   6.674   8.617 -1.0573  1.3926 -0.8377
26604SOL    HW284660   9.435   6.658   8.575 -1.6294  1.2908  1.1285
26605SOL     OW84661   8.309   5.797   9.853 -0.3758  0.3218 -0.5424
26605SOL    HW184662   8.329   5.859   9.783 -0.9929  1.2793  0.1104
26605SOL    HW284663   8.226   5.827   9.889 -1.3937 -1.7326 -1.1248
26606SOL     OW84664   0.102   7.000   7.983  0.0114  0.1847 -0.2996
26606SOL    HW184665   0.146   6.919   7.957  0.3259  0.9338 -2.1742
26606SOL    HW284666   0.009   6.979   7.980  0.1288 -0.4709  0.4932
26607SOL     OW84667   8.525   8.891   7.309  0.5236  0.3274  0.1892
26607SOL    HW184668   8.504   8.959   7.244 -1.0535 -0.9319 -0.6666
26607SOL    HW284669   8.565   8.938   7.382  0.8466  1.9762 -1.0262
26608SOL     OW84670   8.274   6.756   8.281  0.2546  0.0692 -0.0759
26608SOL    HW184671   8.310   6.827   8.334 -1.1203  2.0273 -1.6978
26608SOL    HW284672   8.253   6.687   8.344  0.6430  1.5155  1.6604
26609SOL     OW84673   9.454   7.402   7.487  0.0558 -0.2833 -0.4163
26609SOL    HW184674   9.430   7.484   7.531  0.5093 -0.0645 -0.5641
26609SOL    HW284675   9.379   7.380   7.433 -0.4600 -0.4836  0.3658
26610SOL     OW84676   6.772   6.690   0.422 -0.5544  0.7749  0.1140
26610SOL    HW184677   6.835   6.622   0.397 -1.0383  0.1282  0.6452
26610SOL    HW284678   6.817   6.772   0.403 -0.0510  0.3074 -0.7507
26611SOL     OW84679   7.819   6.310   8.500 -0.1299 -0.3531  0.0130
26611SOL    HW184680   7.880   6.324   8.572  1.0925  0.7379 -1.1974
26611SOL    HW284681   7.859   6.356   8.425 -1.9522 -0.4295 -1.0491
26612SOL     OW84682   8.307   6.991   0.302 -0.0227  0.1254  0.0807
26612SOL    HW184683   8.369   7.059   0.327 -1.4197  1.0896  1.0221
26612SOL    HW284684   8.263   7.026   0.224 -0.1743 -0.0521  0.0855
26613SOL     OW84685   9.236   8.154   7.886  0.2044  0.4694 -0.1387
26613SOL    HW184686   9.189   8.092   7.942  1.2261 -0.7566 -0.6123
26613SOL    HW284687   9.236   8.236   7.936 -0.4944 -0.1142  0.8401
26614SOL     OW84688   9.716   6.426   8.606 -0.2453 -0.4519 -0.0945
26614SOL    HW184689   9.748   6.496   8.549  0.6737  0.2560  1.2855
26614SOL    HW284690   9.771   6.430   8.684 -1.4461 -1.4531  0.8353
26615SOL     OW84691   7.653   7.486   8.855  0.5278 -0.0827 -0.1187
26615SOL    HW184692   7.645   7.574   8.890  0.6198 -0.1297  0.0195
26615SOL    HW284693   7.735   7.486   8.806  1.0775 -0.4056  0.7867
26616SOL     OW84694   7.715   5.778   7.918 -0.4684  0.1238 -0.2159
26616SOL    HW184695   7.752   5.858   7.955  1.7628 -0.3687 -1.2754
26616SOL    HW284696   7.789   5.716   7.914 -2.1834 -2.0515  0.7346
26617SOL     OW84697   7.378   5.840   9.178 -0.0167  0.1400 -0.1096
26617SOL    HW184698   7.342   5.920   9.217 -0.6047  0.2436 -0.8572
26617SOL    HW284699   7.435   5.870   9.108 -1.2169 -0.1077 -1.2245
26618SOL     OW84700   8.773   6.139   7.209 -0.2651  0.9347  0.3496
26618SOL    HW184701   8.863   6.144   7.177 -0.5973 -0.3307 -0.8142
26618SOL    HW284702   8.772   6.063   7.267 -0.4378  1.3348  0.8780
26619SOL     OW84703   8.849   7.297   7.732 -0.0951 -0.0163 -0.2289
26619SOL    HW184704   8.772   7.245   7.756 -0.0846  1.3456  3.0846
26619SOL    HW284705   8.813   7.378   7.695 -0.2533  0.1691  0.3246
26620SOL     OW84706   8.511   6.572   7.992 -0.1454  0.0440 -0.0447
26620SOL    HW184707   8.550   6.497   7.947 -0.1669 -1.4347  2.3530
26620SOL    HW284708   8.465   6.620   7.923  0.8218 -1.5110 -1.8130
26621SOL     OW84709   8.026   8.074   0.417 -0.1956  0.5647  0.8788
26621SOL    HW184710   7.991   7.985   0.415  0.4892  0.2606  2.3856
26621SOL    HW284711   8.056   8.089   0.327 -0.7063 -0.5561  0.5083
26622SOL     OW84712   7.584   7.980   8.403  0.3921 -0.4983 -0.0422
26622SOL    HW184713   7.560   7.964   8.495 -1.8024  0.3873 -0.4235
26622SOL    HW284714   7.679   7.985   8.404  0.4535 -1.4662  2.0397
26623SOL     OW84715   7.796   7.303   9.455  0.1834 -0.4327  0.4139
26623SOL    HW184716   7.703   7.281   9.459  0.2616 -0.7208  0.5907
26623SOL    HW284717   7.821   7.285   9.364  0.1710 -0.7516  0.4756
26624SOL     OW84718   1.113   7.187   6.740  0.0854 -0.0042  0.6531
26624SOL    HW184719   1.020   7.173   6.722 -0.3773  2.6321  0.8879
26624SOL    HW284720   1.116   7.264   6.797  2.3827 -0.4139  1.1407
26625SOL     OW84721   8.587   7.659   8.219  1.0802 -0.1384  0.6451
26625SOL    HW184722   8.614   7.624   8.304  0.0014 -0.6443  0.7838
26625SOL    HW284723   8.651   7.624   8.157 -0.0356 -2.4325  0.7618
26626SOL     OW84724   7.442   5.990   8.234 -0.3079  0.1267 -0.1847
26626SOL    HW184725   7.398   6.075   8.227 -0.2228  0.2986  1.3903
26626SOL    HW284726   7.437   5.967   8.326  2.0764 -0.2951 -0.1214
26627SOL     OW84727   9.058   6.709   9.593 -0.4412  0.3028 -0.0071
26627SOL    HW184728   9.029   6.683   9.681  0.2456  0.7277  0.3511
26627SOL    HW284729   9.149   6.680   9.589 -0.1769  1.1562 -0.2234
26628SOL     OW84730   9.439   8.053   0.017 -0.1472 -0.2650  0.7972
26628SOL    HW184731   9.490   7.973   0.029  1.2044  0.5781  0.7248
26628SOL    HW284732   9.484   8.119   0.069 -0.7404  0.6720  0.1507
26629SOL     OW84733   8.875   6.282   7.627 -0.2065 -0.6431 -0.1704
26629SOL    HW184734   8.858   6.358   7.572  0.1733 -0.1404  0.3943
26629SOL    HW284735   8.967   6.292   7.654 -0.4589 -0.7471  0.7446
26630SOL     OW84736   8.187   8.116   7.419  0.2919  0.1018 -0.1318
26630SOL    HW184737   8.164   8.202   7.453  0.0884 -0.1486  0.3652
26630SOL    HW284738   8.278   8.126   7.388 -0.2991  0.9533 -1.6723
26631SOL     OW84739   7.476   4.192   6.791 -0.1494  0.1398 -0.5711
26631SOL    HW184740   7.454   4.279   6.824  1.2764  0.6143 -0.8393
26631SOL    HW284741   7.464   4.198   6.696 -0.4838 -0.0783 -0.5414
26632SOL     OW84742   7.389   7.643   7.695 -0.4844 -0.0121 -0.0364
26632SOL    HW184743   7.446   7.614   7.766 -0.5470  1.1993  0.5171
26632SOL    HW284744   7.411   7.586   7.621 -0.6305 -1.4730  1.0395
26633SOL     OW84745   6.552   7.447   7.646  0.4609 -0.1345  0.1967
26633SOL    HW184746   6.553   7.358   7.611 -0.3290 -0.0350 -0.0971
26633SOL    HW284747   6.466   7.455   7.688  0.4960  0.5058  0.1540
26634SOL     OW84748   8.673   6.714   8.857 -0.1478 -0.0040 -0.4358
26634SOL    HW184749   8.610   6.690   8.788 -1.2409 -2.0093  1.1991
26634SOL    HW284750   8.748   6.748   8.810 -1.7200  0.6694 -2.5420
26635SOL     OW84751   7.928   7.141   8.253  0.4702  0.4938 -0.1997
26635SOL    HW184752   7.864   7.185   8.309  2.6538  2.4882  0.7849
26635SOL    HW284753   7.971   7.077   8.310  1.9069  1.7362  0.1313
26636SOL     OW84754   8.600   6.225   8.953  0.3479 -0.3554  0.4924
26636SOL    HW184755   8.631   6.251   8.866 -0.3941  1.0788  0.6453
26636SOL    HW284756   8.556   6.303   8.987 -0.4861 -1.3172  1.6380
26637SOL     OW84757   8.078   9.145   8.197  0.4528  0.9093  0.3793
26637SOL    HW184758   8.143   9.207   8.164  0.8774 -0.1199 -0.7691
26637SOL    HW284759   7.998   9.164   8.148  0.3060  1.2020  0.7328
26638SOL     OW84760   9.165   7.801   8.642  0.4435  0.0973 -0.3362
26638SOL    HW184761   9.183   7.882   8.594  0.1840 -0.1654 -0.8739
26638SOL    HW284762   9.082   7.818   8.687  0.7607  0.3956  0.1454
26639SOL     OW84763   7.536   6.795   8.982  0.4475  0.4669  0.0708
26639SOL    HW184764   7.502   6.761   9.065  1.6200 -0.5618  0.1365
26639SOL    HW284765   7.518   6.726   8.919 -1.5926  1.7656 -0.8234
26640SOL     OW84766   8.215   8.340   8.575  0.3177 -0.1392 -0.9779
26640SOL    HW184767   8.273   8.276   8.617  1.2619  1.3577  0.0215
26640SOL    HW284768   8.178   8.292   8.501 -1.1706 -2.7555  1.3511
26641SOL     OW84769   7.222   6.736   7.590 -0.1483  0.1640  0.2539
26641SOL    HW184770   7.219   6.738   7.686 -4.0547  0.3913  0.1706
26641SOL    HW284771   7.209   6.827   7.563 -2.9501 -0.4141 -0.5044
26642SOL     OW84772   8.357   7.962   8.380 -0.1089  0.4512 -0.4357
26642SOL    HW184773   8.336   7.935   8.291 -0.6511 -0.3095 -0.0865
26642SOL    HW284774   8.449   7.940   8.391 -0.5879 -1.4462 -0.0991
26643SOL     OW84775   0.147   5.987   6.411 -0.0041 -0.4261 -0.2972
26643SOL    HW184776   0.223   5.957   6.461  1.8682  0.5287 -2.4749
26643SOL    HW284777   0.132   5.917   6.347 -1.5405 -1.0176  0.6811
26644SOL     OW84778   8.013   6.933   7.378 -0.1586 -0.0439  0.5349
26644SOL    HW184779   8.025   6.891   7.293 -4.0282 -0.8351  0.2660
26644SOL    HW284780   8.032   7.025   7.363 -1.5169 -0.0525 -1.3824
26645SOL     OW84781   9.872   7.502   9.038 -0.2473 -0.4835 -0.2151
26645SOL    HW184782   9.825   7.582   9.014  1.1296  0.0331 -1.2167
26645SOL    HW284783   9.803   7.443   9.071 -1.7420 -0.0463 -2.4199
26646SOL     OW84784   9.103   7.231   7.628  0.5472  0.0104 -0.0591
26646SOL    HW184785   9.147   7.312   7.602 -0.4651  0.6815  0.3010
26646SOL    HW284786   9.020   7.259   7.666  0.1426 -1.2022 -0.0079
26647SOL     OW84787   0.870   5.653   9.404  0.1503  0.5998 -0.4595
26647SOL    HW184788   0.861   5.618   9.492 -0.4307 -0.6837 -1.0150
26647SOL    HW284789   0.842   5.582   9.346  0.7113  1.3527 -1.6902
26648SOL     OW84790   9.071   8.343   8.055  0.0100  1.1957 -0.1973
26648SOL    HW184791   9.032   8.268   8.010 -0.0526  1.2654 -0.2580
26648SOL    HW284792   9.025   8.419   8.020  1.7150  1.4677 -1.9095
26649SOL     OW84793   7.722   8.814   8.962 -0.2330  0.7136  0.6689
26649SOL    HW184794   7.722   8.899   9.005 -1.2717  1.5708 -0.9793
26649SOL    HW284795   7.783   8.824   8.889 -1.0175  0.3223 -0.0486
26650SOL     OW84796   9.293   7.842   7.708  0.4645 -0.2492 -0.7366
26650SOL    HW184797   9.199   7.826   7.707  0.4481 -0.0970 -1.6543
26650SOL    HW284798   9.306   7.902   7.782 -0.1555 -0.2762 -0.6031
26651SOL     OW84799   9.763   7.593   8.660  0.1643 -0.1142  0.5588
26651SOL    HW184800   9.701   7.527   8.690 -0.1905  0.2215  0.5762
26651SOL    HW284801   9.708   7.668   8.635  0.5012 -0.1072 -0.1955
26652SOL     OW84802   8.189   8.369   9.679 -0.1632  0.3686 -0.1692
26652SOL    HW184803   8.217   8.390   9.590  1.9699  0.4584  0.5006
26652SOL    HW284804   8.239   8.429   9.734 -0.8504 -0.2714  1.1645
26653SOL     OW84805   9.284   6.106   9.402  0.2033 -0.2101  0.1074
26653SOL    HW184806   9.377   6.087   9.405  0.6056  1.6468  0.2212
26653SOL    HW284807   9.242   6.029   9.439  1.5671 -1.8353 -1.6506
26654SOL     OW84808   7.336   5.394   7.867  0.2839  0.2606  0.7366
26654SOL    HW184809   7.417   5.443   7.885 -0.3155  1.4778  0.2391
26654SOL    HW284810   7.335   5.323   7.930  1.5882  0.4306  0.9564
26655SOL     OW84811   9.252   8.473   7.129  0.5126  0.3142 -0.0870
26655SOL    HW184812   9.265   8.387   7.167 -0.7939 -0.9360 -2.3463
26655SOL    HW284813   9.255   8.458   7.034 -1.0210  2.5344 -0.5302
26656SOL     OW84814   8.531   7.029   8.015  0.2903  0.2707 -0.6721
26656SOL    HW184815   8.440   7.059   8.015  0.5426  1.0483  0.0978
26656SOL    HW284816   8.563   7.047   8.103  1.3779  0.5749 -1.1155
26657SOL     OW84817   9.258   7.236   9.982  0.5103  0.7479 -0.5196
26657SOL    HW184818   9.203   7.158   9.978  0.9452  0.3030  1.6661
26657SOL    HW284819   9.328   7.214  10.043  1.3363  2.4124 -0.8276
26658SOL     OW84820   9.001   8.769   7.039  0.2168 -0.2688  0.3621
26658SOL    HW184821   9.003   8.689   6.986 -0.6182  0.4917 -0.8238
26658SOL    HW284822   8.908   8.779   7.063  0.3989  0.0698  0.9468
26659SOL     OW84823   8.953   5.960   8.708  0.5779 -0.3495  0.4050
26659SOL    HW184824   8.975   5.875   8.671  2.0094  0.6999 -1.2447
26659SOL    HW284825   9.005   5.965   8.788  0.3240 -1.1042  0.6197
26660SOL     OW84826   9.951   7.416   9.825  0.4209  0.2370 -0.2789
26660SOL    HW184827   9.927   7.431   9.917 -0.0081 -0.5471 -0.2615
26660SOL    HW284828  10.045   7.436   9.821  0.5301 -0.1437  0.4171
26661SOL     OW84829   8.697   8.793   7.086 -0.0091 -0.0650 -0.2329
26661SOL    HW184830   8.687   8.708   7.044 -0.9785  0.4377 -1.0511
26661SOL    HW284831   8.636   8.791   7.160  0.8263 -0.5102  0.4510
26662SOL     OW84832   8.337   6.502   8.465 -0.0757  0.0134 -0.2437
26662SOL    HW184833   8.255   6.453   8.452 -0.0563  0.1302 -0.8185
26662SOL    HW284834   8.388   6.483   8.386  0.5387 -0.2260  0.2109
26663SOL     OW84835   9.518   7.662   8.096 -0.0594 -0.2515 -0.5513
26663SOL    HW184836   9.433   7.669   8.053  0.0515  0.9087 -0.5983
26663SOL    HW284837   9.498   7.666   8.190 -0.0380  0.4011 -0.5680
26664SOL     OW84838   0.200   5.797   9.481  0.4128 -0.4803  0.8731
26664SOL    HW184839   0.158   5.712   9.474 -0.5466 -0.0058  0.8252
26664SOL    HW284840   0.160   5.838   9.558 -2.0508  1.5369 -1.3911
26665SOL     OW84841   8.416   7.871   7.408  0.2705  0.6200  0.2622
26665SOL    HW184842   8.473   7.794   7.407  2.0181  1.8773  0.6274
26665SOL    HW284843   8.443   7.922   7.331  0.7661  2.0011  1.3239
26666SOL     OW84844   6.626   7.216   9.061  0.4599  0.7112  0.2810
26666SOL    HW184845   6.684   7.141   9.066 -1.2503 -0.7790 -1.4055
26666SOL    HW284846   6.683   7.290   9.044  1.6471 -1.1568 -4.4686
26667SOL     OW84847   8.929   5.846   8.304 -0.0981  0.4479 -0.3433
26667SOL    HW184848   8.846   5.822   8.262 -0.0937 -0.6890  0.2860
26667SOL    HW284849   8.996   5.821   8.241 -0.2887  2.9426 -1.5910
26668SOL     OW84850   7.871   7.433   7.909 -0.3857  0.6520 -0.5768
26668SOL    HW184851   7.838   7.510   7.957 -0.0606  1.1106 -1.0796
26668SOL    HW284852   7.961   7.423   7.939 -0.6378  0.0657 -0.0202
26669SOL     OW84853   9.457   6.240   9.614  0.1205  0.2667 -0.3601
26669SOL    HW184854   9.386   6.300   9.636 -0.1643  0.7286 -2.4774
26669SOL    HW284855   9.435   6.159   9.660 -1.6678  0.4751 -0.8189
26670SOL     OW84856   5.649   6.998   8.167  0.5252 -0.0572 -0.5202
26670SOL    HW184857   5.725   7.052   8.187 -0.1135  0.7809 -0.3407
26670SOL    HW284858   5.584   7.059   8.133 -0.5206 -0.5758  0.5179
26671SOL     OW84859   9.361   6.767   7.875 -0.1679 -0.2706  0.2570
26671SOL    HW184860   9.324   6.855   7.885  0.5785  0.3477 -2.1615
26671SOL    HW284861   9.417   6.757   7.953 -0.1495  1.4465  0.4978
26672SOL     OW84862   7.558   7.128   8.136 -0.5843 -0.0153 -0.3577
26672SOL    HW184863   7.505   7.206   8.149 -0.5126  0.0796 -0.6390
26672SOL    HW284864   7.618   7.150   8.065  0.4201  0.1815  0.5318
26673SOL     OW84865   1.345   8.804   7.481  0.4661  0.3486 -0.5246
26673SOL    HW184866   1.302   8.874   7.530  0.8697  1.5838 -1.9105
26673SOL    HW284867   1.332   8.726   7.535 -2.8822  0.8085 -0.5136
26674SOL     OW84868   7.665   5.790   9.582 -0.2492  0.3081 -0.4985
26674SOL    HW184869   7.751   5.798   9.622 -0.5288  2.0160 -0.1802
26674SOL    HW284870   7.641   5.698   9.593 -0.1625  0.6439  2.9114
26675SOL     OW84871   7.061   6.431   7.884 -0.1119  0.3405  0.2621
26675SOL    HW184872   7.086   6.516   7.919 -0.8541  0.5630  0.2559
26675SOL    HW284873   7.143   6.395   7.849 -0.0312  1.6261 -0.9551
26676SOL     OW84874   8.998   6.428   0.227 -0.3475 -0.5939 -0.1810
26676SOL    HW184875   9.008   6.504   0.170  0.1497  0.4755  1.3288
26676SOL    HW284876   8.970   6.463   0.311  1.5748 -1.8766  1.0484
26677SOL     OW84877   8.426   3.612   5.768 -0.0792  0.2558  0.6900
26677SOL    HW184878   8.396   3.583   5.854  0.5151  1.3114  1.2624
26677SOL    HW284879   8.501   3.668   5.786 -1.0737  1.9908 -0.3974
26678SOL     OW84880   8.359   5.533   9.741 -0.0295  0.1423 -0.6555
26678SOL    HW184881   8.410   5.591   9.684 -1.6693  1.1593 -1.1236
26678SOL    HW284882   8.356   5.450   9.694  0.8629  0.1759 -0.7927
26679SOL     OW84883   9.407   7.173   8.519 -0.2697 -0.1601  0.8718
26679SOL    HW184884   9.464   7.100   8.495 -0.1961  0.2749 -0.3167
26679SOL    HW284885   9.348   7.137   8.585 -0.4225 -1.3764  0.0866
26680SOL     OW84886   0.015   7.829   7.974  0.3316  0.1944  0.0533
26680SOL    HW184887   0.031   7.754   8.032  0.5120  0.7849  0.7749
26680SOL    HW284888   0.100   7.872   7.968 -0.3891  1.9744  1.9660
26681SOL     OW84889   8.201   6.314   0.932  0.3418  0.6825  0.6495
26681SOL    HW184890   8.152   6.390   0.901 -1.5197 -0.2803  1.1052
26681SOL    HW284891   8.187   6.314   1.027 -1.7425 -1.5350  0.4177
26682SOL     OW84892   9.165   7.129   8.267 -0.0931  0.5842 -0.0643
26682SOL    HW184893   9.109   7.119   8.344  0.2133 -1.1082 -0.0378
26682SOL    HW284894   9.103   7.139   8.194 -0.3835  1.9927  0.3610
26683SOL     OW84895   8.533   7.208   8.687 -0.0272 -0.7671  0.1162
26683SOL    HW184896   8.485   7.284   8.652  0.5675 -0.4195  0.0474
26683SOL    HW284897   8.477   7.174   8.756 -0.4583 -0.4620 -0.0813
26684SOL     OW84898   7.090   6.016   8.974 -0.0285 -0.1952  0.0576
26684SOL    HW184899   7.072   5.928   9.007  3.1009 -0.8902  0.0210
26684SOL    HW284900   7.113   6.067   9.052 -0.6245  0.2874 -0.0746
26685SOL     OW84901   9.101   8.131   6.786  0.2816  0.2851 -0.0851
26685SOL    HW184902   9.006   8.136   6.796  0.2739 -0.8860  0.5647
26685SOL    HW284903   9.115   8.099   6.697  0.0344 -0.8067  0.2690
26686SOL     OW84904   9.152   4.924   8.640  0.1116 -0.0238  0.2732
26686SOL    HW184905   9.186   4.996   8.586  1.6765 -0.8730  0.0947
26686SOL    HW284906   9.196   4.846   8.606 -1.3686 -1.0505  0.6403
26687SOL     OW84907   8.902   6.473   8.690 -0.0890 -0.4870 -0.1259
26687SOL    HW184908   8.940   6.517   8.766 -0.3057 -1.2676  0.4395
26687SOL    HW284909   8.978   6.435   8.645  0.1184  0.5993 -0.7182
26688SOL     OW84910   8.590   7.592   9.494 -0.2683 -0.1316 -0.3842
26688SOL    HW184911   8.682   7.616   9.479  0.1626 -1.1526  0.6047
26688SOL    HW284912   8.540   7.655   9.442  1.0107  0.1255 -1.3148
26689SOL     OW84913   8.593   5.114   7.607  0.1232  0.4920  0.2039
26689SOL    HW184914   8.585   5.077   7.519 -4.0145 -0.1358  0.7404
26689SOL    HW284915   8.612   5.038   7.663  1.5435  0.7185  0.0560
26690SOL     OW84916   9.185   9.710   0.414 -0.2764  0.4180 -0.0349
26690SOL    HW184917   9.234   9.782   0.375 -0.5230  0.4169 -0.3555
26690SOL    HW284918   9.097   9.718   0.376  0.2404 -1.2679 -1.6371
26691SOL     OW84919   7.487   6.469   9.572 -0.6598 -0.2841 -0.2851
26691SOL    HW184920   7.576   6.504   9.562 -0.6224 -0.4371 -0.4718
26691SOL    HW284921   7.430   6.545   9.559 -0.5551 -0.1783 -0.1312
26692SOL     OW84922   8.608   5.061   9.010 -0.6173 -0.3934  0.2940
26692SOL    HW184923   8.524   5.101   8.989  0.0602  0.6402 -0.5096
26692SOL    HW284924   8.602   4.972   8.975 -0.7004  0.2723 -1.3987
26693SOL     OW84925   8.649   7.184   8.251 -0.5713  0.6500  0.4616
26693SOL    HW184926   8.709   7.221   8.187 -1.4503  3.2792  1.1152
26693SOL    HW284927   8.702   7.120   8.299  0.6071  0.0406 -1.5586
26694SOL     OW84928   8.440   8.758   8.327  0.5453  0.2693  0.5935
26694SOL    HW184929   8.466   8.843   8.291  2.5420 -1.3270 -1.8925
26694SOL    HW284930   8.362   8.777   8.379 -1.2095  3.0887 -2.8235
26695SOL     OW84931   0.557   5.983   5.981 -0.2837 -0.0566  0.3113
26695SOL    HW184932   0.468   5.950   5.991 -0.0377 -0.6440  0.6148
26695SOL    HW284933   0.597   5.925   5.915  0.4285 -0.9419  1.5065
26696SOL     OW84934   9.611   5.784   8.653 -0.3707 -0.3672  0.2264
26696SOL    HW184935   9.558   5.760   8.577  2.3194 -0.6526 -1.5949
26696SOL    HW284936   9.575   5.869   8.680 -0.4300  0.4372 -2.2583
26697SOL     OW84937   9.900   6.815   8.318  0.5450 -0.5334  0.1256
26697SOL    HW184938   9.909   6.751   8.248  0.2308 -1.8835  1.3021
26697SOL    HW284939   9.876   6.764   8.395  0.2492  0.9967  1.0827
26698SOL     OW84940   8.356   8.489   8.370 -0.0871 -0.0877 -0.1837
26698SOL    HW184941   8.417   8.557   8.341 -0.5466  0.9420  1.2073
26698SOL    HW284942   8.413   8.416   8.398  0.3732 -0.7964 -2.8441
26699SOL     OW84943   8.930   9.397   7.562 -0.2486 -0.2110  0.0433
26699SOL    HW184944   8.857   9.352   7.604  1.0087 -0.4287  2.0480
26699SOL    HW284945   8.902   9.409   7.471 -3.2420  0.7198  1.0408
26700SOL     OW84946   8.127   5.564   8.533 -0.8084 -0.1298 -0.4711
26700SOL    HW184947   8.201   5.619   8.560 -0.5759 -0.3863 -0.5800
26700SOL    HW284948   8.098   5.523   8.614 -1.8191  1.1677 -0.1660
26701SOL     OW84949   6.551   5.929   8.706  0.3431 -1.0138 -0.0543
26701SOL    HW184950   6.537   5.974   8.624  1.6989  1.0588  0.8172
26701SOL    HW284951   6.464   5.899   8.732 -0.0740 -1.8109 -2.2759
26702SOL     OW84952   7.659   8.129   9.175  0.3471 -0.5355 -0.1831
26702SOL    HW184953   7.593   8.064   9.199 -0.9934  0.7242 -0.3604
26702SOL    HW284954   7.639   8.205   9.229  1.0373  0.2106 -0.9625
26703SOL     OW84955   7.616   6.640   0.192  0.5848 -0.3491  0.4376
26703SOL    HW184956   7.535   6.656   0.240  0.9830  2.5837  0.2028
26703SOL    HW284957   7.669   6.588   0.252 -0.7239 -0.6961  1.3219
26704SOL     OW84958   8.378   5.872   7.949  0.0227 -0.2524  0.1668
26704SOL    HW184959   8.314   5.821   7.998 -0.9945  0.5767 -0.3013
26704SOL    HW284960   8.447   5.809   7.927  0.6755 -0.5788  2.9564
26705SOL     OW84961   8.911   5.631   0.465 -0.2045  0.4781  0.0865
26705SOL    HW184962   8.999   5.641   0.501 -0.0016  0.3814 -0.3757
26705SOL    HW284963   8.894   5.537   0.468 -1.7076  0.8136  3.4957
26706SOL     OW84964   8.294   9.222   8.791 -0.3963 -0.0866  0.9935
26706SOL    HW184965   8.329   9.302   8.752 -0.0048 -1.0839 -0.7619
26706SOL    HW284966   8.355   9.201   8.862  0.7598 -0.0239  0.0418
26707SOL     OW84967   8.660   5.872   0.121  0.2464  0.4443  0.1458
26707SOL    HW184968   8.689   5.940   0.182  2.2215  1.4466 -1.8078
26707SOL    HW284969   8.665   5.914   0.035  1.9387 -2.2676 -1.1477
26708SOL     OW84970   8.649   5.250   0.635 -0.0694 -0.0034 -0.0528
26708SOL    HW184971   8.576   5.237   0.574 -0.9663 -0.3573  1.0679
26708SOL    HW284972   8.720   5.197   0.599 -1.1299 -1.5646  0.1072
26709SOL     OW84973   7.638   5.796   0.875 -0.0805 -0.7328 -0.9291
26709SOL    HW184974   7.676   5.718   0.834  0.4342 -0.0060 -1.8851
26709SOL    HW284975   7.714   5.849   0.899 -0.4685  0.7634 -2.9068
26710SOL     OW84976   7.528   6.360   0.113 -0.4677  0.0217 -0.3396
26710SOL    HW184977   7.585   6.437   0.109 -1.2867  0.7174  0.9504
26710SOL    HW284978   7.562   6.308   0.186 -0.3711 -0.4627 -0.7294
26711SOL     OW84979   9.888   5.474   8.660  0.1176 -0.8760 -0.0062
26711SOL    HW184980   9.859   5.394   8.616  1.5571 -1.4071 -0.0478
26711SOL    HW284981   9.978   5.485   8.630  0.0817  0.4933  0.3944
26712SOL     OW84982   9.076   6.279   9.805  0.0368 -0.0074  0.0349
26712SOL    HW184983   9.107   6.268   9.715  1.0122  2.4439  0.0494
26712SOL    HW284984   9.156   6.287   9.857 -0.5261 -1.1182  1.1108
26713SOL     OW84985   7.617   7.793   9.985 -0.0230  0.1726  0.3023
26713SOL    HW184986   7.654   7.708  10.008 -0.0501 -0.3124 -1.3918
26713SOL    HW284987   7.647   7.852  10.054  1.0364 -0.9443  0.8024
26714SOL     OW84988   9.923   7.481   8.412  0.5162 -0.3935  0.5567
26714SOL    HW184989   9.851   7.420   8.428 -0.0370 -0.0535 -0.6592
26714SOL    HW284990   9.886   7.567   8.432  0.6608 -0.2440  0.1772
26715SOL     OW84991   8.088   6.160   8.925  0.1445  0.2155  0.3623
26715SOL    HW184992   8.130   6.170   9.011  0.4379 -0.4665  0.3057
26715SOL    HW284993   8.129   6.082   8.888 -0.9862 -0.3081  0.1900
26716SOL     OW84994   8.140   7.280   0.342  0.1957  0.2382  0.6769
26716SOL    HW184995   8.172   7.243   0.424  1.0088  0.6362  0.5472
26716SOL    HW284996   8.213   7.269   0.281  0.3931  1.8527  0.5821
26717SOL     OW84997   6.110   7.143   8.323  0.7025 -0.4540  0.2808
26717SOL    HW184998   6.162   7.154   8.403 -0.1917  0.0650  0.8076
26717SOL    HW284999   6.082   7.052   8.325 -0.3421 -0.1207  1.2029
26718SOL     OW85000   9.168   7.568   9.652  0.8236  0.0139 -0.1853
26718SOL    HW185001   9.146   7.660   9.667 -1.2930 -0.5406  0.2793
26718SOL    HW285002   9.116   7.520   9.716  1.8933 -1.5211 -0.4373
26719SOL     OW85003   5.719   8.094   2.556  0.4258 -0.1212 -1.0354
26719SOL    HW185004   5.801   8.092   2.606 -0.0814  1.4825 -0.0697
26719SOL    HW285005   5.739   8.050   2.474  1.7904 -1.2222 -0.1362
26720SOL     OW85006   8.316   7.986   0.993  0.4232  0.2481  0.1750
26720SOL    HW185007   8.348   7.931   0.922  0.5244  1.6408 -0.8817
26720SOL    HW285008   8.389   7.993   1.054  0.5559 -0.4034  0.0917
26721SOL     OW85009   7.233   6.044   0.263  0.1811 -0.0845 -0.2527
26721SOL    HW185010   7.146   6.053   0.226  0.9290  1.3755 -1.7405
26721SOL    HW285011   7.292   6.065   0.191  1.7289  0.2160  1.0639
26722SOL     OW85012   8.785   6.387   0.703  0.1059  0.3057 -0.1306
26722SOL    HW185013   8.827   6.413   0.621  1.7883  1.1853  0.9685
26722SOL    HW285014   8.844   6.420   0.771 -1.2465 -0.4315  1.4310
26723SOL     OW85015   9.401   7.606   1.324 -0.4103 -0.1070  0.4178
26723SOL    HW185016   9.455   7.658   1.384 -0.3763  3.0371 -2.2057
26723SOL    HW285017   9.311   7.629   1.348 -0.4481 -0.4725  0.6270
26724SOL     OW85018   8.047   5.699   9.062 -0.5513  0.4727 -0.2284
26724SOL    HW185019   8.059   5.758   9.137 -0.1191 -1.1833  1.0297
26724SOL    HW285020   8.135   5.666   9.044 -0.5242  1.3964 -1.9607
26725SOL     OW85021   8.075   6.194   7.794  0.2059 -0.7703  0.8668
26725SOL    HW185022   8.151   6.224   7.844  0.2393 -1.8264  1.4580
26725SOL    HW285023   8.026   6.274   7.775  0.8063 -0.2256  1.5649
26726SOL     OW85024   6.496   5.606   9.620  0.1913  0.1885  0.3370
26726SOL    HW185025   6.458   5.659   9.691 -0.3146  0.6144 -0.2518
26726SOL    HW285026   6.520   5.670   9.553 -0.3428 -0.3264 -0.3468
26727SOL     OW85027   9.739   4.387   8.588 -0.0291 -0.3526  0.6464
26727SOL    HW185028   9.827   4.349   8.597 -0.2750 -1.6523 -1.8291
26727SOL    HW285029   9.680   4.322   8.624 -0.0415  0.1467  1.5302
26728SOL     OW85030   9.139   6.329   9.527  0.5163  0.4367  0.0918
26728SOL    HW185031   9.090   6.381   9.463 -0.6181 -0.1011  0.5106
26728SOL    HW285032   9.183   6.262   9.475 -0.6475 -0.1875 -0.1036
26729SOL     OW85033   8.323   8.486   9.029 -0.5086  0.6131  0.5021
26729SOL    HW185034   8.242   8.447   9.061 -0.4040 -1.5587 -1.7505
26729SOL    HW285035   8.298   8.529   8.947  0.5073  0.3064  0.0180
26730SOL     OW85036   7.655   5.557   8.302  0.3110  0.0645  0.5033
26730SOL    HW185037   7.650   5.636   8.249 -1.4324 -0.6585 -0.4448
26730SOL    HW285038   7.607   5.579   8.382  0.3527  0.1587  0.5027
26731SOL     OW85039   7.963   3.532   9.612  0.0154 -0.2331 -0.6143
26731SOL    HW185040   8.000   3.447   9.586  0.7710 -0.6587  1.7617
26731SOL    HW285041   7.975   3.535   9.707  0.6506  2.8518 -0.7458
26732SOL     OW85042   0.009   4.896   8.869  0.2093 -0.1024  0.1995
26732SOL    HW185043   0.055   4.926   8.791 -0.3170  1.5631  0.4895
26732SOL    HW285044   0.078   4.886   8.935  0.3046  1.3612  0.3398
26733SOL     OW85045   9.333   7.976   0.856 -0.2386 -0.2893  0.1218
26733SOL    HW185046   9.404   7.963   0.793 -2.0824 -1.8844 -1.7003
26733SOL    HW285047   9.350   7.911   0.925  0.7738  0.1983  0.3268
26734SOL     OW85048   8.945   6.366   7.960  0.1471  0.3178 -0.4561
26734SOL    HW185049   8.879   6.383   8.028 -1.0332  0.5042 -1.6212
26734SOL    HW285050   8.998   6.446   7.957 -0.8491  0.9792 -0.8992
26735SOL     OW85051   7.270   5.792   0.098 -0.1363 -0.2684  0.2372
26735SOL    HW185052   7.333   5.800   0.170 -0.6491 -2.0651  0.9246
26735SOL    HW285053   7.309   5.841   0.026  0.5976  1.1871  1.6006
26736SOL     OW85054   0.338   5.681   8.974  0.0757 -0.0383 -0.2340
26736SOL    HW185055   0.261   5.661   9.027 -1.2238  1.7353 -1.3763
26736SOL    HW285056   0.313   5.658   8.885  1.6872 -1.5396 -0.3317
26737SOL     OW85057   8.585   5.419   8.581  0.0202 -0.2751 -0.1858
26737SOL    HW185058   8.650   5.404   8.512  0.2180  0.2551 -0.1151
26737SOL    HW285059   8.593   5.512   8.602 -0.0026 -0.4501  0.5927
26738SOL     OW85060   8.620   4.286   0.366  0.2254  0.4918  0.4866
26738SOL    HW185061   8.671   4.351   0.319 -0.1819  0.1928 -0.3805
26738SOL    HW285062   8.608   4.323   0.453  3.1856 -0.0920  1.2035
26739SOL     OW85063   8.913   5.673   1.404 -0.0762 -0.0556 -0.1466
26739SOL    HW185064   8.920   5.738   1.473  0.5877 -0.0972 -0.1747
26739SOL    HW285065   8.869   5.599   1.445  1.4211 -0.5575  0.5770
26740SOL     OW85066   7.422   7.724   8.877  0.2570  0.0151 -0.6042
26740SOL    HW185067   7.369   7.796   8.843  0.5621  0.6178  0.2002
26740SOL    HW285068   7.512   7.753   8.865  0.3821 -0.2649 -0.3417
26741SOL     OW85069   9.219   7.017   9.625 -0.0051  0.2867  0.1272
26741SOL    HW185070   9.186   6.955   9.691  0.8944  0.6952  0.9781
26741SOL    HW285071   9.301   6.978   9.595  0.6040  1.0836  0.7211
26742SOL     OW85072   9.571   6.050   8.732  0.6276 -0.0887 -0.9399
26742SOL    HW185073   9.503   6.086   8.789 -0.6450 -0.7970 -1.9892
26742SOL    HW285074   9.653   6.079   8.772 -0.2420 -0.0874  0.9378
26743SOL     OW85075   9.077   5.820   1.234  0.6250  0.2784 -0.1086
26743SOL    HW185076   9.154   5.772   1.262  1.8677  2.2656  0.0151
26743SOL    HW285077   9.003   5.771   1.270  1.7574 -2.2231 -1.1120
26744SOL     OW85078   7.211   4.887   9.679 -0.1329 -0.3829  0.1585
26744SOL    HW185079   7.246   4.966   9.637  0.6815 -0.0728  1.3848
26744SOL    HW285080   7.288   4.834   9.699 -0.5710 -0.8936  0.5038
26745SOL     OW85081   0.899   7.609   9.714  0.1343 -0.7415 -0.2186
26745SOL    HW185082   0.809   7.606   9.684  0.4027 -0.1190 -1.1002
26745SOL    HW285083   0.937   7.525   9.688  0.1549 -0.5029 -0.9638
26746SOL     OW85084   8.532   5.005   8.020 -0.0130 -0.1422  0.3388
26746SOL    HW185085   8.586   4.973   7.948 -0.7018  0.2256 -0.3477
26746SOL    HW285086   8.450   4.957   8.013 -1.1540  1.8959 -0.8483
26747SOL     OW85087   9.221   6.786   7.624 -0.1465  0.0286  0.0794
26747SOL    HW185088   9.280   6.793   7.698 -0.9398 -1.0852  0.8384
26747SOL    HW285089   9.245   6.703   7.582  0.4872  0.7885 -1.0876
26748SOL     OW85090   7.834   7.122   0.065 -0.5009 -0.2740 -0.2431
26748SOL    HW185091   7.872   7.034   0.060  0.7674  0.1887  0.9283
26748SOL    HW285092   7.896   7.178   0.019 -2.6655 -0.3813 -3.4321
26749SOL     OW85093   7.288   6.286   0.468  0.2078  0.4338 -0.6505
26749SOL    HW185094   7.285   6.207   0.415  0.1672 -0.6384  0.9280
26749SOL    HW285095   7.373   6.325   0.449  0.4149 -0.2287 -1.0976
26750SOL     OW85096   6.686   5.209   8.813 -0.4313 -0.3514  0.1745
26750SOL    HW185097   6.750   5.278   8.795 -1.9324  1.4435  1.5293
26750SOL    HW285098   6.732   5.128   8.793  2.2991  0.8901  1.2054
26751SOL     OW85099   8.493   6.495   8.974 -0.4925 -0.8503  0.1633
26751SOL    HW185100   8.559   6.534   8.917  0.6831 -3.8943 -0.6554
26751SOL    HW285101   8.472   6.564   9.037  0.5507  1.4896 -1.9630
26752SOL     OW85102   7.793   4.984   0.940 -0.4359  0.5136  0.2574
26752SOL    HW185103   7.741   5.030   0.874  0.2767  0.7369 -0.1514
26752SOL    HW285104   7.883   5.005   0.918 -0.1388 -0.4371  0.5474
26753SOL     OW85105   7.104   6.732   8.406  0.3021 -0.8652  0.0457
26753SOL    HW185106   7.038   6.674   8.444 -0.1392 -0.5555 -0.2323
26753SOL    HW285107   7.176   6.675   8.383  0.7412 -1.0051  1.6959
26754SOL     OW85108   8.812   7.586   9.720  0.4180 -0.2811 -0.3407
26754SOL    HW185109   8.878   7.528   9.758  1.8329  0.6313 -1.3710
26754SOL    HW285110   8.745   7.526   9.686  0.5548 -1.2045  0.9631
26755SOL     OW85111   8.061   4.365   9.787  0.3151 -0.0765  0.2484
26755SOL    HW185112   8.103   4.328   9.865  2.7408 -2.6695 -2.1613
26755SOL    HW285113   8.033   4.288   9.736 -1.0000  1.5524 -1.5465
26756SOL     OW85114   9.344   5.329   8.698  0.1278 -0.3046  0.1934
26756SOL    HW185115   9.378   5.282   8.773  0.5261  0.9337  0.7920
26756SOL    HW285116   9.421   5.360   8.651 -0.1370  0.5813  0.3335
26757SOL     OW85117   8.038   7.564   9.776  0.5821  0.0805 -0.3646
26757SOL    HW185118   7.957   7.612   9.792  0.2671  0.8419 -3.8405
26757SOL    HW285119   8.018   7.507   9.702  1.8908 -3.1949  1.6915
26758SOL     OW85120   6.195   6.696   9.145  0.3786  0.2746  0.1517
26758SOL    HW185121   6.269   6.731   9.195 -1.0694 -0.3079  2.8276
26758SOL    HW285122   6.128   6.678   9.211 -0.7802 -2.7609 -1.7366
26759SOL     OW85123   7.282   4.523   9.980 -0.0388 -0.3150 -0.0199
26759SOL    HW185124   7.204   4.472   9.956 -0.1201 -0.5429  0.7275
26759SOL    HW285125   7.345   4.505   9.910 -0.8881  0.3957 -0.9801
26760SOL     OW85126   8.612   7.222   9.068 -0.0394  0.1141  0.0606
26760SOL    HW185127   8.573   7.236   9.154 -1.2701  0.6461 -0.5751
26760SOL    HW285128   8.542   7.183   9.015  0.5732  0.1855 -0.8215
26761SOL     OW85129   9.191   5.676   9.223 -0.1878  0.2352  0.3042
26761SOL    HW185130   9.158   5.589   9.200 -0.3498  0.8529 -1.9314
26761SOL    HW285131   9.286   5.667   9.220 -0.1899 -0.0506  0.8982
26762SOL     OW85132   6.583   6.475   0.789 -0.2032 -0.3339  0.1311
26762SOL    HW185133   6.653   6.516   0.840  0.1164 -0.9963  0.2298
26762SOL    HW285134   6.571   6.389   0.829  0.3806 -1.0455 -1.1837
26763SOL     OW85135   9.125   6.454   8.308  0.4014 -0.2093 -0.9186
26763SOL    HW185136   9.113   6.410   8.392  1.5971 -0.2546 -0.7538
26763SOL    HW285137   9.061   6.525   8.308  1.6720  0.9819  0.8688
26764SOL     OW85138   8.611   6.735   9.113  0.0518  0.2222 -0.7477
26764SOL    HW185139   8.636   6.761   9.025  0.0212  1.7816 -0.3044
26764SOL    HW285140   8.592   6.817   9.159 -0.0143 -0.5668  0.6875
26765SOL     OW85141   7.660   6.054   0.040  0.0873 -0.2743  0.0497
26765SOL    HW185142   7.570   6.078   0.062  0.5428  1.2499  0.3102
26765SOL    HW285143   7.681   6.108  -0.036  1.7935  1.6428  1.8343
26766SOL     OW85144   8.734   6.157   9.252  0.8305  0.5395 -0.0723
26766SOL    HW185145   8.709   6.124   9.339  0.7132  1.1285  0.1207
26766SOL    HW285146   8.671   6.117   9.192  0.9672  0.0566  0.0988
26767SOL     OW85147   8.126   7.821   9.214 -0.0241 -0.6240 -0.1809
26767SOL    HW185148   8.063   7.831   9.286  0.3151 -1.4182  0.2305
26767SOL    HW285149   8.199   7.878   9.238 -0.7178  0.5513 -0.8198
26768SOL     OW85150   9.262   6.284   9.187 -0.6567 -0.2952  0.2734
26768SOL    HW185151   9.272   6.221   9.258  0.6252  0.1718  0.5207
26768SOL    HW285152   9.175   6.321   9.198 -1.0282 -1.3074  0.7154
26769SOL     OW85153   8.342   7.137   0.606 -0.2026 -0.0872  0.0283
26769SOL    HW185154   8.344   7.042   0.597 -1.3974 -0.1222  0.0701
26769SOL    HW285155   8.369   7.170   0.520 -1.7574 -0.4670 -0.6306
26770SOL     OW85156   8.212   7.826   1.625 -0.0906  0.1807 -0.0681
26770SOL    HW185157   8.252   7.868   1.701  1.4999 -2.5010  0.6739
26770SOL    HW285158   8.119   7.820   1.647  0.1824  0.4090  1.1871
26771SOL     OW85159   5.434   9.155   2.677  0.3423 -0.0522  0.1592
26771SOL    HW185160   5.451   9.217   2.606  1.5187  0.4227  0.8290
26771SOL    HW285161   5.377   9.089   2.639  1.6515 -0.2712 -1.4938
26772SOL     OW85162   7.505   7.927   9.262 -0.1960  1.0749  0.2049
26772SOL    HW185163   7.413   7.921   9.234 -0.8311 -0.6514  2.5070
26772SOL    HW285164   7.501   7.916   9.357  2.4708  0.3040  0.2506
26773SOL     OW85165   8.882   9.709   1.029 -0.4205 -1.2537  0.0068
26773SOL    HW185166   8.791   9.681   1.017 -0.6441 -1.9258  2.8421
26773SOL    HW285167   8.881   9.764   1.107  1.3794  0.0388 -0.8299
26774SOL     OW85168   7.740   9.357   9.947  0.1571  0.3038 -0.2626
26774SOL    HW185169   7.658   9.406   9.955  0.2152  0.3234  0.2030
26774SOL    HW285170   7.722   9.272   9.986  1.5112  1.6669  3.5409
26775SOL     OW85171   8.909   8.272   0.413 -0.1970 -0.1787 -0.1054
26775SOL    HW185172   8.825   8.226   0.412  0.3460 -1.3073  2.5708
26775SOL    HW285173   8.964   8.221   0.472  1.5925  1.9437  0.1483
26776SOL     OW85174   8.621   8.221   1.658  0.3156  0.2837  0.2857
26776SOL    HW185175   8.711   8.194   1.671 -0.0486 -2.2200 -1.9827
26776SOL    HW285176   8.588   8.237   1.747  2.2170 -1.3222  1.3380
26777SOL     OW85177   9.549   8.657   1.038  0.3829 -0.1897  0.5368
26777SOL    HW185178   9.474   8.638   1.094 -0.7428 -1.8994 -1.4872
26777SOL    HW285179   9.595   8.574   1.031  1.1337  0.2727 -0.1495
26778SOL     OW85180   8.290   8.088   0.506 -0.1637 -0.3113 -0.1061
26778SOL    HW185181   8.325   8.078   0.417  0.0511 -0.9220  0.0498
26778SOL    HW285182   8.195   8.095   0.493 -0.0318  0.9976 -0.4989
26779SOL     OW85183   8.614   9.704   0.891  0.3930  0.2545 -0.2468
26779SOL    HW185184   8.614   9.791   0.852  0.7090  0.7222  0.7745
26779SOL    HW285185   8.534   9.701   0.943  0.1145 -0.2590 -0.6998
26780SOL     OW85186   7.094   9.228   1.079 -0.5985  0.3690 -0.3792
26780SOL    HW185187   7.132   9.265   1.000  0.3730  0.3928  0.0890
26780SOL    HW285188   7.166   9.184   1.123 -1.1364  0.2977  0.4603
26781SOL     OW85189   0.108   8.630   0.785 -0.5857  0.0377 -0.0488
26781SOL    HW185190   0.150   8.675   0.712 -0.5542  0.1482  0.0368
26781SOL    HW285191   0.076   8.701   0.841  1.5210 -0.0210  1.2885
26782SOL     OW85192   7.833   9.747   9.888 -0.1747 -1.0536 -0.0518
26782SOL    HW185193   7.760   9.745   9.950  0.0719 -0.0621  0.3007
26782SOL    HW285194   7.835   9.660   9.849 -2.6813 -0.5363 -1.4117
26783SOL     OW85195   8.080   8.445   1.662 -0.0969  0.0277 -0.7551
26783SOL    HW185196   8.018   8.442   1.589 -0.9250 -0.1076 -0.0519
26783SOL    HW285197   8.116   8.357   1.666 -1.0780 -0.3553 -0.1296
26784SOL     OW85198   6.926   9.053   1.217  0.1329 -0.1158 -0.1317
26784SOL    HW185199   6.968   9.114   1.157 -1.3552  0.1483 -0.9476
26784SOL    HW285200   6.943   9.088   1.304  0.9921  0.3656 -0.4923
26785SOL     OW85201   6.818   8.298   1.432  0.2054  0.4343  0.0669
26785SOL    HW185202   6.862   8.367   1.482  1.4450 -1.2594  1.3937
26785SOL    HW285203   6.725   8.310   1.450  0.3820  1.9860 -0.0230
26786SOL     OW85204   9.579   9.542   1.419 -0.8581 -0.0247  0.1401
26786SOL    HW185205   9.530   9.463   1.438 -1.8272  0.3650 -0.6959
26786SOL    HW285206   9.652   9.512   1.364  0.1994 -0.6875  1.8691
26787SOL     OW85207   7.712   7.813   9.691 -0.4436 -0.0916 -0.3048
26787SOL    HW185208   7.722   7.721   9.667 -1.1232 -0.1312 -0.4434
26787SOL    HW285209   7.679   7.810   9.781 -0.1704  0.0246 -0.1999
26788SOL     OW85210   9.173   9.482   1.672  0.3626  0.1449 -0.6635
26788SOL    HW185211   9.120   9.403   1.658 -1.1270  0.7622  1.1958
26788SOL    HW285212   9.206   9.504   1.586 -1.3944 -1.0115 -1.6784
26789SOL     OW85213   6.166   7.684   2.196 -0.2893  0.3047 -0.5234
26789SOL    HW185214   6.253   7.666   2.161 -0.4798 -2.8321  0.4672
26789SOL    HW285215   6.111   7.695   2.118  0.2441 -1.6309 -1.1905
26790SOL     OW85216   9.418   8.555   0.374 -0.3114 -0.1599 -0.5209
26790SOL    HW185217   9.473   8.488   0.416  0.1328  0.8103  0.4852
26790SOL    HW285218   9.332   8.545   0.416 -0.3381 -0.3297 -0.6180
26791SOL     OW85219   7.050   0.154   9.146  0.2112  0.2153  0.0258
26791SOL    HW185220   7.005   0.072   9.124  0.0412  0.2659  0.1791
26791SOL    HW285221   7.111   0.168   9.074 -0.0838  0.1915 -0.2288
26792SOL     OW85222   9.488   8.361   0.567  0.0109 -0.0123 -0.6327
26792SOL    HW185223   9.557   8.294   0.562 -0.0763 -0.4995  2.9541
26792SOL    HW285224   9.407   8.311   0.569 -0.1656  0.2942  0.0366
26793SOL     OW85225   1.278   7.581   1.682 -0.4409 -0.3843 -1.0035
26793SOL    HW185226   1.366   7.570   1.718 -0.5466 -2.4315 -1.2851
26793SOL    HW285227   1.254   7.670   1.705  1.5919  0.1165 -0.6642
26794SOL     OW85228   5.644   9.007   2.051  0.3518 -0.4526  0.3891
26794SOL    HW185229   5.673   9.059   2.126 -0.1210  0.8234 -0.3017
26794SOL    HW285230   5.631   9.071   1.981 -3.2759 -1.0774  0.4205
26795SOL     OW85231   8.532   8.349   8.784  0.3881  0.3099 -0.5882
26795SOL    HW185232   8.470   8.276   8.791 -0.6513  1.3002  0.8014
26795SOL    HW285233   8.598   8.331   8.851 -0.7183  1.4318  0.8243
26796SOL     OW85234   8.997   7.428   9.821  0.5966  0.1349 -0.3742
26796SOL    HW185235   9.050   7.372   9.765  0.7715 -0.0476 -0.0238
26796SOL    HW285236   8.984   7.378   9.901 -0.5432 -0.0286 -0.6595
26797SOL     OW85237   9.153   8.222   0.891  0.3766  0.2479  0.2187
26797SOL    HW185238   9.221   8.154   0.895  0.2031  0.1422  1.9712
26797SOL    HW285239   9.199   8.303   0.910  0.7042  0.7407 -2.5494
26798SOL     OW85240   8.495   9.103   9.639 -0.1062 -0.0095 -0.1751
26798SOL    HW185241   8.571   9.068   9.685 -1.5663 -1.3219  1.3167
26798SOL    HW285242   8.515   9.196   9.626  0.9093  0.0899  1.9181
26799SOL     OW85243   8.935   9.932   1.232 -0.3969  0.1330  0.2006
26799SOL    HW185244   8.995   9.980   1.175 -1.4063  1.5569  0.3240
26799SOL    HW285245   8.974   9.844   1.239  0.6584  0.4698 -1.2474
26800SOL     OW85246   9.642   0.097   1.436  0.1820  0.4445  0.5114
26800SOL    HW185247   9.687   0.015   1.455 -2.3171 -1.1466 -0.2479
26800SOL    HW285248   9.637   0.142   1.521  2.4230  0.2910  0.7483
26801SOL     OW85249   0.363   9.610   1.175 -0.0180  0.1043 -0.3196
26801SOL    HW185250   0.443   9.638   1.219  0.6617 -1.0260 -0.8235
26801SOL    HW285251   0.323   9.548   1.236  0.7852 -1.2545 -1.1713
26802SOL     OW85252   0.810   9.962   0.479  0.1929  0.0951 -0.1863
26802SOL    HW185253   0.904   9.942   0.477  0.1031 -1.3374  3.9705
26802SOL    HW285254   0.803  10.036   0.540 -1.2809  0.9124 -1.3239
26803SOL     OW85255   7.844   5.922   0.772 -0.0791  0.1515  0.4940
26803SOL    HW185256   7.804   5.922   0.685 -0.0752 -0.4568  0.4870
26803SOL    HW285257   7.899   6.000   0.773 -1.9889  1.5378  0.8429
26804SOL     OW85258   9.508   8.391   9.693 -0.1500 -0.1345  0.2164
26804SOL    HW185259   9.592   8.397   9.737 -0.1324  0.0903  0.1525
26804SOL    HW285260   9.444   8.390   9.765 -0.1572  0.9100  0.2198
26805SOL     OW85261   8.620   6.770   1.982 -0.3263  0.5016  0.1905
26805SOL    HW185262   8.658   6.759   1.895 -0.8044  1.8110 -0.1998
26805SOL    HW285263   8.531   6.738   1.974  0.0305 -0.5784  0.5399
26806SOL     OW85264   9.069   7.327   0.738  0.1389 -0.1369 -0.8395
26806SOL    HW185265   9.139   7.262   0.749  0.4272  0.2040 -0.6826
26806SOL    HW285266   9.099   7.383   0.667 -0.3577 -0.4945 -1.3409
26807SOL     OW85267   9.123   7.680   0.779  0.3941 -0.1266  0.1263
26807SOL    HW185268   9.183   7.612   0.749  2.2669  1.8863 -0.8016
26807SOL    HW285269   9.036   7.643   0.764  1.3568 -2.4008 -0.1255
26808SOL     OW85270   8.840   7.615   0.506 -0.3021 -0.0883 -0.1834
26808SOL    HW185271   8.854   7.542   0.446 -0.0653  0.6288 -1.0077
26808SOL    HW285272   8.870   7.582   0.591 -0.5862 -1.0856 -0.4569
26809SOL     OW85273   9.688   7.752   1.400 -0.3437  0.5431 -0.1433
26809SOL    HW185274   9.761   7.815   1.407  0.4609 -0.5211  1.2767
26809SOL    HW285275   9.610   7.807   1.397  0.3640  1.6347  0.7756
26810SOL     OW85276   6.963   8.331   0.382  0.1834 -0.0016 -0.0093
26810SOL    HW185277   6.967   8.375   0.297  0.1606 -0.4576 -0.2451
26810SOL    HW285278   7.055   8.318   0.407  0.1990 -1.1591 -0.6313
26811SOL     OW85279   7.642   8.926   0.397  0.9837 -0.2180 -0.4504
26811SOL    HW185280   7.663   8.833   0.391 -0.6386 -0.6620  0.4013
26811SOL    HW285281   7.727   8.970   0.400  1.7702 -1.7759  0.6939
26812SOL     OW85282   7.905   8.388   9.789 -0.1419 -0.1761 -0.9080
26812SOL    HW185283   7.845   8.384   9.714 -0.1671 -2.0054 -0.8179
26812SOL    HW285284   7.988   8.358   9.754  0.2368  0.4518 -0.5531
26813SOL     OW85285   7.242   8.107   2.193 -0.2376  0.1873 -0.5041
26813SOL    HW185286   7.175   8.174   2.179 -0.8743  0.0867  1.9414
26813SOL    HW285287   7.192   8.029   2.219  0.7233 -0.2920 -0.0951
26814SOL     OW85288   8.093   8.997   1.601  0.5976  0.0024  0.0411
26814SOL    HW185289   8.031   8.972   1.532 -0.0951 -0.1706  0.7158
26814SOL    HW285290   8.068   9.087   1.624  0.4397 -0.1497  0.4774
26815SOL     OW85291   8.154   7.910   9.868  0.0753  0.6313 -0.4213
26815SOL    HW185292   8.232   7.963   9.853 -0.1382  1.1609  0.2725
26815SOL    HW285293   8.083   7.974   9.877 -0.0047  0.2955  1.5320
26816SOL     OW85294   7.899   9.277   0.759  0.5652  0.0063 -0.1001
26816SOL    HW185295   7.815   9.273   0.804  1.6402  0.1057  1.9843
26816SOL    HW285296   7.956   9.218   0.809  1.5284 -0.6326 -1.9314
26817SOL     OW85297   6.820   7.543   1.659 -0.0520  0.0745  0.0606
26817SOL    HW185298   6.837   7.637   1.651  0.2516 -0.2164 -3.4589
26817SOL    HW285299   6.892   7.501   1.612 -0.1398 -1.9365  1.6596
26818SOL     OW85300   0.509   8.913   1.742  0.9288 -0.1272 -0.0540
26818SOL    HW185301   0.599   8.916   1.711  0.9420  3.1126  0.1230
26818SOL    HW285302   0.518   8.899   1.837  1.1769 -0.9218 -0.1856
26819SOL     OW85303   9.322   8.421   2.015  0.5761 -0.1785 -0.2027
26819SOL    HW185304   9.332   8.325   2.018  1.0020 -0.0924  1.3218
26819SOL    HW285305   9.306   8.440   1.923 -1.1098 -1.8840 -0.2938
26820SOL     OW85306   7.969   9.332   0.478 -0.1416  0.4822  0.0201
26820SOL    HW185307   7.875   9.349   0.489 -0.5345 -0.4682 -1.5637
26820SOL    HW285308   7.984   9.248   0.522  0.1936  1.1340  1.1682
26821SOL     OW85309   9.401   9.366   1.782 -0.1957  0.4963 -0.3591
26821SOL    HW185310   9.333   9.430   1.758 -0.2201  0.6085  0.0087
26821SOL    HW285311   9.382   9.344   1.873  1.7051  2.3589  0.5413
26822SOL     OW85312   9.170   8.736   1.761  0.1841 -0.5072  0.1283
26822SOL    HW185313   9.226   8.713   1.687  0.4324  0.4200  0.0176
26822SOL    HW285314   9.214   8.811   1.802  0.8913 -1.9821  2.1671
26823SOL     OW85315   7.756   7.674   1.357 -0.4690 -0.1450 -0.2014
26823SOL    HW185316   7.773   7.654   1.265  2.0486  0.6766  0.0608
26823SOL    HW285317   7.711   7.596   1.391 -0.9474 -0.6560 -1.9672
26824SOL     OW85318   6.995   7.443   0.871  0.0358 -0.3690  0.0185
26824SOL    HW185319   7.078   7.463   0.914 -1.3487  1.9218  1.7369
26824SOL    HW285320   6.968   7.525   0.830 -0.6539 -1.4904 -1.8175
26825SOL     OW85321   6.872   8.210   8.602 -0.0429 -0.7974  0.4857
26825SOL    HW185322   6.818   8.280   8.636 -1.2993  1.2102 -5.0967
26825SOL    HW285323   6.810   8.146   8.567  1.1052 -0.5343 -2.1364
26826SOL     OW85324   6.893   0.115   9.811  0.1184 -0.2477 -0.3192
26826SOL    HW185325   6.946   0.145   9.737 -1.6445  1.4316 -0.9653
26826SOL    HW285326   6.957   0.092   9.878  1.7300 -0.8402 -1.9883
26827SOL     OW85327   6.932   9.795   1.467 -0.2794  0.0316  1.0041
26827SOL    HW185328   6.865   9.727   1.465 -0.6496  0.4143  0.3389
26827SOL    HW285329   6.959   9.805   1.376 -0.2027  0.7535  1.1026
26828SOL     OW85330   8.866   7.581   0.770  0.9738  0.3909 -0.0399
26828SOL    HW185331   8.827   7.495   0.784 -0.2133  0.6697 -1.4801
26828SOL    HW285332   8.817   7.639   0.828  1.7518  0.1173  0.9059
26829SOL     OW85333   7.130   8.018   1.012  0.3469 -0.1937 -0.4134
26829SOL    HW185334   7.147   8.043   1.103  0.2551  0.1457 -0.4875
26829SOL    HW285335   7.201   7.959   0.989  2.6640  2.9043 -1.4325
26830SOL     OW85336   8.774   7.991   0.270  0.2483 -0.3392  0.8368
26830SOL    HW185337   8.731   8.017   0.352 -0.3751  0.7416  0.1671
26830SOL    HW285338   8.859   7.957   0.299  0.3840  0.8308  1.8739
26831SOL     OW85339   8.926   8.098   1.320 -0.1675  0.1201  0.2104
26831SOL    HW185340   9.005   8.107   1.373 -0.6201 -2.0789  1.3267
26831SOL    HW285341   8.927   8.007   1.289 -2.5983 -0.1747  0.8442
26832SOL     OW85342   8.483   9.606   1.382  0.2148 -0.3214 -0.2861
26832SOL    HW185343   8.396   9.597   1.344 -0.8982 -0.4081  2.1635
26832SOL    HW285344   8.541   9.558   1.323 -1.5021 -0.8643 -1.5555
26833SOL     OW85345   8.863   8.307   1.870 -0.3699 -0.0366 -0.0433
26833SOL    HW185346   8.821   8.256   1.939 -0.2841  0.7699  0.6111
26833SOL    HW285347   8.929   8.359   1.915 -0.1733  0.3397 -0.7568
26834SOL     OW85348   7.928   8.563   1.984  0.4248  0.2328 -0.1415
26834SOL    HW185349   7.959   8.509   2.057  0.2581 -1.1160 -1.0574
26834SOL    HW285350   7.867   8.624   2.024  0.2799 -0.5498  0.8450
26835SOL     OW85351   0.725   8.479   1.224  0.1569  0.0929  0.1848
26835SOL    HW185352   0.782   8.454   1.298  3.2093 -0.5686 -2.2931
26835SOL    HW285353   0.699   8.396   1.185 -1.5365  0.4430  0.5116
26836SOL     OW85354   9.835   7.299   9.588  0.1465 -0.4375 -0.2381
26836SOL    HW185355   9.912   7.326   9.538  0.3769  0.8821  0.8051
26836SOL    HW285356   9.850   7.333   9.676 -1.4959 -0.4282  0.0553
26837SOL     OW85357   8.716   9.516   1.234 -0.0822 -0.2055  0.2334
26837SOL    HW185358   8.794   9.533   1.287  0.3206 -0.9793 -0.0986
26837SOL    HW285359   8.689   9.602   1.202  1.6422 -0.1234 -1.0561
26838SOL     OW85360   9.251   8.053   0.474  0.0673  0.3622  0.0928
26838SOL    HW185361   9.231   7.963   0.498 -0.3902  1.0513  2.3608
26838SOL    HW285362   9.303   8.045   0.394 -0.5184 -1.8721 -0.1072
26839SOL     OW85363   9.704   8.397   1.767 -0.4503  0.7208  0.0839
26839SOL    HW185364   9.663   8.383   1.681  1.9470  0.6731 -1.0960
26839SOL    HW285365   9.714   8.492   1.772 -0.2117  0.6935  0.1215
26840SOL     OW85366   8.013   8.205   0.660  0.3333 -0.6902 -0.3883
26840SOL    HW185367   8.021   8.150   0.581 -0.0985  1.6357 -2.1175
26840SOL    HW285368   7.921   8.197   0.684  1.0328 -3.6393  1.6375
26841SOL     OW85369   6.270   8.249   0.056  0.2266  0.1195 -0.3484
26841SOL    HW185370   6.297   8.230  -0.034 -0.8144 -2.4622 -0.1534
26841SOL    HW285371   6.348   8.287   0.096  1.6327 -1.3888 -1.5484
26842SOL     OW85372   9.226   8.573   0.560 -0.2610  0.1517  0.3385
26842SOL    HW185373   9.216   8.478   0.563 -1.6295 -0.0389 -5.1072
26842SOL    HW285374   9.146   8.607   0.599  0.2374 -0.8686  2.3314
26843SOL     OW85375   8.691   8.412   0.228 -0.7193  0.4051 -0.2915
26843SOL    HW185376   8.762   8.357   0.261 -0.6147 -0.0150 -1.1879
26843SOL    HW285377   8.611   8.373   0.263 -0.5560  0.4917  0.1823
26844SOL     OW85378   8.102   8.089   0.140 -0.3326  0.0728  0.1260
26844SOL    HW185379   8.184   8.049   0.169  1.2754  2.4323 -1.0189
26844SOL    HW285380   8.121   8.121   0.051 -2.2554  1.2766  0.1188
26845SOL     OW85381   7.661   8.445   2.243  0.0109  0.1529 -0.1993
26845SOL    HW185382   7.649   8.536   2.269  0.7926 -0.1210  1.1273
26845SOL    HW285383   7.732   8.448   2.178 -0.9697  0.6525 -1.2713
26846SOL     OW85384   7.165   0.989   0.474  0.1942 -0.1071  0.5310
26846SOL    HW185385   7.200   0.963   0.389 -0.9296  0.1354 -0.0291
26846SOL    HW285386   7.211   0.935   0.537  3.0270  1.6345  0.0179
26847SOL     OW85387   9.899   6.052   1.341  0.2688 -0.0320  0.7158
26847SOL    HW185388   9.867   5.984   1.400 -0.8063  0.3507  0.5786
26847SOL    HW285389   9.837   6.124   1.350 -1.0554 -0.7194 -2.3099
26848SOL     OW85390   8.783   7.316   0.821 -0.8947  0.6244  0.5030
26848SOL    HW185391   8.875   7.301   0.799 -1.4689 -0.1494 -1.5006
26848SOL    HW285392   8.770   7.269   0.903  0.9754  2.3932  1.8522
26849SOL     OW85393   8.334   7.933   1.838 -0.0850  0.3160 -0.0333
26849SOL    HW185394   8.337   7.884   1.920  1.7402  1.0786  0.3848
26849SOL    HW285395   8.390   8.009   1.853 -0.2726  0.8278 -1.7597
26850SOL     OW85396   9.432   9.441   0.165  0.0824  0.4036 -0.2372
26850SOL    HW185397   9.515   9.403   0.138 -0.4592 -1.5291  0.7151
26850SOL    HW285398   9.439   9.448   0.260 -0.4212  1.2846 -0.2613
26851SOL     OW85399   7.336   8.894   8.368 -0.3592  0.2487 -0.2334
26851SOL    HW185400   7.417   8.932   8.335 -0.0895 -0.6560 -0.6257
26851SOL    HW285401   7.335   8.805   8.333 -1.3953  0.1689 -0.0185
26852SOL     OW85402   0.642   8.043   0.870 -0.2102  0.0275  0.3841
26852SOL    HW185403   0.560   7.996   0.855  0.4545 -0.3369 -2.3391
26852SOL    HW285404   0.710   7.979   0.848  0.8057  0.6379  1.7089
26853SOL     OW85405   0.236   8.568   9.264  0.6343  0.1168 -0.1619
26853SOL    HW185406   0.172   8.581   9.334 -0.2339 -0.9636 -0.7327
26853SOL    HW285407   0.295   8.500   9.298  0.9824  0.5213  0.0385
26854SOL     OW85408   9.741   8.238   0.646 -0.0109 -0.7341 -0.4624
26854SOL    HW185409   9.820   8.263   0.695 -0.4037  0.2632 -0.3191
26854SOL    HW285410   9.769   8.166   0.589  1.5453  1.0453 -1.9989
26855SOL     OW85411   8.178   9.576   1.578  0.8976  0.1591  0.6661
26855SOL    HW185412   8.175   9.661   1.536 -0.6122 -0.6609 -0.9377
26855SOL    HW285413   8.090   9.562   1.613  0.8387 -1.1572  0.0459
26856SOL     OW85414   0.660   8.342   2.917  0.0816 -0.0170 -0.3605
26856SOL    HW185415   0.581   8.366   2.869 -0.5476 -0.3447  0.4919
26856SOL    HW285416   0.632   8.340   3.009  1.3374  0.9008  0.0556
26857SOL     OW85417   9.644   7.856   0.071  0.8729 -0.0724  0.1391
26857SOL    HW185418   9.702   7.878   0.144 -0.0027 -1.2164  1.1892
26857SOL    HW285419   9.678   7.772   0.038  0.4150 -0.2505  0.1196
26858SOL     OW85420   9.330   9.478   1.178 -0.3461 -0.2171 -0.3760
26858SOL    HW185421   9.340   9.567   1.211  1.4815 -0.7910  0.6821
26858SOL    HW285422   9.270   9.486   1.103 -2.1172  1.5228  1.1968
26859SOL     OW85423   9.946   8.426   9.618  0.0304  0.3197 -0.5241
26859SOL    HW185424   9.883   8.353   9.619 -0.8222  1.0571  0.0717
26859SOL    HW285425  10.027   8.386   9.587 -0.1723 -1.0912  0.7029
26860SOL     OW85426   6.870   6.534   1.928 -0.6611 -0.7264  0.2782
26860SOL    HW185427   6.877   6.444   1.959  1.1747 -1.4246 -2.0208
26860SOL    HW285428   6.932   6.540   1.855 -2.3353  1.7852 -1.0316
26861SOL     OW85429   0.557   7.713   1.778  0.5410 -0.2798 -0.4144
26861SOL    HW185430   0.582   7.704   1.686 -0.2243 -1.4583 -0.5148
26861SOL    HW285431   0.558   7.808   1.793  0.5056 -0.0619 -1.6942
26862SOL     OW85432   6.621   8.565   0.001  0.3992  0.2644  0.1043
26862SOL    HW185433   6.678   8.499   0.039  0.1851  0.5609  0.9542
26862SOL    HW285434   6.670   8.600  -0.073 -0.4887 -2.5956 -1.9155
26863SOL     OW85435   6.121   7.912   1.375  0.6468  0.4588 -0.7462
26863SOL    HW185436   6.156   8.000   1.387  1.4717  0.5403 -3.5912
26863SOL    HW285437   6.060   7.919   1.301 -1.2204 -0.8588  0.5861
26864SOL     OW85438   9.439   7.876   1.426  0.4240 -0.3252  0.2194
26864SOL    HW185439   9.354   7.918   1.439 -0.8157 -2.6978  0.1258
26864SOL    HW285440   9.476   7.867   1.514  0.1987 -0.0668  0.3404
26865SOL     OW85441   6.421   7.666   1.749  0.5414  0.0801  1.0273
26865SOL    HW185442   6.492   7.601   1.744  0.4913  0.1487 -1.4627
26865SOL    HW285443   6.419   7.705   1.661 -0.2427  2.5995  2.1186
26866SOL     OW85444   7.167   8.955   0.212 -0.4618  0.2103  0.4818
26866SOL    HW185445   7.102   8.969   0.143 -1.4078  0.4176  1.4013
26866SOL    HW285446   7.159   9.032   0.267 -0.3642 -0.3922  1.3416
26867SOL     OW85447   7.867   8.257   2.414  0.1794 -0.4373  0.1960
26867SOL    HW185448   7.904   8.293   2.495  2.1909  0.1431 -0.9294
26867SOL    HW285449   7.873   8.162   2.425 -0.5333 -0.3773  1.1479
26868SOL     OW85450   9.089   9.475   1.024 -0.3447 -0.2044 -0.2603
26868SOL    HW185451   8.996   9.494   1.034 -0.1465  1.3417 -1.2296
26868SOL    HW285452   9.092   9.398   0.967 -1.0190  0.1705 -0.8117
26869SOL     OW85453   8.795   8.716   2.344  0.2904 -0.1160  0.1559
26869SOL    HW185454   8.820   8.784   2.282 -2.4709  0.3151 -0.5672
26869SOL    HW285455   8.850   8.731   2.421  1.6702  1.1698 -1.0489
26870SOL     OW85456   9.917   8.940   9.785 -0.2806 -0.1583  0.1429
26870SOL    HW185457   9.934   8.965   9.694  0.5623 -1.0985  0.0324
26870SOL    HW285458   9.858   8.866   9.779  1.0557 -1.2505  0.2979
26871SOL     OW85459   8.040   7.172   0.981 -0.3339  0.2544  0.6740
26871SOL    HW185460   8.095   7.114   0.929 -1.6141 -0.8623  0.5118
26871SOL    HW285461   7.997   7.229   0.917 -2.0855 -1.2735  0.4543
26872SOL     OW85462   8.172   7.576   0.813  0.6214  0.2860 -0.4413
26872SOL    HW185463   8.076   7.578   0.811  0.6425  0.8857 -0.8370
26872SOL    HW285464   8.193   7.572   0.906  0.1918 -1.0180 -0.3886
26873SOL     OW85465   8.363   8.151   2.226 -0.3577  0.1999 -0.1268
26873SOL    HW185466   8.295   8.094   2.262 -0.3924  1.5852  2.1051
26873SOL    HW285467   8.317   8.232   2.205  0.5130  1.0153  1.0557
26874SOL     OW85468   9.132   4.965   0.677  0.2896  0.0100 -0.2132
26874SOL    HW185469   9.113   5.023   0.750  0.5420  0.6819 -0.6793
26874SOL    HW285470   9.175   4.889   0.717  0.7640  0.5447  0.2856
26875SOL     OW85471   8.640   7.792   0.616 -0.2157 -0.0587  0.0814
26875SOL    HW185472   8.692   7.731   0.565  0.1806 -0.7347  1.2835
26875SOL    HW285473   8.700   7.826   0.682 -0.6657  0.9613 -0.0253
26876SOL     OW85474   0.073   7.488   9.249 -0.6099  0.1369 -0.2524
26876SOL    HW185475   0.072   7.453   9.338 -0.9925 -2.0537 -1.0687
26876SOL    HW285476  -0.006   7.543   9.244  0.4400  1.8338  1.3153
26877SOL     OW85477   9.917   8.423   0.742  0.3759 -0.6327 -0.1275
26877SOL    HW185478   9.914   8.417   0.646 -1.7906  0.1895 -0.1323
26877SOL    HW285479   9.984   8.488   0.760  0.4254 -0.4029 -1.1020
26878SOL     OW85480   7.458   7.715   1.838 -0.8550 -0.0974  0.3111
26878SOL    HW185481   7.547   7.680   1.834 -1.1510 -0.9457  0.9723
26878SOL    HW285482   7.470   7.807   1.862 -0.1442 -0.1070  0.0140
26879SOL     OW85483   7.470   8.325   0.610  0.0874  0.8498 -0.2202
26879SOL    HW185484   7.510   8.239   0.622  0.8588  1.5876  2.7598
26879SOL    HW285485   7.376   8.308   0.612  0.2354  0.1128  0.7547
26880SOL     OW85486   8.816   7.958   0.761  0.0433 -0.4213  0.4461
26880SOL    HW185487   8.909   7.952   0.738  0.1718  1.7849  0.3329
26880SOL    HW285488   8.815   7.996   0.849 -0.7444 -1.2884  0.8263
26881SOL     OW85489   7.613   8.442   1.307  0.0935  0.0936  0.3944
26881SOL    HW185490   7.619   8.350   1.281 -3.8115 -0.2635  0.3932
26881SOL    HW285491   7.589   8.489   1.226 -1.3069  0.5585  1.0505
26882SOL     OW85492   6.755   6.241   9.886  0.2584  0.3743  0.7113
26882SOL    HW185493   6.778   6.331   9.862  0.1031 -0.0670 -1.1593
26882SOL    HW285494   6.707   6.250   9.968 -0.6499  2.0905  0.0211
26883SOL     OW85495   8.727   8.185   9.842  0.2357 -0.2048 -0.0728
26883SOL    HW185496   8.664   8.179   9.914  1.6716  0.7323  1.2912
26883SOL    HW285497   8.772   8.100   9.844 -1.9891 -1.4874 -2.0484
26884SOL     OW85498   7.427   8.239   9.934  0.0262 -0.1189  0.4000
26884SOL    HW185499   7.346   8.189   9.935 -1.0066  1.4472 -1.2843
26884SOL    HW285500   7.470   8.214   9.852  0.4771  0.2328  0.5259
26885SOL     OW85501   9.762   7.908   1.758  0.5579 -0.2935 -0.2023
26885SOL    HW185502   9.837   7.968   1.755 -1.5644  2.7538  3.1570
26885SOL    HW285503   9.693   7.954   1.710 -0.3995 -1.1006  0.3810
26886SOL     OW85504   8.660   9.002   2.442 -0.0069  0.3093  0.4448
26886SOL    HW185505   8.710   8.941   2.496  1.9521  0.4726 -1.1405
26886SOL    HW285506   8.719   9.077   2.430 -0.4761  0.3629 -1.7158
26887SOL     OW85507   7.669   7.445   2.498 -0.4827 -0.2960  0.0204
26887SOL    HW185508   7.646   7.444   2.591 -1.3448  0.4509 -0.1805
26887SOL    HW285509   7.747   7.500   2.493 -1.4538  1.1189  0.0810
26888SOL     OW85510   0.266   8.878   9.276 -0.4827  0.1760  0.2622
26888SOL    HW185511   0.176   8.910   9.274 -0.7208 -0.5602 -0.5514
26888SOL    HW285512   0.259   8.786   9.301  0.0137 -0.0094 -0.2765
26889SOL     OW85513   0.821   7.738   1.238 -0.1230  0.2687  0.2635
26889SOL    HW185514   0.791   7.671   1.177  2.0525 -0.3130 -0.2009
26889SOL    HW285515   0.863   7.804   1.183  2.7092 -0.7138  1.1336
26890SOL     OW85516   9.332   9.793   1.627  0.1642  0.3217  0.7667
26890SOL    HW185517   9.277   9.819   1.701  0.9451  2.9882  0.4986
26890SOL    HW285518   9.420   9.791   1.663  0.1555 -1.8882  0.7087
26891SOL     OW85519   7.567   9.265   0.169 -0.4515  0.0021 -0.4750
26891SOL    HW185520   7.651   9.219   0.168  0.3283  1.3879 -0.0700
26891SOL    HW285521   7.508   9.207   0.217  0.9028  0.0574  1.3188
26892SOL     OW85522   8.878   5.658   0.978 -0.0620  0.6888  0.2869
26892SOL    HW185523   8.812   5.595   0.951  1.0051  0.0910 -0.9720
26892SOL    HW285524   8.944   5.655   0.909  0.5456  2.3723  0.7746
26893SOL     OW85525   8.935   7.952   1.851  0.0402 -0.1502 -0.2478
26893SOL    HW185526   8.878   7.924   1.779  1.0326 -0.5849 -0.8869
26893SOL    HW285527   8.946   7.874   1.905  0.1370 -0.1161 -0.2167
26894SOL     OW85528   7.920   0.128   0.513  0.0851 -0.8480  0.0904
26894SOL    HW185529   7.920   0.076   0.594  0.5220 -2.8179 -1.1216
26894SOL    HW285530   8.009   0.117   0.478  0.0445  0.3744 -0.4092
26895SOL     OW85531   9.262   9.138   1.368  0.1720  0.0623  0.0760
26895SOL    HW185532   9.272   9.069   1.302 -0.1748 -0.4778  0.5857
26895SOL    HW285533   9.348   9.180   1.371  0.8037 -1.2439  0.7556
26896SOL     OW85534   9.104   8.286   1.200 -0.4514  0.1619  0.0254
26896SOL    HW185535   9.029   8.227   1.209 -1.4013  0.7641 -3.2536
26896SOL    HW285536   9.064   8.373   1.189  0.8148  0.8566  0.8099
26897SOL     OW85537   9.568   7.372   1.607 -0.5881 -0.3718  0.1841
26897SOL    HW185538   9.548   7.326   1.527  1.4015  0.2879 -0.7343
26897SOL    HW285539   9.634   7.318   1.651 -0.7845 -0.1311  0.7938
26898SOL     OW85540   9.336   8.411   0.915  0.2025 -0.1688 -0.5014
26898SOL    HW185541   9.397   8.387   0.984  0.1065  1.1391  0.0585
26898SOL    HW285542   9.304   8.498   0.941 -1.4757 -0.5990 -1.0582
26899SOL     OW85543   8.543   8.989   1.062 -0.3010  0.1898  0.3564
26899SOL    HW185544   8.453   8.997   1.094  0.0471  3.1614  0.7414
26899SOL    HW285545   8.547   9.047   0.986  1.1362 -0.3867 -0.0242
26900SOL     OW85546   9.827   8.778   2.016  0.3082  0.0140  0.2044
26900SOL    HW185547   9.846   8.852   2.074 -0.5285  1.8539 -1.8070
26900SOL    HW285548   9.733   8.763   2.028  0.5838 -1.1101  1.0207
26901SOL     OW85549   7.926   7.753   9.418 -0.1509  0.2418  0.0492
26901SOL    HW185550   7.880   7.698   9.355 -2.6537  1.2008  0.9695
26901SOL    HW285551   7.878   7.836   9.416  1.6272  1.3138  0.9821
26902SOL     OW85552   0.520   7.821   0.607 -0.0032  0.2964 -0.3140
26902SOL    HW185553   0.489   7.827   0.698  1.7071 -0.8134  0.3648
26902SOL    HW285554   0.596   7.763   0.611  0.3739  0.5979 -2.4030
26903SOL     OW85555   7.805   8.474   0.906  0.5568  0.2758  0.2563
26903SOL    HW185556   7.819   8.543   0.971  1.1380 -0.4786  0.9423
26903SOL    HW285557   7.883   8.419   0.913  0.8715  0.4819 -1.4511
26904SOL     OW85558   8.170   6.667   2.075 -0.3419  0.2216  0.3769
26904SOL    HW185559   8.251   6.617   2.065 -0.6633 -0.5351  1.4493
26904SOL    HW285560   8.136   6.676   1.987  0.3254 -0.4513  0.0482
26905SOL     OW85561   7.963   0.047   1.872 -0.5767 -0.4149 -0.3644
26905SOL    HW185562   8.056   0.059   1.854 -0.1136 -0.0338  2.0669
26905SOL    HW285563   7.928   0.136   1.876 -1.0051 -0.5529 -1.0897
26906SOL     OW85564   7.022   9.194   9.808 -0.2296 -0.3154  0.1172
26906SOL    HW185565   6.959   9.210   9.738 -1.2194 -1.6481  0.6876
26906SOL    HW285566   6.997   9.256   9.877 -0.6362 -0.5300  0.1640
26907SOL     OW85567   7.746   8.167   0.993 -0.7446 -0.0051  1.0843
26907SOL    HW185568   7.781   8.170   0.903 -0.0151  0.8889  1.3945
26907SOL    HW285569   7.651   8.167   0.982 -0.6685  1.6513  0.3615
26908SOL     OW85570   7.103   8.501   0.178 -0.0064  0.8290 -0.7818
26908SOL    HW185571   7.058   8.509   0.093  0.3483  0.1368 -1.0335
26908SOL    HW285572   7.196   8.509   0.156  0.0814  0.7152 -0.4418
26909SOL     OW85573   7.862   8.662   1.672  0.2742 -0.3949 -1.3631
26909SOL    HW185574   7.799   8.733   1.687  0.2686 -0.9652  1.6340
26909SOL    HW285575   7.810   8.594   1.628 -1.0671 -0.5231  0.3227
26910SOL     OW85576   9.653   9.660   0.371  0.2446  0.4171  0.2631
26910SOL    HW185577   9.729   9.614   0.408  2.8102  3.2214 -1.3002
26910SOL    HW285578   9.683   9.689   0.285 -1.9683  3.1832  0.3654
26911SOL     OW85579   8.230   8.821   9.927 -0.1103  0.5198 -0.6394
26911SOL    HW185580   8.202   8.748   9.873  0.9654  0.2564 -0.8444
26911SOL    HW285581   8.294   8.784   9.988 -0.9951  0.8967  0.5425
26912SOL     OW85582   6.860   7.782   0.624 -0.3802  0.0146  0.3941
26912SOL    HW185583   6.900   7.867   0.638  0.6546 -0.3731 -0.1385
26912SOL    HW285584   6.809   7.766   0.703 -2.0232  1.8983 -0.2505
26913SOL     OW85585   7.930   0.597   0.355  0.4233 -0.7169  0.2852
26913SOL    HW185586   7.854   0.654   0.363  1.2219  0.6469 -1.4766
26913SOL    HW285587   7.916   0.550   0.273  1.8997  0.2454 -0.5509
26914SOL     OW85588   8.449   6.768   0.309  0.8471 -0.0253 -0.1945
26914SOL    HW185589   8.465   6.743   0.218 -0.9979 -0.4355 -0.4434
26914SOL    HW285590   8.387   6.841   0.302  1.4801  0.6015  0.7088
26915SOL     OW85591   9.637   8.670   1.488 -0.4220  0.1169 -0.0097
26915SOL    HW185592   9.710   8.647   1.430 -0.8633 -0.1974 -0.4445
26915SOL    HW285593   9.675   8.668   1.576 -0.6186 -3.1531  0.0842
26916SOL     OW85594   8.822   9.116   0.934 -0.3907  0.1226 -0.6047
26916SOL    HW185595   8.773   9.152   0.860  1.1928  1.0288 -1.2322
26916SOL    HW285596   8.806   9.176   1.005  1.9779  1.9704 -1.5607
26917SOL     OW85597   7.912   8.863   1.354 -0.2772  0.2802  0.4576
26917SOL    HW185598   7.873   8.934   1.302  0.3135  1.6436  1.8372
26917SOL    HW285599   7.838   8.822   1.398 -0.5984  0.1707 -0.1696
26918SOL     OW85600   8.705   8.429   0.707 -0.4498 -0.0015 -0.2402
26918SOL    HW185601   8.667   8.500   0.760  0.4049 -0.6557  1.2723
26918SOL    HW285602   8.643   8.357   0.716  0.2289 -0.4725  0.7678
26919SOL     OW85603   7.672   7.454   0.712  0.0035 -0.3497 -0.0162
26919SOL    HW185604   7.592   7.505   0.726 -0.4586 -0.9412 -0.4852
26919SOL    HW285605   7.659   7.413   0.627 -0.4527 -2.8304  1.2282
26920SOL     OW85606   7.684   0.228   9.781 -0.1570 -0.0654 -0.6310
26920SOL    HW185607   7.669   0.312   9.826 -1.5182 -0.9054  0.5315
26920SOL    HW285608   7.678   0.250   9.688 -1.5641  0.9660 -0.3195
26921SOL     OW85609   8.373   9.878   0.326 -0.7086 -0.3820 -0.2660
26921SOL    HW185610   8.394   9.833   0.408 -0.2911  0.0433 -0.1389
26921SOL    HW285611   8.404   9.818   0.258  0.2596 -0.0937 -0.0915
26922SOL     OW85612   8.684   6.665   9.957  0.6658  0.6083  0.2965
26922SOL    HW185613   8.735   6.590   9.988 -1.4329 -0.1274  2.0902
26922SOL    HW285614   8.651   6.638   9.871  2.2384  0.5931 -0.3049
26923SOL     OW85615   6.952   8.031   1.461 -0.5478 -0.3947 -0.4312
26923SOL    HW185616   7.024   8.025   1.398  0.9602  0.6339  1.1683
26923SOL    HW285617   6.913   8.116   1.445 -0.2614 -0.1972 -0.0901
26924SOL     OW85618   8.828   0.388   9.093  0.7043  0.1297 -0.0183
26924SOL    HW185619   8.884   0.400   9.170  1.4588 -0.3505 -0.4871
26924SOL    HW285620   8.749   0.346   9.127  0.1038  1.8967  0.8440
26925SOL     OW85621   8.730   8.407   1.037  0.1382  0.1206 -0.5457
26925SOL    HW185622   8.678   8.487   1.044 -0.0741 -0.0146 -0.5650
26925SOL    HW285623   8.821   8.436   1.038  0.0561  0.3943 -0.9613
26926SOL     OW85624   8.823   8.817   8.189 -0.0032  0.3458 -0.1407
26926SOL    HW185625   8.869   8.836   8.271  0.0530 -1.8706  0.3587
26926SOL    HW285626   8.888   8.773   8.135 -0.4510  0.5725 -0.8746
26927SOL     OW85627   0.369   9.666   0.907 -0.8847  0.6286  0.1428
26927SOL    HW185628   0.295   9.607   0.896  0.6753 -1.2209 -0.7806
26927SOL    HW285629   0.387   9.665   1.001 -0.5406 -0.7991  0.0667
26928SOL     OW85630   9.701   7.307   2.143  0.1113 -0.4460  0.0344
26928SOL    HW185631   9.665   7.392   2.169  1.3851  0.8737 -2.4345
26928SOL    HW285632   9.795   7.321   2.139  0.1522 -1.3249 -2.6516
26929SOL     OW85633   0.389   8.720   2.034 -0.2652 -0.7723  0.4341
26929SOL    HW185634   0.466   8.766   2.000  0.2326 -0.4166  1.9920
26929SOL    HW285635   0.343   8.786   2.086 -1.0722 -1.2752  0.3761
26930SOL     OW85636   7.576   6.769   9.918 -0.0865  0.3944  0.1484
26930SOL    HW185637   7.585   6.757  10.012 -0.3845  1.7737  0.3660
26930SOL    HW285638   7.525   6.694   9.889  0.8976 -0.5848  0.9196
26931SOL     OW85639   7.892   7.637   1.094  0.1759  0.1487  0.0086
26931SOL    HW185640   7.879   7.609   1.003 -0.4507 -0.5888  0.3221
26931SOL    HW285641   7.916   7.729   1.087  0.4718  0.0101 -0.9285
26932SOL     OW85642   7.677   7.773   0.522  0.1294 -0.0014  0.1219
26932SOL    HW185643   7.762   7.781   0.479  0.6776  0.6584  1.2938
26932SOL    HW285644   7.692   7.809   0.610 -1.1005 -0.8172  0.6680
26933SOL     OW85645   8.397   8.338   1.902  0.5224  0.0320 -0.4720
26933SOL    HW185646   8.307   8.321   1.928  0.3885  2.4300  0.8029
26933SOL    HW285647   8.448   8.268   1.943 -0.6575 -0.8445 -0.5116
26934SOL     OW85648   7.620   9.473   8.894 -0.2473  0.2193 -0.4603
26934SOL    HW185649   7.585   9.495   8.808 -1.6173  0.0094  0.0431
26934SOL    HW285650   7.668   9.551   8.922 -2.2945  1.3701 -0.1153
26935SOL     OW85651   7.093   7.759   1.919 -0.3326  0.6479  0.4753
26935SOL    HW185652   7.162   7.800   1.866  0.3626 -0.0222  0.8505
26935SOL    HW285653   7.013   7.806   1.895 -0.1212  0.0374 -1.5196
26936SOL     OW85654   8.022   5.974   2.921  0.4239  0.4109 -0.1969
26936SOL    HW185655   8.050   5.885   2.944  1.0094 -0.0561 -2.5708
26936SOL    HW285656   8.103   6.025   2.922  0.2718  0.6478 -0.0845
26937SOL     OW85657   7.223   7.476   0.060  0.4677  0.2433  0.1232
26937SOL    HW185658   7.260   7.462   0.147 -0.5070 -0.2608  0.4568
26937SOL    HW285659   7.205   7.388   0.027 -0.3303  0.4755 -0.0737
26938SOL     OW85660   9.744   8.052   9.887 -0.2897  0.5975 -0.6259
26938SOL    HW185661   9.694   7.972   9.877 -0.6673  0.8014 -0.3746
26938SOL    HW285662   9.805   8.035   9.959  1.4288 -0.3656 -2.2469
26939SOL     OW85663   7.899   6.280   1.044 -0.3308 -0.3810  0.1824
26939SOL    HW185664   7.978   6.290   1.097  0.8572  1.8316 -1.9339
26939SOL    HW285665   7.836   6.339   1.085 -0.0306 -0.1125  0.2586
26940SOL     OW85666   8.557   9.372   9.637  0.2827 -0.4636 -0.4914
26940SOL    HW185667   8.527   9.437   9.574 -3.6806  0.4141  2.1509
26940SOL    HW285668   8.604   9.423   9.704  1.1553 -0.9297 -0.7360
26941SOL     OW85669   9.187   8.399   1.490 -0.5415 -0.1137 -0.1604
26941SOL    HW185670   9.147   8.485   1.500 -0.1407 -0.0275  0.7327
26941SOL    HW285671   9.184   8.382   1.396 -0.8287  0.7718 -0.3169
26942SOL     OW85672   9.586   8.689   0.149  0.6251 -0.3172  0.3180
26942SOL    HW185673   9.535   8.630   0.205  1.7854  0.4007  2.1528
26942SOL    HW285674   9.671   8.646   0.139 -0.1046 -1.2543 -2.3150
26943SOL     OW85675   7.507   6.873   0.379 -0.1631  0.4429  0.9271
26943SOL    HW185676   7.602   6.874   0.365 -0.3891 -1.4815 -1.0500
26943SOL    HW285677   7.491   6.792   0.429 -0.7617  0.8026  1.3295
26944SOL     OW85678   9.268   9.482   2.517 -0.9072  0.0439 -0.2052
26944SOL    HW185679   9.192   9.435   2.552 -2.7824  1.6411 -2.0073
26944SOL    HW285680   9.234   9.568   2.491  1.4960  0.7653 -1.1677
26945SOL     OW85681   8.943   9.201   9.573  0.6203  0.0254  0.0971
26945SOL    HW185682   9.022   9.180   9.524 -0.2646  1.5394 -2.0531
26945SOL    HW285683   8.913   9.285   9.537 -1.1364  0.2404  1.9120
26946SOL     OW85684   9.401   8.748   1.619  0.4477  0.5364 -0.2092
26946SOL    HW185685   9.435   8.800   1.692  0.7612 -1.0560  0.8299
26946SOL    HW285686   9.478   8.700   1.586 -0.1381 -0.5737 -0.0032
26947SOL     OW85687   8.194   7.530   0.313 -0.2906  0.0942 -0.0739
26947SOL    HW185688   8.153   7.589   0.377 -0.6197  1.2001 -1.2716
26947SOL    HW285689   8.158   7.444   0.333 -1.1892  0.6128  0.5826
26948SOL     OW85690   8.126   7.146   9.462  0.1329 -0.3431 -0.0521
26948SOL    HW185691   8.040   7.122   9.427 -0.2117 -0.4766  0.8597
26948SOL    HW285692   8.187   7.128   9.391 -0.4034 -1.7576 -0.1654
26949SOL     OW85693   9.795   7.491   1.399  0.4508  0.1904 -0.4687
26949SOL    HW185694   9.816   7.505   1.491  0.8570 -2.0927 -0.1918
26949SOL    HW285695   9.746   7.570   1.373  0.5265  0.9440  1.6197
26950SOL     OW85696   8.202   8.236   9.918 -0.1576  0.0650 -0.3628
26950SOL    HW185697   8.193   8.320   9.962 -1.8682 -0.0204 -0.5361
26950SOL    HW285698   8.199   8.257   9.825 -0.1311 -0.1492 -0.4122
26951SOL     OW85699   7.300   9.485   0.481  0.0107  0.8896 -0.3397
26951SOL    HW185700   7.371   9.546   0.501  0.6967 -0.0616  0.1361
26951SOL    HW285701   7.329   9.439   0.403 -0.5706  1.2545 -0.7782
26952SOL     OW85702   8.324   9.253   0.724  0.4524  0.8241 -0.2623
26952SOL    HW185703   8.399   9.203   0.756  0.1294 -0.0975 -0.9347
26952SOL    HW285704   8.299   9.210   0.642  0.5559  2.4818 -1.1816
26953SOL     OW85705   7.514   8.222   0.288 -0.4384 -0.4252  0.2272
26953SOL    HW185706   7.549   8.261   0.207 -1.0612  0.4620  0.3801
26953SOL    HW285707   7.586   8.231   0.351 -0.8611  1.3094  0.5113
26954SOL     OW85708   9.665   7.671   0.573  0.2279  0.3577  0.1428
26954SOL    HW185709   9.737   7.630   0.525  0.6498  1.6748 -0.3785
26954SOL    HW285710   9.683   7.652   0.665  0.7214 -0.1300 -0.0527
26955SOL     OW85711   8.082   8.099   0.948  0.2322  0.0996 -0.5522
26955SOL    HW185712   8.167   8.057   0.965 -0.6273 -2.2239 -1.7505
26955SOL    HW285713   8.096   8.149   0.868  2.0092  4.4721  2.2699
26956SOL     OW85714   8.475   9.402   3.174 -0.3912 -0.0344 -0.7416
26956SOL    HW185715   8.426   9.320   3.178  0.3279 -0.4383 -0.1047
26956SOL    HW285716   8.446   9.452   3.250  0.6482 -0.5439  0.0016
26957SOL     OW85717   8.686   8.141   0.484  0.2262 -0.1364 -0.1895
26957SOL    HW185718   8.717   8.085   0.555  1.4962  1.6567  0.7277
26957SOL    HW285719   8.601   8.174   0.514  0.4462  0.0707  0.2167
26958SOL     OW85720   7.046   7.579   8.475  0.3535  0.2732 -0.1244
26958SOL    HW185721   7.138   7.579   8.502 -0.4552  1.5853  2.8726
26958SOL    HW285722   7.003   7.525   8.541 -0.9462 -1.0686 -2.0150
26959SOL     OW85723   8.145   7.338   1.722 -0.0310  0.2504  0.0795
26959SOL    HW185724   8.235   7.363   1.744  0.4189  2.1401 -3.4622
26959SOL    HW285725   8.153   7.292   1.639 -2.3757  1.1193 -0.6639
26960SOL     OW85726   7.447   6.384   2.139  0.8214  0.3076 -0.3809
26960SOL    HW185727   7.376   6.401   2.200  0.3524  0.9434 -1.0992
26960SOL    HW285728   7.509   6.330   2.188 -0.8957 -1.5778 -0.2705
26961SOL     OW85729   0.029   8.490   1.853  0.2548  0.2486 -0.4446
26961SOL    HW185730   0.081   8.549   1.799  0.1405 -0.6025 -1.5144
26961SOL    HW285731  -0.028   8.444   1.790 -0.5722 -0.0572  0.5098
26962SOL     OW85732   7.926   8.177   9.251 -0.5609 -0.3572 -0.0275
26962SOL    HW185733   7.962   8.136   9.330 -0.9291 -0.5963  0.0193
26962SOL    HW285734   7.837   8.141   9.244 -2.1397  2.9560  1.8850
26963SOL     OW85735   9.276   9.867   2.207  0.0030  0.0457  0.2935
26963SOL    HW185736   9.207   9.803   2.190  2.7711 -3.5035  1.6371
26963SOL    HW285737   9.334   9.861   2.131  0.5329  0.5933  0.6507
26964SOL     OW85738   8.651   7.645   0.962 -0.2247  0.2161 -0.2817
26964SOL    HW185739   8.701   7.582   1.014  1.1174 -0.7495 -2.6380
26964SOL    HW285740   8.577   7.594   0.929 -0.6445  0.6200  0.0343
26965SOL     OW85741   8.763   6.687   1.472 -0.1534 -0.5733 -0.1365
26965SOL    HW185742   8.840   6.737   1.445 -0.3186 -0.8147 -1.0711
26965SOL    HW285743   8.797   6.601   1.496 -0.2748 -1.0679 -1.7085
26966SOL     OW85744   6.721   9.096   2.153 -0.2202 -0.3658 -0.0375
26966SOL    HW185745   6.733   9.107   2.247  0.0349  2.5621 -0.3882
26966SOL    HW285746   6.805   9.061   2.122 -0.0384 -0.5794  0.6701
26967SOL     OW85747   8.932   8.851   0.016 -0.3229  0.0844  0.5371
26967SOL    HW185748   8.913   8.769   0.061  0.1616  0.4300  1.3804
26967SOL    HW285749   8.952   8.825  -0.074 -0.3992 -0.6892  0.7388
26968SOL     OW85750   8.369   5.605   1.099 -0.4358  0.0237 -0.2304
26968SOL    HW185751   8.296   5.545   1.098  0.2529 -0.8225 -0.1547
26968SOL    HW285752   8.371   5.641   1.010 -0.6092 -0.3514 -0.3864
26969SOL     OW85753   0.482   7.837   9.825  0.5370 -0.1818 -0.5553
26969SOL    HW185754   0.545   7.854   9.895  1.2204  0.9589 -1.4402
26969SOL    HW285755   0.428   7.764   9.859  1.8321 -0.6683  0.5126
26970SOL     OW85756   8.489   6.947   9.356  0.3981 -0.0332  0.0372
26970SOL    HW185757   8.437   7.009   9.304  1.7060  0.3255 -0.8746
26970SOL    HW285758   8.580   6.967   9.333  0.8273 -3.0609 -1.1515
26971SOL     OW85759   7.013   7.649   0.416 -0.2453  0.0327 -0.1431
26971SOL    HW185760   6.958   7.647   0.338 -1.5446 -1.4081  0.7765
26971SOL    HW285761   6.957   7.688   0.483  0.1659 -0.5851  0.5699
26972SOL     OW85762   8.011   8.920   8.343 -0.6389 -0.3364  0.0012
26972SOL    HW185763   8.029   8.859   8.272 -0.1434 -0.3075  0.1017
26972SOL    HW285764   8.015   9.007   8.302 -0.9873 -0.3490 -0.0653
26973SOL     OW85765   8.087   8.847   1.848  0.1937  0.2699  0.4776
26973SOL    HW185766   8.049   8.895   1.775 -2.0985 -0.9479  0.8259
26973SOL    HW285767   8.148   8.909   1.889 -0.4076  1.8055 -0.9095
26974SOL     OW85768   7.234   0.365   3.438  0.1076 -0.1662 -0.5872
26974SOL    HW185769   7.195   0.423   3.504  0.3427 -1.0550  0.3406
26974SOL    HW285770   7.321   0.402   3.422 -0.1267  0.3210 -0.7552
26975SOL     OW85771   7.777   8.287   2.029  0.7774 -0.2624  0.4650
26975SOL    HW185772   7.717   8.319   1.961  1.3703 -1.4776 -0.6563
26975SOL    HW285773   7.855   8.259   1.980  2.8571  2.5581  1.9966
26976SOL     OW85774   8.689   8.872   0.547  0.1650 -0.0684  0.2705
26976SOL    HW185775   8.654   8.908   0.466 -1.1527 -0.6782  0.5560
26976SOL    HW285776   8.781   8.899   0.547 -0.1141  0.9509 -0.8371
26977SOL     OW85777   8.844   7.742   2.843  0.3124  0.5498  0.2690
26977SOL    HW185778   8.802   7.818   2.882 -0.3666  0.0399  0.5550
26977SOL    HW285779   8.810   7.739   2.754 -0.7304 -0.1962  0.6776
26978SOL     OW85780   8.239   7.490   1.465 -0.4584 -0.0539 -0.5098
26978SOL    HW185781   8.161   7.502   1.411  1.4571 -0.1030 -3.3778
26978SOL    HW285782   8.260   7.396   1.457  0.4558  0.1496 -0.5611
26979SOL     OW85783   8.725   9.771   2.403  0.0969  0.2996 -0.7001
26979SOL    HW185784   8.673   9.723   2.339  0.8521 -3.5414  1.4041
26979SOL    HW285785   8.662   9.803   2.467 -0.1887 -0.0200 -0.8225
26980SOL     OW85786   8.228   7.815   3.337  0.1942 -0.3060 -0.5550
26980SOL    HW185787   8.206   7.808   3.244 -1.4605  1.7557 -0.3608
26980SOL    HW285788   8.292   7.886   3.341 -0.0582 -0.1006 -0.0820
26981SOL     OW85789   7.915   7.453   3.396  0.2180 -0.4249 -0.0225
26981SOL    HW185790   7.951   7.521   3.453 -0.1218 -0.7306  0.5590
26981SOL    HW285791   7.907   7.376   3.452 -1.6017 -0.2813 -0.0575
26982SOL     OW85792   8.091   9.340   3.263 -0.6497  0.2841  0.8573
26982SOL    HW185793   8.135   9.317   3.181  1.2627  0.3666  1.8297
26982SOL    HW285794   8.109   9.433   3.275  0.2037 -0.0054  2.0036
26983SOL     OW85795   8.916   9.756   2.676  0.2693  0.9199  0.2440
26983SOL    HW185796   8.839   9.812   2.683 -0.7270 -0.3559 -0.1585
26983SOL    HW285797   8.958   9.762   2.762  0.2704  2.3825  0.1521
26984SOL     OW85798   8.311   8.261   3.542  0.0404  0.3769 -0.5258
26984SOL    HW185799   8.346   8.327   3.482  0.7364 -1.1375 -1.8209
26984SOL    HW285800   8.231   8.231   3.499 -0.1561  0.2308 -0.0479
26985SOL     OW85801   7.797   7.816   2.574  1.3591 -0.1559  0.1265
26985SOL    HW185802   7.873   7.869   2.549  0.1545  2.4675  1.7226
26985SOL    HW285803   7.807   7.802   2.668  0.9726 -1.6861 -0.0447
26986SOL     OW85804   7.334   9.196   1.881  0.3205  0.1301  0.4489
26986SOL    HW185805   7.332   9.269   1.819  1.1468  0.5338  0.9053
26986SOL    HW285806   7.346   9.236   1.966  0.9358 -0.5445  0.6870
26987SOL     OW85807   8.392   8.622   2.971 -0.1395 -0.0515 -0.1918
26987SOL    HW185808   8.310   8.670   2.965  1.0138  2.0362  0.3228
26987SOL    HW285809   8.441   8.648   2.893 -0.2799 -1.9651 -0.9562
26988SOL     OW85810   7.230   8.472   3.070  0.4386  0.4629  0.2763
26988SOL    HW185811   7.261   8.562   3.059  0.7137  0.5669  1.7431
26988SOL    HW285812   7.291   8.433   3.132 -0.3363 -0.3921  0.5176
26989SOL     OW85813   8.108   9.581   3.534  0.4710  0.1389  0.0735
26989SOL    HW185814   8.091   9.631   3.614 -2.3976  1.3747 -1.2306
26989SOL    HW285815   8.147   9.499   3.564  0.0309  0.8481  2.6802
26990SOL     OW85816   6.512   8.452   1.807 -0.1076  0.4236  0.1355
26990SOL    HW185817   6.440   8.389   1.809  0.9565 -0.8121  0.0839
26990SOL    HW285818   6.511   8.491   1.895 -0.7304  0.2959  0.1886
26991SOL     OW85819   7.650   6.397   3.352 -0.5236  0.5815  0.5087
26991SOL    HW185820   7.654   6.331   3.422 -2.2002  0.3244  0.3771
26991SOL    HW285821   7.694   6.473   3.389  0.2776 -0.1772  1.1448
26992SOL     OW85822   6.736   5.530   1.950 -0.2090 -0.6084 -1.3668
26992SOL    HW185823   6.659   5.484   1.916 -1.7718  0.0017  1.2133
26992SOL    HW285824   6.737   5.613   1.902 -1.5871 -0.3271 -0.9345
26993SOL     OW85825   8.692   9.194   1.919 -0.1023 -0.2589 -0.2461
26993SOL    HW185826   8.672   9.274   1.870  0.3780 -0.6708 -1.1445
26993SOL    HW285827   8.626   9.131   1.890  0.2949 -0.5589 -0.5073
26994SOL     OW85828   8.468   8.242   0.624 -0.4292  0.0917  0.2684
26994SOL    HW185829   8.458   8.263   0.717 -1.5850  1.1088 -0.0817
26994SOL    HW285830   8.386   8.199   0.600  0.6395 -1.9596  0.1870
26995SOL     OW85831   9.199   8.497   2.961  0.0335  0.0026  0.2000
26995SOL    HW185832   9.257   8.421   2.969 -0.2946 -0.4055 -1.1940
26995SOL    HW285833   9.259   8.571   2.949  0.2886 -0.3239 -0.5483
26996SOL     OW85834   8.728   8.077   1.105 -0.0693  0.3350 -0.0279
26996SOL    HW185835   8.760   8.064   1.194 -1.3458 -2.6309  0.0625
26996SOL    HW285836   8.807   8.072   1.050  0.5264  0.5749  0.8021
26997SOL     OW85837   8.888   0.218   3.449 -0.2269 -0.1107 -0.2690
26997SOL    HW185838   8.936   0.300   3.461 -0.1993 -0.2690  0.7442
26997SOL    HW285839   8.915   0.163   3.523  0.0585 -1.1844 -1.1651
26998SOL     OW85840   6.538   8.068   0.706  0.1319  0.2094 -0.2539
26998SOL    HW185841   6.466   8.019   0.745  1.5947 -3.0040 -1.4777
26998SOL    HW285842   6.503   8.100   0.622 -1.6238  3.5377  1.6184
26999SOL     OW85843   8.529   5.395   2.401  0.0758 -0.4556  0.2811
26999SOL    HW185844   8.579   5.376   2.480 -0.4735  1.5028  1.1375
26999SOL    HW285845   8.548   5.487   2.382 -1.7737 -0.1995 -0.4134
27000SOL     OW85846   7.025   8.072   2.885  0.6437  0.2107 -0.1648
27000SOL    HW185847   7.047   8.165   2.885  0.1299  0.3311  0.8040
27000SOL    HW285848   6.940   8.068   2.843 -0.9121  0.5623  2.8422
27001SOL     OW85849   1.321   8.617   2.983 -0.6751  0.3870  1.1308
27001SOL    HW185850   1.374   8.669   2.922 -2.4557  0.4152 -0.4058
27001SOL    HW285851   1.334   8.527   2.956 -1.2576  0.3798  0.8812
27002SOL     OW85852   8.634   1.790   3.053  0.0259 -0.0881 -0.2642
27002SOL    HW185853   8.553   1.837   3.035 -0.8980 -2.0110 -1.3161
27002SOL    HW285854   8.671   1.772   2.967  2.4173  2.1587  0.2530
27003SOL     OW85855   7.605   7.421   3.778  0.2274 -0.6921  0.2575
27003SOL    HW185856   7.608   7.378   3.692 -0.5755 -0.9480  0.3569
27003SOL    HW285857   7.635   7.354   3.839  0.1295 -0.7288  0.2646
27004SOL     OW85858   9.773   9.110   2.595  1.1212  0.0772  0.2666
27004SOL    HW185859   9.732   9.154   2.521 -0.1345 -1.0357  0.2810
27004SOL    HW285860   9.705   9.051   2.628  1.3525  1.2010  2.8602
27005SOL     OW85861   8.606   8.258   2.730 -0.2053  0.0938  0.5580
27005SOL    HW185862   8.628   8.231   2.819 -0.1444  1.2119  0.8974
27005SOL    HW285863   8.518   8.222   2.714 -0.3662  0.2023  1.2039
27006SOL     OW85864   7.636   8.047   2.503 -0.5891  0.4225 -0.1395
27006SOL    HW185865   7.678   7.961   2.495  0.4480  0.9622 -0.6765
27006SOL    HW285866   7.663   8.079   2.589 -1.0149  0.2002  0.0814
27007SOL     OW85867   0.179   8.138   3.229  0.5114 -0.8959 -0.0900
27007SOL    HW185868   0.100   8.142   3.175  0.5069 -1.0843 -0.1000
27007SOL    HW285869   0.246   8.101   3.171  1.4610  2.2385 -1.0484
27008SOL     OW85870   9.104   0.038   2.976  0.2208 -0.0597  0.2337
27008SOL    HW185871   9.195   0.057   2.956  0.5854 -0.7554  1.1777
27008SOL    HW285872   9.093   0.066   3.067 -0.2490 -0.8189  0.4238
27009SOL     OW85873   7.608   7.989   2.834  0.2292 -0.1620  0.0669
27009SOL    HW185874   7.533   8.048   2.847  0.3513  0.1199 -0.4749
27009SOL    HW285875   7.681   8.048   2.817  0.7699 -0.4063  1.5095
27010SOL     OW85876   9.228   8.438   4.186 -0.4661 -0.4873 -0.1052
27010SOL    HW185877   9.311   8.482   4.168 -1.6596  1.0861 -1.9564
27010SOL    HW285878   9.234   8.355   4.138  0.6950 -1.1524  1.1581
27011SOL     OW85879   8.839   8.445   3.235  0.0942 -0.1710 -0.1760
27011SOL    HW185880   8.822   8.512   3.169  0.2507 -0.3297 -0.3770
27011SOL    HW285881   8.762   8.389   3.233 -1.3646  1.6252  1.9858
27012SOL     OW85882   9.385   9.696   1.362 -0.1245 -0.4205  0.1128
27012SOL    HW185883   9.368   9.726   1.452  0.4798 -1.1173  0.4654
27012SOL    HW285884   9.469   9.651   1.368 -0.3270 -0.8972 -0.7101
27013SOL     OW85885   7.712   8.150   1.665 -0.6668 -0.5863 -0.0405
27013SOL    HW185886   7.648   8.081   1.682  1.1139 -1.3529  3.9651
27013SOL    HW285887   7.771   8.112   1.600 -0.3067 -2.5038  1.3701
27014SOL     OW85888   8.459   8.053   4.029  0.0778  0.6960 -0.3239
27014SOL    HW185889   8.521   7.985   4.002  0.4514  0.7993  0.2599
27014SOL    HW285890   8.466   8.054   4.125 -0.4181  1.0950 -0.2918
27015SOL     OW85891   8.903   8.353   1.589  0.0228 -0.2472 -0.2136
27015SOL    HW185892   8.996   8.345   1.567  0.8849  1.0453  2.7065
27015SOL    HW285893   8.897   8.325   1.681 -2.4510 -0.1042 -0.2875
27016SOL     OW85894   0.770   7.924   4.550  0.7373  0.4500  0.3947
27016SOL    HW185895   0.760   7.847   4.495  0.8101  0.7268 -0.0083
27016SOL    HW285896   0.751   7.893   4.639 -0.1722  0.1807  0.1073
27017SOL     OW85897   8.731   7.681   3.462 -0.1440  0.0697 -0.5891
27017SOL    HW185898   8.817   7.722   3.453 -0.3091  0.6643  0.4160
27017SOL    HW285899   8.747   7.607   3.521 -0.3400  0.2573 -0.2994
27018SOL     OW85900   7.727   7.165   3.390  0.5581 -0.4334 -0.4878
27018SOL    HW185901   7.687   7.185   3.474 -0.1020 -0.4362 -0.8018
27018SOL    HW285902   7.818   7.144   3.411  0.5048 -0.0125  0.1755
27019SOL     OW85903   8.635   9.354   2.195  0.2513  0.4085  0.6013
27019SOL    HW185904   8.660   9.432   2.146  1.5024 -0.6674 -0.5228
27019SOL    HW285905   8.637   9.283   2.130 -2.7718 -0.2479  1.1749
27020SOL     OW85906   9.601   8.430   2.812  0.5936  0.0582  0.1363
27020SOL    HW185907   9.535   8.361   2.802  0.0031  0.5225  0.8715
27020SOL    HW285908   9.552   8.512   2.809  1.0469  0.3887  1.3384
27021SOL     OW85909   7.202   8.580   2.655 -0.5221  0.1524  0.1031
27021SOL    HW185910   7.286   8.564   2.698 -0.7734 -0.7855  0.2625
27021SOL    HW285911   7.222   8.585   2.562 -0.3401 -0.4522  0.1095
27022SOL     OW85912   9.422   7.658   2.524 -0.3525  0.1084  0.0461
27022SOL    HW185913   9.496   7.698   2.569  0.9026  0.3970 -2.1942
27022SOL    HW285914   9.365   7.731   2.500 -0.1436  0.1397 -0.3640
27023SOL     OW85915   8.078   9.813   4.352 -0.9540 -0.4166 -0.0671
27023SOL    HW185916   8.029   9.806   4.270 -0.6606 -0.5896 -0.2293
27023SOL    HW285917   8.052   9.735   4.402 -0.8817 -0.4847 -0.1353
27024SOL     OW85918   8.631   9.136   2.729  0.7088 -0.1244 -0.1914
27024SOL    HW185919   8.699   9.197   2.758  0.1222  0.0562  0.8358
27024SOL    HW285920   8.676   9.052   2.719  0.9716 -0.1530  1.1128
27025SOL     OW85921   9.128   8.193   1.807 -0.6377 -0.2771  0.5439
27025SOL    HW185922   9.065   8.142   1.857 -0.6898  0.1756  0.9510
27025SOL    HW285923   9.188   8.228   1.873  0.9603 -1.9539  0.0148
27026SOL     OW85924   9.319   8.380   1.733 -0.0661  1.1748  0.2132
27026SOL    HW185925   9.378   8.397   1.659  0.1203  0.9119  0.3000
27026SOL    HW285926   9.235   8.361   1.693  0.2464  0.1425  0.0276
27027SOL     OW85927   9.042   8.702   2.070 -0.1690  0.0420  0.3002
27027SOL    HW185928   8.949   8.725   2.066 -0.1636  0.2220  0.9837
27027SOL    HW285929   9.077   8.725   1.984 -0.5218  1.0278  0.4062
27028SOL     OW85930   7.836   9.113   1.974 -0.3609  0.3276  0.0977
27028SOL    HW185931   7.761   9.170   1.990  0.1965  0.2524  3.5250
27028SOL    HW285932   7.897   9.166   1.924 -1.4685  1.4133 -0.1246
27029SOL     OW85933   0.455   8.827   1.168  0.2868 -0.2307 -0.6832
27029SOL    HW185934   0.440   8.782   1.084 -0.0745  0.2443 -0.8718
27029SOL    HW285935   0.522   8.773   1.211  1.6021  0.3421 -1.9317
27030SOL     OW85936   8.034   8.756   0.995 -0.2193 -0.2359 -0.2346
27030SOL    HW185937   8.116   8.764   0.945  0.8202 -0.9827  1.2938
27030SOL    HW285938   8.016   8.662   0.996  0.3108 -0.3416  1.5876
27031SOL     OW85939   7.853   6.886   3.839 -0.0911 -0.4760  0.1141
27031SOL    HW185940   7.793   6.832   3.788  0.0122 -0.9468  0.4874
27031SOL    HW285941   7.939   6.868   3.802 -0.1258 -0.1072 -0.1550
27032SOL     OW85942   8.689   8.244   4.630 -0.6353 -0.1428  0.1669
27032SOL    HW185943   8.712   8.170   4.574  0.1590  2.0066 -2.4621
27032SOL    HW285944   8.769   8.263   4.679  0.9049  2.3351 -3.1598
27033SOL     OW85945   9.119   7.900   3.862  0.3733  0.6138  0.4210
27033SOL    HW185946   9.151   7.983   3.827 -1.5741  0.2749 -2.2912
27033SOL    HW285947   9.080   7.923   3.947 -0.6460  2.5564 -0.5463
27034SOL     OW85948   8.428   9.359   2.409  0.2284  0.4438  0.5119
27034SOL    HW185949   8.495   9.365   2.340 -0.6792  1.1015 -0.3199
27034SOL    HW285950   8.448   9.277   2.454 -0.3575 -1.0470 -1.8243
27035SOL     OW85951   8.235   7.104   3.783  0.5352 -0.2007  0.2813
27035SOL    HW185952   8.325   7.130   3.762  0.2771 -0.0719 -0.7010
27035SOL    HW285953   8.182   7.142   3.713 -0.3179 -0.0652  0.9977
27036SOL     OW85954   8.979   5.523   2.640 -0.0367 -0.1362  0.1633
27036SOL    HW185955   8.889   5.553   2.653  0.2423  0.4317  0.8516
27036SOL    HW285956   9.006   5.491   2.727  0.0959 -1.2273 -0.2712
27037SOL     OW85957   9.003   0.222   1.256  0.8718  0.8858 -0.0084
27037SOL    HW185958   9.020   0.249   1.346 -1.0578 -3.0079  1.6207
27037SOL    HW285959   8.920   0.265   1.233 -0.1334 -0.4054  1.1344
27038SOL     OW85960   8.554   5.795   0.894  0.2481  0.1465  0.0513
27038SOL    HW185961   8.500   5.717   0.883  2.0631 -1.2393  0.6500
27038SOL    HW285962   8.603   5.801   0.812 -0.7323  1.3490 -0.4564
27039SOL     OW85963   9.458   7.848   3.408  0.0453  0.0536 -0.5495
27039SOL    HW185964   9.535   7.791   3.414  0.8839  1.3328  1.1370
27039SOL    HW285965   9.488   7.924   3.358  0.4562  1.4646  1.8109
27040SOL     OW85966   7.346   8.989   3.877 -0.4674  0.0352  0.2171
27040SOL    HW185967   7.306   9.075   3.865  0.2320  0.1564 -1.4112
27040SOL    HW285968   7.295   8.931   3.820 -0.1936 -0.3854  0.3985
27041SOL     OW85969   7.758   8.567   3.437 -0.7346 -0.1778 -0.5134
27041SOL    HW185970   7.789   8.613   3.515  1.5766 -0.6966 -1.0744
27041SOL    HW285971   7.809   8.605   3.365  0.2849 -2.6347 -1.1604
27042SOL     OW85972   0.337   9.249   2.332  0.1511 -0.5315 -0.9526
27042SOL    HW185973   0.287   9.219   2.408 -0.6170 -0.6277 -1.4948
27042SOL    HW285974   0.420   9.201   2.337 -0.4856 -1.6431 -1.0069
27043SOL     OW85975   0.592   8.223   1.078  0.1305  0.2806 -0.4366
27043SOL    HW185976   0.566   8.223   1.170 -2.3743  1.9999 -1.0573
27043SOL    HW285977   0.566   8.137   1.045 -0.0508  0.0937  0.1892
27044SOL     OW85978   8.344   7.596   3.742 -0.4122 -0.4279  0.8070
27044SOL    HW185979   8.326   7.521   3.798  1.1880 -0.8360  0.7844
27044SOL    HW285980   8.364   7.557   3.656  1.2180 -0.0313  0.9966
27045SOL     OW85981   9.301   7.696   2.842 -0.1904 -0.0117  0.0143
27045SOL    HW185982   9.384   7.651   2.855  0.5226  1.5544  1.1036
27045SOL    HW285983   9.312   7.742   2.758 -0.0710 -0.0392  0.0142
27046SOL     OW85984   8.357   8.459   2.176  0.4112  0.1067 -0.1252
27046SOL    HW185985   8.431   8.519   2.187  0.1799  0.4037 -0.2102
27046SOL    HW285986   8.377   8.413   2.094 -1.0579  2.4214 -1.8548
27047SOL     OW85987   9.230   8.656   0.964 -0.4175 -0.0428  0.3471
27047SOL    HW185988   9.291   8.724   0.936 -0.1994  0.6465  2.3706
27047SOL    HW285989   9.149   8.703   0.983 -0.3457 -0.3506  1.4993
27048SOL     OW85990   8.526   6.774   2.632 -0.0880  0.3020  0.1373
27048SOL    HW185991   8.482   6.696   2.598 -1.5731  1.3841 -0.5007
27048SOL    HW285992   8.532   6.833   2.557 -0.2882  1.3645  0.9422
27049SOL     OW85993   8.958   8.216   2.267 -0.2929  0.0413 -1.0322
27049SOL    HW185994   8.911   8.281   2.319 -0.8092 -0.2432 -1.1456
27049SOL    HW285995   8.980   8.262   2.185 -0.3896  0.1667 -0.9881
27050SOL     OW85996   8.940   9.576   1.393 -0.0997 -0.1887  0.1152
27050SOL    HW185997   9.000   9.502   1.393  0.3221  0.1190  2.3376
27050SOL    HW285998   8.984   9.643   1.340  1.0322 -0.3315  0.8751
27051SOL     OW85999   8.351   9.029   1.491 -0.2538 -0.3985 -0.3252
27051SOL    HW186000   8.391   8.943   1.503 -0.5903 -0.4359  0.5430
27051SOL    HW286001   8.258   9.016   1.508  0.0844  0.6708  2.5924
27052SOL     OW86002   8.232   8.123   1.407 -0.3519 -0.4619  0.1216
27052SOL    HW186003   8.226   8.122   1.502  0.6319 -2.1172  0.1678
27052SOL    HW286004   8.306   8.067   1.386 -0.3257  0.1874 -1.6085
27053SOL     OW86005   0.194   9.583   3.772 -0.8365  0.0808  0.3226
27053SOL    HW186006   0.104   9.566   3.798 -0.3876  0.1357  1.9992
27053SOL    HW286007   0.191   9.589   3.677 -2.3677 -1.2492  0.2659
27054SOL     OW86008   8.848   8.931   3.040 -0.1239  0.6330  0.1214
27054SOL    HW186009   8.871   8.843   3.070 -1.0101 -0.0926 -1.2926
27054SOL    HW286010   8.865   8.987   3.116  2.3702 -0.4561  0.4254
27055SOL     OW86011   8.263   9.043   1.930  0.1830 -0.1380  0.2098
27055SOL    HW186012   8.267   9.117   1.990 -0.6835  0.9898 -1.0796
27055SOL    HW286013   8.319   9.069   1.856 -0.0514 -0.8059 -0.2121
27056SOL     OW86014   9.415   8.435   3.513  0.1856  0.0266 -0.0538
27056SOL    HW186015   9.474   8.494   3.466 -1.3785  0.8820 -0.9826
27056SOL    HW286016   9.328   8.462   3.486 -0.6640 -0.9365  1.6410
27057SOL     OW86017   7.367   6.020   3.930 -0.3594 -0.4969 -0.1184
27057SOL    HW186018   7.462   6.017   3.922 -0.0589  1.2032  2.4180
27057SOL    HW286019   7.335   6.006   3.840  2.2437 -1.0796 -0.9992
27058SOL     OW86020   8.257   8.580   1.903  0.0246 -0.1904 -0.1029
27058SOL    HW186021   8.337   8.627   1.878 -0.1613  0.8998  1.2730
27058SOL    HW286022   8.287   8.512   1.963 -0.1330  0.6392  0.9387
27059SOL     OW86023   8.290   9.491   4.412 -0.2412  0.2966 -0.7012
27059SOL    HW186024   8.320   9.552   4.344 -0.4145  0.7170 -0.4076
27059SOL    HW286025   8.195   9.504   4.415 -0.0207  1.6928  0.9438
27060SOL     OW86026   8.886   8.318   2.904 -0.1451  0.4795  0.5571
27060SOL    HW186027   8.961   8.300   2.962 -0.6085  0.9794  1.3169
27060SOL    HW286028   8.815   8.265   2.940 -0.8575  1.9848  1.3611
27061SOL     OW86029   7.820   9.418   3.190  0.1291  0.3863  0.3861
27061SOL    HW186030   7.825   9.511   3.168  1.8294 -0.2767 -2.2710
27061SOL    HW286031   7.816   9.416   3.285  1.0025  3.1586  0.5226
27062SOL     OW86032   8.841   8.970   2.764  0.2760 -0.3248  0.3370
27062SOL    HW186033   8.840   8.969   2.859  0.8727  2.4651  0.4048
27062SOL    HW286034   8.933   8.982   2.740 -0.2721  2.4539 -0.4946
27063SOL     OW86035   9.298   7.105   2.298  0.2226 -0.1549 -0.6073
27063SOL    HW186036   9.392   7.109   2.279  0.6229 -0.7397  1.1010
27063SOL    HW286037   9.294   7.067   2.386 -1.6932 -1.7152 -1.3341
27064SOL     OW86038   9.805   8.215   1.956 -0.0662 -0.2479 -0.0931
27064SOL    HW186039   9.718   8.175   1.949 -1.0338  1.7502  0.2865
27064SOL    HW286040   9.798   8.297   1.909  0.9923  0.9139  1.7108
27065SOL     OW86041   8.037   9.315   2.957 -0.1949  0.3390  0.0454
27065SOL    HW186042   8.125   9.354   2.959  0.3693 -0.8362 -0.7890
27065SOL    HW286043   8.037   9.263   2.876 -1.7274  0.4684 -0.0446
27066SOL     OW86044   8.199   7.866   3.055  0.3099 -0.0109 -0.0851
27066SOL    HW186045   8.253   7.937   3.088 -1.0559  0.5974  0.8793
27066SOL    HW286046   8.225   7.856   2.964  0.9561  1.3012 -0.0485
27067SOL     OW86047   8.595   9.342   3.444  0.1022  0.1210  0.0415
27067SOL    HW186048   8.684   9.319   3.467  0.1346 -0.7968 -0.9660
27067SOL    HW286049   8.600   9.370   3.352 -0.4347  1.2581  0.3579
27068SOL     OW86050   7.493   8.712   3.302 -0.5944 -0.3386  0.3949
27068SOL    HW186051   7.575   8.711   3.253 -0.1983 -2.3733  1.0730
27068SOL    HW286052   7.513   8.760   3.382  0.3312 -2.0735  1.2152
27069SOL     OW86053   7.757   8.882   0.984 -0.3797 -0.0990  0.1451
27069SOL    HW186054   7.711   8.850   0.906 -2.0362 -1.3412  1.5840
27069SOL    HW286055   7.820   8.813   1.005 -0.4176 -0.0902  0.2887
27070SOL     OW86056   8.555   7.937   2.478  0.2654 -0.1280 -0.3389
27070SOL    HW186057   8.634   7.990   2.485 -0.2922  0.6564  0.0486
27070SOL    HW286058   8.491   7.980   2.536 -0.4546 -0.7294 -0.6698
27071SOL     OW86059   7.934   7.283   3.633 -0.3711 -1.1289 -0.5858
27071SOL    HW186060   7.904   7.349   3.696  0.1979 -0.6621 -0.7997
27071SOL    HW286061   7.912   7.199   3.673 -3.0019 -0.7883 -1.2263
27072SOL     OW86062   8.363   9.535   3.363  0.0221 -0.3409  0.6663
27072SOL    HW186063   8.346   9.628   3.380  3.1959  0.5719 -0.7414
27072SOL    HW286064   8.413   9.506   3.439  0.1933 -0.5544  0.4692
27073SOL     OW86065   9.128   9.173   2.984  0.1250 -0.3626 -0.0164
27073SOL    HW186066   9.198   9.191   2.921  1.6123 -0.6498  1.5185
27073SOL    HW286067   9.139   9.081   3.006 -0.5500 -0.3288  0.4685
27074SOL     OW86068   9.027   8.260   2.691  0.2052 -0.3909  0.0577
27074SOL    HW186069   9.098   8.315   2.724 -0.0213 -0.5752  0.8871
27074SOL    HW286070   8.949   8.291   2.738 -0.1425 -0.6051 -0.3760
27075SOL     OW86071   8.475   8.282   3.883 -0.4663 -0.2062  0.0863
27075SOL    HW186072   8.498   8.283   3.790  0.4334 -0.8102  0.2924
27075SOL    HW286073   8.434   8.196   3.896 -0.9362  0.0292  0.1694
27076SOL     OW86074   8.386   9.670   3.813  0.0885 -0.4339  0.4132
27076SOL    HW186075   8.460   9.725   3.840 -1.0305  2.1058 -1.4759
27076SOL    HW286076   8.309   9.724   3.830 -1.0493 -1.3866 -1.5219
27077SOL     OW86077   9.390   8.162   3.487  0.3187 -0.1558 -0.0265
27077SOL    HW186078   9.374   8.129   3.399 -0.0340 -0.1819  0.0474
27077SOL    HW286079   9.397   8.257   3.475 -0.8126 -0.0573  0.0749
27078SOL     OW86080   9.120   7.829   2.635  0.0472  0.1978  0.1895
27078SOL    HW186081   9.156   7.901   2.583 -0.1901 -0.4464 -0.8781
27078SOL    HW286082   9.035   7.811   2.593  0.1800 -0.8076  0.3596
27079SOL     OW86083   7.558   8.248   3.719  0.3830  0.0538 -0.2423
27079SOL    HW186084   7.514   8.163   3.731 -2.1489  0.9304 -2.7363
27079SOL    HW286085   7.498   8.311   3.760  1.4924  0.8333  0.2099
27080SOL     OW86086   8.310   9.133   4.673  0.0206 -0.2894  0.5274
27080SOL    HW186087   8.298   9.227   4.686 -1.9552 -0.4411 -0.0136
27080SOL    HW286088   8.376   9.108   4.738  2.7389  1.9691 -1.3057
27081SOL     OW86089   9.336   9.124   2.804  0.1853  0.2229 -0.1608
27081SOL    HW186090   9.407   9.070   2.770 -1.8561 -1.6034 -1.6653
27081SOL    HW286091   9.378   9.206   2.831  2.7519 -0.6103 -1.5335
27082SOL     OW86092   9.065   8.559   2.718  0.5103 -0.0033  0.3469
27082SOL    HW186093   9.047   8.512   2.800 -1.6356  2.4540  1.3813
27082SOL    HW286094   9.141   8.614   2.738  1.2605 -0.9176  0.0281
27083SOL     OW86095   7.327   8.313   5.106  0.0934  0.2093 -0.6828
27083SOL    HW186096   7.316   8.318   5.201 -1.4110  0.5786 -0.8631
27083SOL    HW286097   7.400   8.372   5.087  1.7855 -1.4779  0.4675
27084SOL     OW86098   8.341   7.263   2.270  0.6354  0.4046 -0.6687
27084SOL    HW186099   8.304   7.276   2.358 -1.0977  0.1207 -1.3458
27084SOL    HW286100   8.431   7.234   2.286  0.1802 -0.1189  1.0236
27085SOL     OW86101   9.020   9.683   5.192  0.5183 -0.4008  0.6848
27085SOL    HW186102   9.015   9.604   5.138 -1.6183 -0.2393  0.6155
27085SOL    HW286103   9.105   9.722   5.170  0.3869 -1.2048 -1.3421
27086SOL     OW86104   9.167   8.187   2.484 -0.6392 -0.2592 -0.2538
27086SOL    HW186105   9.119   8.198   2.566 -0.9635  1.1697 -0.6294
27086SOL    HW286106   9.098   8.181   2.417 -0.3191  1.2731 -0.7319
27087SOL     OW86107   9.090   9.296   0.804 -0.1193 -0.6164  0.1808
27087SOL    HW186108   9.078   9.204   0.780  2.9901 -0.6425 -1.5259
27087SOL    HW286109   9.036   9.344   0.740  1.9039 -1.0919 -1.9721
27088SOL     OW86110   7.739   9.150   3.017  0.4445 -0.1898  0.4528
27088SOL    HW186111   7.649   9.179   3.000 -0.2834 -1.6978  1.5378
27088SOL    HW286112   7.758   9.090   2.945  0.4216 -0.1930  0.4488
27089SOL     OW86113   8.481   7.993   3.367 -0.0973 -0.8959  0.1012
27089SOL    HW186114   8.479   8.080   3.407 -0.0864 -1.4210  1.2639
27089SOL    HW286115   8.447   8.007   3.279  0.1091  0.3242  0.2019
27090SOL     OW86116   7.907   9.462   3.796 -0.8534 -0.0375 -0.2345
27090SOL    HW186117   8.000   9.461   3.816 -0.6090  2.3065 -1.1246
27090SOL    HW286118   7.866   9.420   3.872  0.7837  0.5405  0.9924
27091SOL     OW86119   9.674   7.682   3.421 -0.6005  0.2198  0.4342
27091SOL    HW186120   9.768   7.697   3.424 -0.4170 -0.6620 -0.8672
27091SOL    HW286121   9.659   7.610   3.483 -0.5254  0.7911  1.1333
27092SOL     OW86122   8.526   8.533   1.335 -0.4871  0.1344 -0.0427
27092SOL    HW186123   8.496   8.621   1.357 -0.1162  0.3173 -0.2581
27092SOL    HW286124   8.508   8.524   1.242  2.2963  1.1569 -0.7437
27093SOL     OW86125   7.729   8.668   4.350  0.3927 -0.1087 -0.1803
27093SOL    HW186126   7.746   8.762   4.341  0.9337 -0.0097  1.6485
27093SOL    HW286127   7.749   8.632   4.264  2.2329  1.1653 -0.3341
27094SOL     OW86128   6.581   7.973   2.541  0.0860  0.7799  0.1095
27094SOL    HW186129   6.574   8.064   2.513 -0.2483  0.9815  0.8338
27094SOL    HW286130   6.514   7.964   2.610  1.4789  0.5385  1.4651
27095SOL     OW86131   8.415   8.052   3.709  0.0936  0.2177 -0.0572
27095SOL    HW186132   8.491   8.104   3.683 -0.2370  0.1328 -1.2237
27095SOL    HW286133   8.341   8.098   3.671 -0.1916 -1.1692 -1.2579
27096SOL     OW86134   7.980   8.424   2.228 -0.7376  0.1327  0.1820
27096SOL    HW186135   8.005   8.499   2.282  1.7631 -0.4378 -0.1182
27096SOL    HW286136   7.942   8.361   2.290 -0.3475  0.5625  0.8608
27097SOL     OW86137   8.186   8.762   2.661  0.0883  0.1340 -0.1391
27097SOL    HW186138   8.098   8.800   2.654  0.5069  1.1948  0.2398
27097SOL    HW286139   8.171   8.673   2.693 -0.7753  0.8047  1.3761
27098SOL     OW86140   9.527   8.109   2.611 -0.2395  0.3008 -0.3813
27098SOL    HW186141   9.597   8.160   2.571  0.4548 -0.6147 -0.3331
27098SOL    HW286142   9.508   8.154   2.694  0.2213  0.5947 -0.4367
27099SOL     OW86143   8.985   9.821   3.311 -1.1075  0.1055 -0.8169
27099SOL    HW186144   9.042   9.767   3.256 -0.8254 -0.4124 -0.0235
27099SOL    HW286145   9.045   9.879   3.358 -1.3824  0.8587 -1.3793
27100SOL     OW86146   8.387   9.292   3.873 -0.0709 -0.6222  0.1034
27100SOL    HW186147   8.382   9.212   3.821  0.7369  0.2607 -1.3679
27100SOL    HW286148   8.460   9.277   3.933  0.6284 -0.6599 -0.7477
27101SOL     OW86149   9.044   9.006   2.372  0.0700  0.5203  0.9897
27101SOL    HW186150   9.026   8.952   2.450 -0.0854  1.4239  1.5901
27101SOL    HW286151   8.973   9.070   2.370 -2.0225 -1.7923 -2.0276
27102SOL     OW86152   8.956   8.019   3.040  0.3493  0.6505 -0.6145
27102SOL    HW186153   8.998   8.105   3.049  0.5042  0.6601 -1.3744
27102SOL    HW286154   8.863   8.037   3.046  0.4536  0.3331  3.5636
27103SOL     OW86155   8.804   8.764   3.379 -0.2715  0.3075  0.6571
27103SOL    HW186156   8.823   8.849   3.418 -0.5136  1.6694 -2.0408
27103SOL    HW286157   8.880   8.746   3.323 -1.5952  0.2776 -1.1945
27104SOL     OW86158   0.293   9.085   1.372  0.3779 -0.9907 -0.3793
27104SOL    HW186159   0.387   9.090   1.387  0.2084  1.1588  0.1342
27104SOL    HW286160   0.254   9.104   1.457 -0.5306  2.2404 -1.4657
27105SOL     OW86161   8.255   8.557   4.277 -0.0608  0.8058  0.1224
27105SOL    HW186162   8.344   8.533   4.304 -0.4226  0.6691  1.1889
27105SOL    HW286163   8.259   8.557   4.181  0.8696 -0.0396  0.1496
27106SOL     OW86164   9.826   8.862   2.410  0.5557  0.4206 -0.2955
27106SOL    HW186165   9.734   8.868   2.437  0.9591 -0.7603  1.3572
27106SOL    HW286166   9.833   8.926   2.339 -1.4154  0.9055 -0.1005
27107SOL     OW86167   7.441   8.129   1.843  0.7942  0.3796  0.2546
27107SOL    HW186168   7.438   8.046   1.890 -3.2464  1.2759  1.7644
27107SOL    HW286169   7.454   8.195   1.911  0.2734  1.2637 -0.4900
27108SOL     OW86170   7.258   1.213   2.591 -0.0911  0.3285 -0.2497
27108SOL    HW186171   7.222   1.189   2.505  1.4552  0.6054 -0.9895
27108SOL    HW286172   7.334   1.267   2.571  2.2080 -2.2553  1.2088
27109SOL     OW86173   9.570   6.229   1.922  0.1410  0.0968 -0.1350
27109SOL    HW186174   9.655   6.235   1.878  0.4396  0.6912  0.5073
27109SOL    HW286175   9.579   6.156   1.983 -0.5205 -1.2048 -1.5680
27110SOL     OW86176   7.873   7.997   3.090  0.2133 -0.4680  0.4130
27110SOL    HW186177   7.969   7.995   3.099  0.0118 -0.9424  2.6345
27110SOL    HW286178   7.846   8.076   3.136 -0.2682  1.3378 -2.7943
27111SOL     OW86179   9.365   7.834   1.149 -0.7894  0.3353 -0.2638
27111SOL    HW186180   9.342   7.927   1.147 -0.3317  0.4341 -0.8989
27111SOL    HW286181   9.402   7.820   1.236 -3.5670  0.1034  0.9219
27112SOL     OW86182   7.776   8.786   2.359  0.2832  0.8966 -0.2517
27112SOL    HW186183   7.806   8.828   2.440  1.8195 -2.9879  1.3204
27112SOL    HW286184   7.684   8.765   2.375 -0.2513  2.7984 -0.7167
27113SOL     OW86185   8.738   8.542   2.744 -0.5929 -0.3822 -0.0830
27113SOL    HW186186   8.765   8.463   2.790  0.1127 -0.2018 -0.1914
27113SOL    HW286187   8.811   8.562   2.686 -0.5810  0.6299  0.2895
27114SOL     OW86188   8.155   7.311   1.206  0.0845 -0.5393  0.1459
27114SOL    HW186189   8.115   7.279   1.125 -0.8002  0.2176  0.2710
27114SOL    HW286190   8.085   7.361   1.248  0.9285  0.1293  0.7570
27115SOL     OW86191   8.169   8.467   3.192  0.2499  0.3243  0.2674
27115SOL    HW186192   8.185   8.559   3.210  0.4281  0.6527 -1.4149
27115SOL    HW286193   8.236   8.420   3.241  1.1689  1.1934 -0.1554
27116SOL     OW86194   9.250   9.117   4.548 -0.0726 -0.0023 -0.5061
27116SOL    HW186195   9.331   9.114   4.497  1.4201  0.2470  1.7631
27116SOL    HW286196   9.210   9.031   4.534  1.9772 -1.1712  0.4496
27117SOL     OW86197   9.307   6.284   2.907 -0.0304  0.3195  0.1491
27117SOL    HW186198   9.301   6.214   2.843 -0.1959 -0.4505  1.0000
27117SOL    HW286199   9.222   6.283   2.952 -0.3740  1.6610 -0.4569
27118SOL     OW86200   8.292   9.031   1.173  0.4934 -0.3821  0.1034
27118SOL    HW186201   8.245   8.998   1.249 -0.4151 -0.6122 -0.5531
27118SOL    HW286202   8.252   9.116   1.155  1.3080  0.0752  0.4168
27119SOL     OW86203   6.367   7.751   3.548  0.0690 -0.5395  0.1115
27119SOL    HW186204   6.290   7.760   3.603 -0.3023  1.9766 -0.7470
27119SOL    HW286205   6.337   7.700   3.472 -0.2960 -1.0339  0.5851
27120SOL     OW86206   6.914   8.901   5.049  0.2029 -0.9567 -0.3114
27120SOL    HW186207   6.858   8.829   5.020 -1.4322 -0.2827  1.0880
27120SOL    HW286208   6.920   8.890   5.144  0.6183  0.2832 -0.1810
27121SOL     OW86209   7.144   7.137   2.744 -0.0509 -0.7328 -0.4619
27121SOL    HW186210   7.194   7.215   2.716  0.2158 -1.1217 -1.0905
27121SOL    HW286211   7.187   7.064   2.698 -0.2860 -1.2532  0.1425
27122SOL     OW86212   8.623   8.199   3.635 -0.2196  0.0238 -0.4582
27122SOL    HW186213   8.617   8.284   3.592 -1.1905 -0.5445 -1.5070
27122SOL    HW286214   8.671   8.144   3.573 -1.3311 -0.7128 -0.6946
27123SOL     OW86215   7.894   6.961   1.743  0.5082  0.7788 -0.1914
27123SOL    HW186216   7.921   7.021   1.674  1.1035  2.4879  1.4873
27123SOL    HW286217   7.972   6.947   1.796  0.2489 -1.1072 -0.2573
27124SOL     OW86218   8.176   8.495   0.316 -0.0373 -0.7870  0.4516
27124SOL    HW186219   8.145   8.493   0.406  1.0892 -0.2125  0.8591
27124SOL    HW286220   8.110   8.445   0.267 -1.1400 -0.3172  1.4292
27125SOL     OW86221   8.205   8.001   4.509 -0.0920 -0.5320  0.5780
27125SOL    HW186222   8.283   8.027   4.557 -0.7655 -0.8377  1.8691
27125SOL    HW286223   8.189   8.073   4.449  0.8347 -0.1903  0.7303
27126SOL     OW86224   7.109   0.131   3.087 -0.1554 -0.3876  0.6482
27126SOL    HW186225   7.134   0.182   3.010  0.8051 -1.0199  0.5468
27126SOL    HW286226   7.014   0.142   3.092  0.0411  1.4911  0.6801
27127SOL     OW86227   8.729   8.392   3.878  0.5192  0.3367 -0.1179
27127SOL    HW186228   8.795   8.324   3.886 -0.3980 -0.3460  1.8094
27127SOL    HW286229   8.648   8.352   3.908 -0.4983  1.5912 -1.1143
27128SOL     OW86230   8.902   8.577   3.990  0.2033  0.6139 -0.1982
27128SOL    HW186231   8.850   8.518   3.936  0.5098  1.1021 -1.0195
27128SOL    HW286232   8.940   8.520   4.057 -1.2766  0.2314  0.3399
27129SOL     OW86233   8.347   0.128   2.220  0.2856 -0.6193 -0.5483
27129SOL    HW186234   8.274   0.169   2.173 -1.9987 -0.4192  2.9748
27129SOL    HW286235   8.357   0.043   2.178 -1.9790 -0.6459 -1.1162
27130SOL     OW86236   8.570   8.356   3.398  0.1053  0.4763 -0.1583
27130SOL    HW186237   8.590   8.332   3.307 -0.8259  0.5652 -0.3941
27130SOL    HW286238   8.509   8.430   3.390  0.9664  1.2772  0.5483
27131SOL     OW86239   9.321   7.429   2.218 -0.1856  0.2530  0.4278
27131SOL    HW186240   9.303   7.391   2.304 -1.7733  0.4418  0.2040
27131SOL    HW286241   9.310   7.356   2.157  1.8038 -0.0851  0.4524
27132SOL     OW86242   9.573   7.164   3.289  0.3274 -0.1946 -0.4202
27132SOL    HW186243   9.548   7.115   3.211 -0.8290 -0.0212 -0.1810
27132SOL    HW286244   9.489   7.196   3.324  0.6482 -1.7364  1.8533
27133SOL     OW86245   9.224   8.451   3.240 -0.0542  0.3976 -0.3389
27133SOL    HW186246   9.172   8.388   3.189  0.6378 -0.2748 -0.2263
27133SOL    HW286247   9.314   8.418   3.234 -0.0487 -0.0414  1.8470
27134SOL     OW86248   8.757   7.288   1.299  0.0450  0.0300  0.3432
27134SOL    HW186249   8.827   7.279   1.364  1.3949  0.2861 -1.0717
27134SOL    HW286250   8.687   7.233   1.333  2.2458 -3.1412 -0.0074
27135SOL     OW86251   7.551   8.497   2.616  0.5272  0.1763  0.1098
27135SOL    HW186252   7.504   8.459   2.691  1.4836 -1.0140  0.1282
27135SOL    HW286253   7.643   8.494   2.642  0.8721 -0.3505 -1.1632
27136SOL     OW86254   9.297   9.676   2.806  0.2484  0.0666  0.4473
27136SOL    HW186255   9.330   9.763   2.829 -0.8139  0.8070 -0.7530
27136SOL    HW286256   9.204   9.681   2.825  0.1304 -0.7060  0.0614
27137SOL     OW86257   8.388   9.242   4.362 -0.3824 -0.1408  0.4556
27137SOL    HW186258   8.309   9.191   4.343  0.3180 -0.3258 -2.1427
27137SOL    HW286259   8.356   9.327   4.392 -1.6271  0.4584 -2.4255
27138SOL     OW86260   7.955   8.048   1.581  0.2357 -0.7533 -0.6389
27138SOL    HW186261   7.966   7.974   1.640  1.0082 -0.4515 -0.4013
27138SOL    HW286262   7.970   8.011   1.494  2.0541 -0.5891 -0.4107
27139SOL     OW86263   9.243   8.435   5.882  0.9389 -0.3032  0.3359
27139SOL    HW186264   9.318   8.375   5.882  1.9593  0.9067 -0.8824
27139SOL    HW286265   9.274   8.511   5.931  0.8832  0.6096 -1.0098
27140SOL     OW86266   8.064   8.069   2.724  0.5611  0.3066  0.0104
27140SOL    HW186267   8.051   8.147   2.670  0.9193  1.2123  1.1986
27140SOL    HW286268   8.146   8.032   2.693  1.9102  2.0511  1.3340
27141SOL     OW86269   9.874   9.611   2.388 -0.7562  0.3660 -0.0697
27141SOL    HW186270   9.872   9.521   2.422  1.3201  0.6985  0.9749
27141SOL    HW286271   9.887   9.666   2.465  3.1656  1.1824 -1.2292
27142SOL     OW86272   7.909   7.562   2.442  0.2044 -0.0053 -0.3216
27142SOL    HW186273   7.871   7.646   2.415 -1.1715 -0.7453 -0.7081
27142SOL    HW286274   7.992   7.586   2.483  0.0194  1.5180 -0.7999
27143SOL     OW86275   9.078   7.536   2.934 -0.1927  0.9408 -0.1800
27143SOL    HW186276   9.108   7.445   2.937 -0.6306  0.7742 -0.8056
27143SOL    HW286277   9.143   7.581   2.879 -0.0712  0.9714 -0.0109
27144SOL     OW86278   9.059   6.376   2.600 -0.3042  0.2260  0.2401
27144SOL    HW186279   9.077   6.448   2.541 -0.5095  0.4983  0.5074
27144SOL    HW286280   9.109   6.302   2.564  0.1983  0.5958  0.1725
27145SOL     OW86281   8.555   8.590   1.857 -0.0649  0.4162  0.1500
27145SOL    HW186282   8.515   8.515   1.815  1.0499  1.0578 -2.1399
27145SOL    HW286283   8.626   8.616   1.798 -0.0738  2.9239  1.1717
27146SOL     OW86284   7.476   9.908   3.298 -0.4762  0.0133 -0.8480
27146SOL    HW186285   7.421   9.985   3.284  1.0274  1.5451  1.2458
27146SOL    HW286286   7.441   9.842   3.239 -2.1944  2.1133 -2.2673
27147SOL     OW86287   8.302   5.531   2.091 -0.3117 -0.3029 -1.1024
27147SOL    HW186288   8.266   5.570   2.170  0.3935 -0.4818 -0.6930
27147SOL    HW286289   8.227   5.523   2.032 -0.4224  1.9479 -1.3039
27148SOL     OW86290   8.796   8.005   2.286  0.0566 -0.3060 -0.1364
27148SOL    HW186291   8.830   7.947   2.354  0.4551  1.6322  1.3484
27148SOL    HW286292   8.860   8.075   2.279 -1.8892  1.5631  0.2376
27149SOL     OW86293   7.726   7.868   1.705 -0.5985  0.5384  0.0095
27149SOL    HW186294   7.803   7.890   1.759 -2.0389  2.1088  1.4757
27149SOL    HW286295   7.711   7.775   1.722 -0.2787  0.7187  1.3573
27150SOL     OW86296   7.499   9.376   0.908 -0.4296  0.0089 -0.0990
27150SOL    HW186297   7.500   9.407   0.999 -0.4625  2.5130 -0.9226
27150SOL    HW286298   7.477   9.453   0.856  0.8654 -1.0972 -2.3711
27151SOL     OW86299   7.194   7.167   3.627  0.1115  0.5184  0.2280
27151SOL    HW186300   7.266   7.108   3.647 -0.6676 -0.5965 -0.1793
27151SOL    HW286301   7.124   7.110   3.597 -0.6797  1.6554 -0.1368
27152SOL     OW86302   6.838   7.709   4.989  0.1779 -0.3888 -0.1619
27152SOL    HW186303   6.819   7.617   5.007 -1.7542 -0.5971 -2.8317
27152SOL    HW286304   6.793   7.757   5.058 -3.0029 -1.3118 -1.4477
27153SOL     OW86305   7.083   6.386   4.041  0.4652 -0.5401 -0.4305
27153SOL    HW186306   7.176   6.362   4.036  1.0655  1.0584  1.8082
27153SOL    HW286307   7.058   6.364   4.131 -0.3298  2.3040  0.1024
27154SOL     OW86308   6.591   9.444   4.290  0.7068  0.5253  0.1723
27154SOL    HW186309   6.673   9.490   4.272  0.1905  1.6330  0.5894
27154SOL    HW286310   6.526   9.514   4.297 -0.1468 -0.3002  0.5249
27155SOL     OW86311   0.199   9.990   6.010 -0.5581  0.0888 -0.1387
27155SOL    HW186312   0.211  10.006   5.916  0.2886  1.0840  0.1329
27155SOL    HW286313   0.152  10.067   6.042 -0.6604 -0.1522  0.2965
27156SOL     OW86314   9.635   7.759   4.228  0.2828 -0.4966 -0.4018
27156SOL    HW186315   9.709   7.701   4.208 -0.1756 -1.2271  0.0259
27156SOL    HW286316   9.575   7.748   4.154  0.4870 -0.0812 -0.6336
27157SOL     OW86317   8.639   8.668   4.359 -0.3531 -0.8496  0.0708
27157SOL    HW186318   8.645   8.608   4.433 -0.1630  0.4100  1.0827
27157SOL    HW286319   8.553   8.708   4.368  0.5927  1.0264  0.9542
27158SOL     OW86320   8.891   8.468   5.291  0.0577 -0.0438 -0.9108
27158SOL    HW186321   8.815   8.457   5.348 -1.0275  2.3559 -1.8609
27158SOL    HW286322   8.965   8.472   5.351 -0.9775  1.5278  0.2879
27159SOL     OW86323   6.233   9.452   4.642  0.1689 -0.1641 -0.5765
27159SOL    HW186324   6.226   9.515   4.714 -0.9233  0.0216 -0.8336
27159SOL    HW286325   6.302   9.488   4.587  1.3897 -0.5960  0.6508
27160SOL     OW86326   8.873   6.997   6.758  0.2961  0.3114  0.8418
27160SOL    HW186327   8.792   6.947   6.766 -0.9975  2.2000  0.0175
27160SOL    HW286328   8.925   6.950   6.693 -0.4793 -0.4931  0.8027
27161SOL     OW86329   8.180   0.883   5.490 -0.4173  0.3742 -0.3740
27161SOL    HW186330   8.273   0.864   5.488 -0.4351  0.1929  0.3377
27161SOL    HW286331   8.143   0.818   5.550 -0.7865  1.3586  0.4773
27162SOL     OW86332   8.464   8.993   5.548 -0.1735 -0.7748  0.1529
27162SOL    HW186333   8.428   8.997   5.637  0.4623 -1.7246  0.4595
27162SOL    HW286334   8.413   9.058   5.499 -0.4337 -0.1437  1.2405
27163SOL     OW86335   7.080   7.247   3.918 -0.4569  0.0925 -0.2293
27163SOL    HW186336   7.000   7.223   3.871 -0.0867 -2.7547  0.4784
27163SOL    HW286337   7.148   7.251   3.850 -1.0491  1.9072 -0.7411
27164SOL     OW86338   8.150   9.244   4.241 -0.3315  0.0256  0.7664
27164SOL    HW186339   8.161   9.333   4.208 -0.7761 -0.7767 -1.7218
27164SOL    HW286340   8.214   9.193   4.191 -0.8322 -1.2087  1.3719
27165SOL     OW86341   0.030   9.192   4.963 -0.3334  0.3679  0.6042
27165SOL    HW186342   0.101   9.221   5.020 -0.1021  0.0916  0.4553
27165SOL    HW286343   0.032   9.252   4.888  0.2270 -0.1148  0.2337
27166SOL     OW86344   6.842   7.982   4.356 -0.6654  0.0086 -0.2869
27166SOL    HW186345   6.898   7.905   4.352  0.7967  1.0304 -0.0323
27166SOL    HW286346   6.885   8.046   4.299 -0.9999  1.1866  0.7650
27167SOL     OW86347   7.582   0.582   6.474  0.3339 -0.6421 -0.4145
27167SOL    HW186348   7.606   0.587   6.566  1.5265  0.7343 -0.7797
27167SOL    HW286349   7.512   0.646   6.463  2.2220  1.3830 -1.0474
27168SOL     OW86350   9.210   7.655   4.794  0.6085 -0.0930  0.0505
27168SOL    HW186351   9.291   7.698   4.767  0.4451  0.4896  0.4682
27168SOL    HW286352   9.238   7.570   4.827  1.0839  0.2021  0.4264
27169SOL     OW86353   7.587   7.942   4.062  0.2750 -1.1082  0.9401
27169SOL    HW186354   7.564   7.873   4.123 -2.2308  0.5397  1.9533
27169SOL    HW286355   7.508   7.996   4.055  1.7752  1.0148 -0.6665
27170SOL     OW86356   8.507   6.707   5.152 -0.2550 -0.3311 -0.5957
27170SOL    HW186357   8.464   6.732   5.070 -1.4985 -2.0108 -0.4787
27170SOL    HW286358   8.450   6.739   5.221  0.2045  0.0678 -0.3951
27171SOL     OW86359   9.125   8.167   4.655  0.5387  0.4082  0.5949
27171SOL    HW186360   9.139   8.242   4.598  0.1293  0.3979  0.4737
27171SOL    HW286361   9.037   8.137   4.632 -0.1253  1.1642  2.1163
27172SOL     OW86362   9.580   0.012   4.317 -0.3437 -0.2288  0.2033
27172SOL    HW186363   9.556   0.098   4.283 -1.8840  0.1834  2.2775
27172SOL    HW286364   9.526  -0.049   4.267  1.2709 -0.1030 -1.7806
27173SOL     OW86365   7.719   7.593   3.241 -0.2518  0.5672  0.8290
27173SOL    HW186366   7.808   7.561   3.249 -0.6758 -0.9620 -0.5091
27173SOL    HW286367   7.666   7.515   3.223 -1.6353  1.6661  0.0033
27174SOL     OW86368   9.418   7.809   3.697 -0.4227 -0.6180 -0.1654
27174SOL    HW186369   9.466   7.891   3.690 -1.7701  0.1910 -0.1804
27174SOL    HW286370   9.426   7.769   3.610 -1.1665  0.3052 -0.6658
27175SOL     OW86371   1.417   9.311   3.683 -0.2432  0.3304  0.4531
27175SOL    HW186372   1.502   9.347   3.658 -0.2178  1.0361  1.5248
27175SOL    HW286373   1.355   9.383   3.666 -0.8397 -0.6209 -1.5946
27176SOL     OW86374   7.916   8.018   4.709 -0.1656  0.1700  0.7277
27176SOL    HW186375   7.834   8.019   4.659  0.0203 -0.4073  0.4021
27176SOL    HW286376   7.967   7.947   4.670  0.3944  0.3723  1.0851
27177SOL     OW86377   8.876   8.547   4.813 -0.0106  0.2535  0.1971
27177SOL    HW186378   8.853   8.462   4.850 -0.0253 -0.1092 -0.6471
27177SOL    HW286379   8.959   8.569   4.855  0.9243 -1.0271 -0.9397
27178SOL     OW86380   9.155   9.108   3.945 -0.5654 -0.4215  0.2848
27178SOL    HW186381   9.105   9.181   3.982 -0.4493 -0.3065  0.2184
27178SOL    HW286382   9.234   9.149   3.909  0.3506 -0.7980  1.8206
27179SOL     OW86383   7.590   8.004   4.829  0.4465  0.6581  0.2587
27179SOL    HW186384   7.588   8.061   4.753  1.7399  1.7328  1.0005
27179SOL    HW286385   7.500   7.974   4.840 -0.2684  2.6301 -0.0905
27180SOL     OW86386   8.550   8.695   4.046 -0.2165 -0.2710 -0.2869
27180SOL    HW186387   8.522   8.682   3.956 -1.4003 -0.6009  0.1249
27180SOL    HW286388   8.470   8.718   4.093  0.3357 -0.4332  0.7490
27181SOL     OW86389   8.942   9.831   4.486 -0.1238  0.4042  0.3189
27181SOL    HW186390   8.952   9.865   4.397 -0.7465  0.5043  0.2847
27181SOL    HW286391   9.017   9.867   4.534  0.2940  0.2352 -0.1966
27182SOL     OW86392   8.528   8.099   4.925  0.3875  0.4815  0.3049
27182SOL    HW186393   8.498   8.110   5.015 -0.7699  1.1608 -0.1518
27182SOL    HW286394   8.589   8.171   4.911 -0.1559  0.9346  0.2497
27183SOL     OW86395   9.537   0.228   5.693 -0.1893  0.6886 -0.1920
27183SOL    HW186396   9.617   0.260   5.734 -0.5321 -0.0010  1.0291
27183SOL    HW286397   9.474   0.300   5.706  0.2598  1.2829 -1.2672
27184SOL     OW86398   9.656   8.876   4.600  1.0535 -0.4881  0.0472
27184SOL    HW186399   9.646   8.967   4.627  0.7836 -0.4870 -0.0625
27184SOL    HW286400   9.683   8.880   4.509  1.2909 -0.5132  0.1142
27185SOL     OW86401   9.025   7.098   3.683 -0.6083 -0.2433  0.2160
27185SOL    HW186402   9.069   7.177   3.714  0.7586 -0.9149  0.0385
27185SOL    HW286403   9.031   7.103   3.587  0.0590 -0.8675  0.2195
27186SOL     OW86404   9.175   6.745   4.132 -0.6195  0.1964 -0.1018
27186SOL    HW186405   9.271   6.739   4.126 -0.5310  2.2946 -1.4452
27186SOL    HW286406   9.150   6.798   4.057 -2.7580  0.4912  0.7873
27187SOL     OW86407   9.794   9.440   4.287 -0.0343 -0.2703  0.0483
27187SOL    HW186408   9.875   9.486   4.265 -0.2001 -0.4357 -0.9196
27187SOL    HW286409   9.727   9.482   4.235 -0.1581 -1.7059 -0.9943
27188SOL     OW86410   7.017   9.894   6.545 -0.4956  0.0296  1.2416
27188SOL    HW186411   7.064   9.865   6.624  0.0310 -0.5932  0.7031
27188SOL    HW286412   6.930   9.917   6.577  0.1196  1.0417  2.2270
27189SOL     OW86413   8.917   7.300   4.724 -0.2131  0.0694 -0.0827
27189SOL    HW186414   8.996   7.342   4.689  0.1768  0.3851  1.1476
27189SOL    HW286415   8.950   7.238   4.789 -0.9930  0.3760  0.6024
27190SOL     OW86416   8.061   8.901   4.195  0.1179  0.0014  0.5448
27190SOL    HW186417   8.102   8.919   4.110 -0.2761 -2.0489 -0.1098
27190SOL    HW286418   8.131   8.862   4.248 -0.1553 -0.5644  0.4915
27191SOL     OW86419   7.767   6.511   4.983  0.0235 -0.2027  0.1856
27191SOL    HW186420   7.752   6.585   5.042 -0.7959 -0.6502  0.5500
27191SOL    HW286421   7.785   6.551   4.898 -0.5049  0.4123  0.3620
27192SOL     OW86422   7.834   7.017   5.643 -0.0705 -0.3622  0.0970
27192SOL    HW186423   7.744   6.986   5.660 -1.0093  0.3931 -3.1814
27192SOL    HW286424   7.827   7.113   5.644  0.3437 -0.3001 -1.8336
27193SOL     OW86425   7.305   7.955   4.694  0.1430 -0.3554  0.2259
27193SOL    HW186426   7.322   7.940   4.601  1.5061  1.6920  0.1236
27193SOL    HW286427   7.212   7.934   4.705  0.0309 -0.8888 -1.5171
27194SOL     OW86428   9.430   0.454   5.783 -0.0259 -0.2977 -0.4774
27194SOL    HW186429   9.353   0.477   5.836 -0.3228 -0.3064 -0.9012
27194SOL    HW286430   9.505   0.480   5.836 -0.3408  1.3273 -0.7946
27195SOL     OW86431   7.706   7.544   4.995 -0.3625  0.3534  0.3111
27195SOL    HW186432   7.655   7.599   4.936 -2.7939 -1.2467  0.8469
27195SOL    HW286433   7.792   7.587   5.000 -1.2045  2.3575 -1.6799
27196SOL     OW86434   0.736   7.239   6.176 -0.2885 -0.7621 -0.4710
27196SOL    HW186435   0.759   7.249   6.269 -1.7526 -3.2626  0.1986
27196SOL    HW286436   0.787   7.307   6.132 -0.6273  1.4150  2.3118
27197SOL     OW86437   0.775   9.387   3.079 -0.3589  0.5360  0.1877
27197SOL    HW186438   0.765   9.419   2.990 -1.7325  0.7753  0.4190
27197SOL    HW286439   0.698   9.420   3.125  0.0106 -0.1347  1.3008
27198SOL     OW86440   7.445   9.380   4.647 -0.2193  0.1740  0.0338
27198SOL    HW186441   7.528   9.427   4.649 -0.4237  0.4972  2.1828
27198SOL    HW286442   7.469   9.289   4.631  0.5328  0.3053  0.3961
27199SOL     OW86443   7.953   9.225   5.219 -0.3104  0.5311  0.0236
27199SOL    HW186444   7.949   9.259   5.130 -1.1317  1.1436  0.2930
27199SOL    HW286445   7.862   9.219   5.247 -0.3164 -3.3572 -0.5624
27200SOL     OW86446   9.289   9.448   5.180 -0.3205  0.0369 -0.1611
27200SOL    HW186447   9.280   9.369   5.233 -0.7263  0.5640  0.5605
27200SOL    HW286448   9.217   9.442   5.117 -0.0531 -0.4098 -0.4225
27201SOL     OW86449   8.251   0.122   6.296 -0.0754 -0.1824  0.0332
27201SOL    HW186450   8.328   0.166   6.332 -0.5396 -1.8535  3.2846
27201SOL    HW286451   8.286   0.044   6.253  0.0777 -1.4158  2.2810
27202SOL     OW86452   6.625   9.053   5.023 -0.1261 -0.6429 -0.2607
27202SOL    HW186453   6.586   8.976   5.064 -4.1885  0.3643 -2.0088
27202SOL    HW286454   6.614   9.038   4.929  1.7561  0.7466 -0.7282
27203SOL     OW86455   8.105   8.985   5.219  0.7882 -0.2634 -0.0820
27203SOL    HW186456   8.173   9.029   5.269 -0.5393  1.4006  0.3218
27203SOL    HW286457   8.038   9.052   5.205  0.0746 -1.3297 -2.0846
27204SOL     OW86458   8.459   7.827   4.861 -0.0579 -0.0819 -0.1386
27204SOL    HW186459   8.406   7.883   4.917 -1.8067 -0.8219 -1.0118
27204SOL    HW286460   8.411   7.744   4.858  0.4320 -0.3205 -2.0751
27205SOL     OW86461   9.854   8.732   3.449  0.3031  0.2894 -0.4969
27205SOL    HW186462   9.873   8.702   3.538  0.6756 -0.4913 -0.8317
27205SOL    HW286463   9.827   8.823   3.459  1.6558  0.6177  0.2790
27206SOL     OW86464   8.132   0.180   4.953 -0.6674 -0.0512  0.0633
27206SOL    HW186465   8.194   0.213   4.888 -2.2500  3.8205  0.3340
27206SOL    HW286466   8.083   0.112   4.907  2.5242 -1.8993 -0.6940
27207SOL     OW86467   7.967   7.737   4.076  0.5479 -0.0628 -0.3200
27207SOL    HW186468   7.919   7.788   4.012 -2.5903 -0.3848  1.6526
27207SOL    HW286469   7.977   7.795   4.151  2.4138 -0.3400 -0.3223
27208SOL     OW86470   7.694   9.498   4.677  0.5730  0.0100  0.0681
27208SOL    HW186471   7.763   9.448   4.721  1.1460  0.6841 -0.0640
27208SOL    HW286472   7.735   9.530   4.597  0.0547  0.2804 -0.0904
27209SOL     OW86473   8.159   9.555   4.990 -0.6882 -0.4023  0.1311
27209SOL    HW186474   8.213   9.493   5.038 -0.2727 -0.4491 -0.4024
27209SOL    HW286475   8.153   9.519   4.901  0.4207  0.8395 -0.4656
27210SOL     OW86476   8.615   7.660   3.005  0.3413 -0.4126  0.0732
27210SOL    HW186477   8.601   7.754   2.996  0.7220 -0.5068 -1.5221
27210SOL    HW286478   8.554   7.620   2.943  0.4218 -1.2153  0.4925
27211SOL     OW86479   8.241   6.965   6.174  0.8459 -0.2734 -0.3850
27211SOL    HW186480   8.281   7.052   6.166  0.3887 -0.0202  0.0472
27211SOL    HW286481   8.149   6.983   6.193  0.8381 -0.8569  0.1233
27212SOL     OW86482   6.742   7.470   3.757 -0.2822 -0.7417  0.2417
27212SOL    HW186483   6.790   7.545   3.793 -1.0129 -0.7315  1.2206
27212SOL    HW286484   6.762   7.398   3.817 -1.2333 -0.8106  0.4871
27213SOL     OW86485   7.598   6.017   5.420  0.8417  0.3063  0.2999
27213SOL    HW186486   7.661   5.950   5.391 -1.2274 -0.1115 -3.6045
27213SOL    HW286487   7.645   6.099   5.411  1.5798 -0.1832 -0.3980
27214SOL     OW86488   8.996   9.500   6.206  0.0232 -0.3206  0.3132
27214SOL    HW186489   9.021   9.511   6.114 -1.2043  0.6397  0.0919
27214SOL    HW286490   8.947   9.579   6.227  0.6834 -0.3217  1.9368
27215SOL     OW86491   7.106   7.754   4.929  0.0822 -1.1466  0.3267
27215SOL    HW186492   7.022   7.769   4.972  1.4546 -1.1493  3.1447
27215SOL    HW286493   7.170   7.793   4.988  1.8497  2.0229 -3.4231
27216SOL     OW86494   8.982   8.264   3.888  0.1277  0.2206 -0.0909
27216SOL    HW186495   9.050   8.226   3.832  0.8450  0.0664  0.8724
27216SOL    HW286496   8.963   8.196   3.953 -0.2537  0.6236  0.2249
27217SOL     OW86497   9.342   9.094   4.251  0.1004  0.3118 -0.1101
27217SOL    HW186498   9.418   9.127   4.203 -0.2535 -1.3810 -1.9473
27217SOL    HW286499   9.273   9.157   4.233  0.3492  0.4288 -0.6681
27218SOL     OW86500   7.236   8.833   5.317 -0.0338  0.0826 -0.4880
27218SOL    HW186501   7.252   8.899   5.384  0.9089 -0.8493  0.2173
27218SOL    HW286502   7.293   8.760   5.340 -0.9165 -0.9166 -1.3671
27219SOL     OW86503   8.073   8.225   3.416  0.2443 -0.0548  0.4024
27219SOL    HW186504   8.066   8.320   3.420  0.6032  0.0256 -0.8363
27219SOL    HW286505   8.097   8.206   3.326 -0.1761 -1.3496  0.5494
27220SOL     OW86506   9.138   7.401   3.265  0.3354 -0.1413 -0.4652
27220SOL    HW186507   9.097   7.406   3.352  0.5145 -0.4788 -0.3616
27220SOL    HW286508   9.110   7.317   3.229 -0.2422  0.2760 -0.9947
27221SOL     OW86509   9.271   7.765   5.914 -0.3176  0.3075 -0.6147
27221SOL    HW186510   9.273   7.858   5.890  1.6044  0.8715  1.5389
27221SOL    HW286511   9.363   7.742   5.927 -0.9761 -1.0974  1.8306
27222SOL     OW86512   7.750   8.144   5.331 -0.5150 -0.1238  0.2483
27222SOL    HW186513   7.700   8.222   5.306  0.8537  0.7084  0.0686
27222SOL    HW286514   7.835   8.155   5.288  0.7192 -0.2848  2.5739
27223SOL     OW86515   8.066   9.077   3.666 -0.0676  0.5484  0.0784
27223SOL    HW186516   8.113   9.138   3.609 -3.1436  0.9313 -2.1797
27223SOL    HW286517   8.092   8.990   3.634 -0.0800  0.7344 -0.4452
27224SOL     OW86518   6.699   8.949   6.565 -0.4180  0.0504 -0.2711
27224SOL    HW186519   6.654   8.980   6.486 -4.7088  0.1701  2.0870
27224SOL    HW286520   6.697   9.024   6.625  4.0291  0.4195 -0.3744
27225SOL     OW86521   7.948   8.722   3.677  0.0135  0.0088 -0.3674
27225SOL    HW186522   8.003   8.794   3.644 -1.4663  0.9014 -0.9050
27225SOL    HW286523   7.998   8.643   3.655  0.7770  0.7671 -1.4712
27226SOL     OW86524   9.137   9.277   4.230  0.2593 -0.0159 -0.1807
27226SOL    HW186525   9.160   9.369   4.220 -1.3653  0.3980 -0.1631
27226SOL    HW286526   9.051   9.268   4.189  0.1437 -1.4000  0.3129
27227SOL     OW86527   7.337   7.605   4.570  0.3528  1.0503  0.3003
27227SOL    HW186528   7.383   7.648   4.642  1.0764  2.2018 -0.8443
27227SOL    HW286529   7.406   7.562   4.520 -0.3889 -1.8845  1.6769
27228SOL     OW86530   8.164   8.042   3.930  0.4283  0.0603  0.2571
27228SOL    HW186531   8.211   7.996   3.999  0.4554  1.2464  1.0451
27228SOL    HW286532   8.152   7.977   3.861  3.3154 -0.2373 -0.0207
27229SOL     OW86533   8.928   8.718   4.302 -0.2860  0.2637  0.2078
27229SOL    HW186534   8.913   8.689   4.392  1.8601 -0.5208  0.3271
27229SOL    HW286535   9.003   8.667   4.272  0.1199  1.7867 -1.4371
27230SOL     OW86536   7.277   8.741   5.049  0.1856  0.1323 -0.3941
27230SOL    HW186537   7.199   8.786   5.019  0.6182  0.0934 -1.6101
27230SOL    HW286538   7.271   8.743   5.145 -1.1973  0.2851 -0.4747
27231SOL     OW86539   1.319   9.026   4.695  0.8167  0.4577 -0.8378
27231SOL    HW186540   1.239   8.974   4.686  0.7859  0.0477  1.4240
27231SOL    HW286541   1.389   8.965   4.670  0.7387 -0.5717  1.3209
27232SOL     OW86542   9.734   8.192   4.467 -0.8660 -0.0035  0.3179
27232SOL    HW186543   9.667   8.256   4.445  0.2885  1.1829  0.2504
27232SOL    HW286544   9.808   8.243   4.499  0.6249 -1.1905 -1.1437
27233SOL     OW86545   9.831   7.095   2.623 -0.0458 -0.0003  0.1282
27233SOL    HW186546   9.843   7.125   2.713  0.4239  1.1364 -0.3015
27233SOL    HW286547   9.908   7.040   2.606  0.3308  0.5308  0.1134
27234SOL     OW86548   7.369   9.060   6.802  0.4434  0.0737  0.1135
27234SOL    HW186549   7.431   9.063   6.874 -0.9510 -3.8624  1.6627
27234SOL    HW286550   7.422   9.046   6.724  1.7207  0.5141  0.8988
27235SOL     OW86551   9.899   7.951   2.558  0.0408 -0.1243 -0.2500
27235SOL    HW186552   9.951   7.883   2.516 -0.8908 -1.0519  0.0817
27235SOL    HW286553   9.907   7.934   2.652  0.6687  0.8709 -0.1126
27236SOL     OW86554   8.870   9.509   4.795  0.0883 -0.8192 -0.2786
27236SOL    HW186555   8.933   9.580   4.806 -0.3888 -0.2975 -0.8598
27236SOL    HW286556   8.862   9.498   4.701 -0.5895 -0.9699 -0.2094
27237SOL     OW86557   7.399   8.009   3.763 -0.1603  0.3553  0.2151
27237SOL    HW186558   7.445   7.925   3.767  0.4447  0.6959  0.5430
27237SOL    HW286559   7.350   8.014   3.844 -1.3367 -0.3168 -0.4436
27238SOL     OW86560   9.387   8.674   4.089 -0.0296  0.5228  0.2708
27238SOL    HW186561   9.423   8.732   4.156 -0.1685  0.7929  0.1115
27238SOL    HW286562   9.295   8.700   4.081  0.0957  0.7954 -0.3455
27239SOL     OW86563   8.066   9.323   5.944  0.2568  0.3048 -0.3278
27239SOL    HW186564   8.070   9.351   5.852 -5.0364  1.7880 -0.2683
27239SOL    HW286565   8.062   9.405   5.993 -1.7390 -0.4504  0.8198
27240SOL     OW86566   9.670   8.893   5.786 -0.3143 -0.7636  0.5326
27240SOL    HW186567   9.656   8.985   5.805  3.2395 -0.0133 -0.0755
27240SOL    HW286568   9.585   8.861   5.754 -1.3331  2.5068 -0.1525
27241SOL     OW86569   7.739   8.799   3.832  0.0905  0.0305  0.0769
27241SOL    HW186570   7.787   8.789   3.749  1.2091 -1.2331  0.8665
27241SOL    HW286571   7.803   8.777   3.899 -0.8609  0.9227  1.2803
27242SOL     OW86572   7.710   8.719   5.182  0.4847 -0.0240 -0.0932
27242SOL    HW186573   7.768   8.661   5.230  0.6063 -0.2219 -0.4816
27242SOL    HW286574   7.752   8.805   5.188  1.9672 -0.5584 -2.2414
27243SOL     OW86575   9.476   6.916   4.820 -0.1042 -0.6838  0.1315
27243SOL    HW186576   9.522   6.957   4.893  0.5204 -1.3021  0.0969
27243SOL    HW286577   9.438   6.989   4.771 -0.6980 -0.2822  1.1811
27244SOL     OW86578   8.804   7.409   5.455 -0.4824  0.6925 -0.3088
27244SOL    HW186579   8.804   7.480   5.519  1.0660  0.2243  0.2295
27244SOL    HW286580   8.884   7.422   5.404 -0.4281 -0.3998 -0.5205
27245SOL     OW86581   7.759   8.202   3.242  0.5837  0.1724  0.0344
27245SOL    HW186582   7.774   8.176   3.333 -0.9834  1.4945  0.7003
27245SOL    HW286583   7.792   8.292   3.238 -0.8017  0.6714 -0.2793
27246SOL     OW86584   7.081   8.191   6.274 -0.2117  0.2849 -0.4457
27246SOL    HW186585   7.141   8.243   6.328  0.7988 -0.2967 -0.9955
27246SOL    HW286586   7.028   8.144   6.337  0.6555 -0.0371  0.0552
27247SOL     OW86587   8.548   7.178   4.028 -0.0929 -0.1188 -0.5079
27247SOL    HW186588   8.607   7.104   4.014 -1.9152 -1.4185 -1.5218
27247SOL    HW286589   8.520   7.169   4.119 -1.2368 -1.3890 -0.9701
27248SOL     OW86590   5.933   8.952   4.474 -0.2894  0.0128  0.4838
27248SOL    HW186591   5.941   8.892   4.548 -0.2421 -0.6466 -0.0571
27248SOL    HW286592   5.946   8.897   4.397  0.6628  0.8795  0.0149
27249SOL     OW86593   7.099   8.713   4.823 -0.0693  0.0345  0.4037
27249SOL    HW186594   7.114   8.681   4.734 -1.6439 -0.6797  0.3791
27249SOL    HW286595   7.003   8.718   4.831  0.0811  2.5623  1.1784
27250SOL     OW86596   0.164   8.171   5.521  0.0724  0.7167  0.1082
27250SOL    HW186597   0.117   8.252   5.503 -0.3843 -0.0081 -2.1254
27250SOL    HW286598   0.257   8.193   5.508 -0.0551  0.8709 -0.5261
27251SOL     OW86599   8.632   8.786   4.685  0.0211 -0.5812 -0.2071
27251SOL    HW186600   8.666   8.703   4.717  2.8377  0.1612 -1.0998
27251SOL    HW286601   8.699   8.818   4.625 -2.4245  0.8586 -2.3048
27252SOL     OW86602   8.903   8.581   4.555 -0.2804 -0.4872  0.0847
27252SOL    HW186603   8.915   8.489   4.533  2.3321 -0.5048  1.3346
27252SOL    HW286604   8.892   8.582   4.650  0.4783  0.5445  0.1702
27253SOL     OW86605   7.725   7.940   6.700 -0.2297 -0.1878  0.4554
27253SOL    HW186606   7.749   7.890   6.622 -0.0726 -1.0952  1.0833
27253SOL    HW286607   7.802   7.994   6.718  0.3708 -1.1873  0.9386
27254SOL     OW86608   9.221   9.159   4.859  0.0712  0.0283  0.4017
27254SOL    HW186609   9.164   9.224   4.818  0.7576  0.5877  0.3147
27254SOL    HW286610   9.191   9.075   4.825 -0.7776  0.3063  0.4550
27255SOL     OW86611   7.292   6.474   5.295  0.2043  0.1038 -0.3955
27255SOL    HW186612   7.294   6.402   5.232 -2.4184 -0.9271  0.6321
27255SOL    HW286613   7.305   6.432   5.380 -2.3960  0.6591  0.3131
27256SOL     OW86614   9.365   8.341   6.168 -0.0572 -0.0460  0.4857
27256SOL    HW186615   9.361   8.318   6.261  0.8907 -0.9413  0.3015
27256SOL    HW286616   9.409   8.426   6.167  1.5180 -0.8461  0.7271
27257SOL     OW86617   8.434   8.031   4.308  0.4000 -0.0434  0.2233
27257SOL    HW186618   8.383   7.950   4.301 -0.7662  0.7172 -0.2182
27257SOL    HW286619   8.517   8.004   4.349 -1.6067 -0.7845  4.0337
27258SOL     OW86620   9.159   8.501   3.821 -0.7549  0.2911 -0.2444
27258SOL    HW186621   9.180   8.424   3.874 -0.9190  0.5765  0.2380
27258SOL    HW286622   9.102   8.553   3.877 -1.0028  0.5509 -0.7418
27259SOL     OW86623   8.364   9.032   3.731 -0.3360  0.0457 -0.7962
27259SOL    HW186624   8.369   9.066   3.642  0.5943 -0.6137 -0.9980
27259SOL    HW286625   8.393   8.941   3.725  1.7210  0.5741  0.4908
27260SOL     OW86626   8.735   9.347   4.405 -0.1518 -0.0256 -0.5604
27260SOL    HW186627   8.792   9.421   4.423  0.3104 -0.6435  0.6022
27260SOL    HW286628   8.672   9.347   4.476  0.8083 -1.6551  0.3425
27261SOL     OW86629   6.843   4.669   5.072 -0.4692  0.3050  0.6790
27261SOL    HW186630   6.804   4.753   5.099  1.1438  0.8471  1.3956
27261SOL    HW286631   6.862   4.681   4.979 -1.9265  0.0625  0.3417
27262SOL     OW86632   8.441   8.059   5.202 -0.2266  0.0344 -0.2682
27262SOL    HW186633   8.503   7.985   5.204 -0.8918 -0.5049  0.4831
27262SOL    HW286634   8.362   8.025   5.244 -0.8364  0.9083 -0.7124
27263SOL     OW86635   9.179   8.621   4.412  0.8838 -0.0817 -0.3018
27263SOL    HW186636   9.236   8.556   4.372 -1.4805 -0.9273 -2.3730
27263SOL    HW286637   9.136   8.575   4.484  0.5754 -0.2817 -0.6168
27264SOL     OW86638   6.511   8.785   3.802  0.6829 -1.0967 -0.1430
27264SOL    HW186639   6.510   8.866   3.751 -0.9004  0.1394  1.7835
27264SOL    HW286640   6.444   8.730   3.761 -1.0539  0.1509  0.9385
27265SOL     OW86641   9.347   9.289   3.863  0.3777  0.8606  0.2068
27265SOL    HW186642   9.391   9.269   3.781 -0.8524  2.0763 -0.7714
27265SOL    HW286643   9.295   9.367   3.844 -1.4057  0.0492  1.6142
27266SOL     OW86644   8.335   8.479   5.166  0.3035 -0.5605 -0.5386
27266SOL    HW186645   8.399   8.536   5.123 -0.3006 -1.2913 -2.4188
27266SOL    HW286646   8.250   8.515   5.140 -0.0693 -1.3545 -0.4357
27267SOL     OW86647   9.996   9.063   5.783 -0.0592  0.1974  0.1025
27267SOL    HW186648   9.968   9.043   5.873 -0.3040 -0.3234 -0.0909
27267SOL    HW286649  10.002   9.158   5.781 -0.0167  0.2130  0.6861
27268SOL     OW86650   7.666   7.873   5.856  0.6175 -0.2917  0.2123
27268SOL    HW186651   7.729   7.839   5.793  0.2388  0.3119 -0.5107
27268SOL    HW286652   7.581   7.842   5.825  0.3722  0.4528  0.1120
27269SOL     OW86653   9.231   7.836   4.520  0.2732  0.0634  0.3054
27269SOL    HW186654   9.143   7.801   4.527 -0.0752  0.4736 -1.6564
27269SOL    HW286655   9.219   7.930   4.510  1.0066  0.2777  1.3214
27270SOL     OW86656   8.698   7.126   4.325  0.0280 -0.2854  0.1574
27270SOL    HW186657   8.606   7.152   4.319  0.0483  0.5006  2.4449
27270SOL    HW286658   8.698   7.032   4.310 -0.7862  0.1215 -2.5757
27271SOL     OW86659   7.151   9.004   5.059 -0.4937 -0.2201 -0.3283
27271SOL    HW186660   7.056   8.990   5.065 -0.3550 -1.1376 -0.3073
27271SOL    HW286661   7.186   8.966   5.139 -0.1328  0.3628 -0.2106
27272SOL     OW86662   7.190   7.773   5.359 -0.4367 -0.2733  0.4009
27272SOL    HW186663   7.213   7.819   5.278  1.2168 -0.0530  0.9652
27272SOL    HW286664   7.187   7.681   5.334 -0.2441 -0.1796  0.0218
27273SOL     OW86665   8.706   7.267   4.566 -0.3999 -0.4563  0.1707
27273SOL    HW186666   8.786   7.293   4.611 -1.3509  3.2559 -0.0914
27273SOL    HW286667   8.736   7.216   4.491  1.6633 -0.0642  0.7011
27274SOL     OW86668   7.271   8.633   5.661  0.4630  0.4432  0.6186
27274SOL    HW186669   7.303   8.669   5.578  0.7480 -2.1397 -0.4475
27274SOL    HW286670   7.344   8.647   5.722  0.1711  2.5563  0.5363
27275SOL     OW86671   7.308   8.400   3.790 -0.1479  0.2100  0.3872
27275SOL    HW186672   7.226   8.382   3.835 -1.6432  0.5639 -2.0973
27275SOL    HW286673   7.308   8.495   3.779  0.4322  0.1731  0.0763
27276SOL     OW86674   7.489   9.936   3.871  0.1023  0.1094  0.9344
27276SOL    HW186675   7.575   9.927   3.912  0.5316 -1.1962 -0.2081
27276SOL    HW286676   7.480  10.029   3.852  0.3701  0.5709  2.9444
27277SOL     OW86677   8.924   9.143   4.379  0.2961  0.1052  0.1624
27277SOL    HW186678   9.014   9.176   4.371  0.5348 -0.5363  0.1737
27277SOL    HW286679   8.870   9.222   4.386  0.9652  0.4822  1.3064
27278SOL     OW86680   7.531   6.978   4.342  0.2467  0.3556 -0.3178
27278SOL    HW186681   7.625   6.980   4.323  0.3061  0.3179 -0.0339
27278SOL    HW286682   7.526   6.973   4.437 -0.0259 -0.7487 -0.3821
27279SOL     OW86683   7.039   9.216   6.576  0.3356  0.4134  0.1810
27279SOL    HW186684   6.953   9.206   6.535  0.4118 -1.0160  0.3521
27279SOL    HW286685   7.059   9.130   6.613  1.8895  0.6908  0.0444
27280SOL     OW86686   7.655   8.023   6.095 -0.0575  0.1705 -0.2525
27280SOL    HW186687   7.689   8.108   6.064 -1.1735  0.6251 -0.2366
27280SOL    HW286688   7.635   7.974   6.016  1.2543 -0.3563 -0.2683
27281SOL     OW86689   7.918   9.552   5.306 -0.7579 -0.1446  0.5813
27281SOL    HW186690   7.986   9.486   5.293  0.2252  0.9585  0.1136
27281SOL    HW286691   7.896   9.545   5.399 -1.6979 -2.1121  0.2435
27282SOL     OW86692   7.631   6.698   3.759  0.0710  0.6938 -0.0662
27282SOL    HW186693   7.596   6.672   3.845  0.1018  1.6517  0.2419
27282SOL    HW286694   7.554   6.731   3.712 -0.5951 -2.9339 -1.6401
27283SOL     OW86695   0.202   9.452   5.679 -0.2656 -0.0943  0.1015
27283SOL    HW186696   0.192   9.413   5.766  0.5426 -2.1782 -0.7114
27283SOL    HW286697   0.289   9.493   5.681  0.4874 -1.6224 -0.2501
27284SOL     OW86698   7.781   8.904   5.655 -0.0887  0.8974 -0.3829
27284SOL    HW186699   7.841   8.891   5.582  0.4348 -1.3801  0.4318
27284SOL    HW286700   7.829   8.963   5.715  1.0865 -0.3736 -0.0488
27285SOL     OW86701   7.480   8.560   5.029 -0.1483 -0.0541  0.7189
27285SOL    HW186702   7.519   8.629   5.083  0.9883 -0.8161  0.8761
27285SOL    HW286703   7.389   8.588   5.017  0.6010  2.0915 -0.2247
27286SOL     OW86704   8.564   8.310   5.291  0.5102 -0.4028 -0.0280
27286SOL    HW186705   8.502   8.355   5.233  2.3290 -0.2010 -1.8780
27286SOL    HW286706   8.551   8.217   5.272  0.8742 -0.3532 -0.5238
27287SOL     OW86707   8.458   7.170   3.640 -0.2063  0.3109  0.1679
27287SOL    HW186708   8.469   7.109   3.568  1.8678  1.1246 -0.2531
27287SOL    HW286709   8.457   7.256   3.599 -1.2434  0.6583  0.9130
27288SOL     OW86710   7.331   9.095   5.836  0.5785 -0.2280  0.1642
27288SOL    HW186711   7.278   9.034   5.888  1.0013  0.0674  0.9468
27288SOL    HW286712   7.268   9.158   5.801  0.6288  1.3664  2.7967
27289SOL     OW86713   6.961   7.493   2.703  0.0728 -0.2664 -0.4529
27289SOL    HW186714   6.994   7.539   2.780 -0.8154  0.9076 -0.7617
27289SOL    HW286715   6.867   7.513   2.701  0.3746  1.1580 -2.8088
27290SOL     OW86716   9.049   7.418   3.514 -0.4736  0.2138 -0.4076
27290SOL    HW186717   8.957   7.409   3.539 -0.4969 -1.1667 -0.9712
27290SOL    HW286718   9.097   7.365   3.577 -0.0393  1.0565 -0.0173
27291SOL     OW86719   9.453   9.010   4.817  0.2564  0.3562  0.3354
27291SOL    HW186720   9.389   9.080   4.832 -0.4588 -0.0046 -0.9511
27291SOL    HW286721   9.481   9.022   4.727 -1.0832 -1.9719 -0.4461
27292SOL     OW86722   8.877   9.286   4.091 -0.7487 -0.5753  0.9269
27292SOL    HW186723   8.900   9.370   4.050  1.2079 -1.5283  0.0238
27292SOL    HW286724   8.815   9.310   4.160 -1.3394  1.4542 -0.2338
27293SOL     OW86725   8.526   9.090   5.210  0.2193 -0.0887 -0.8032
27293SOL    HW186726   8.605   9.126   5.250 -0.5376  1.6927 -0.8903
27293SOL    HW286727   8.549   9.078   5.118  0.5482 -0.0707 -0.7231
27294SOL     OW86728   9.456   8.870   6.769 -0.1244  0.5821  0.2794
27294SOL    HW186729   9.500   8.884   6.853 -0.6762  0.3015  0.6255
27294SOL    HW286730   9.477   8.947   6.717 -2.4366  2.3368  1.8382
27295SOL     OW86731   0.167   6.902   3.639  0.7230 -0.6698  0.1228
27295SOL    HW186732   0.099   6.969   3.652 -1.4446 -2.3950 -1.8718
27295SOL    HW286733   0.196   6.881   3.728  0.5919  2.0350  0.8507
27296SOL     OW86734   8.896   8.756   3.744  0.0058 -0.1298 -0.2910
27296SOL    HW186735   8.869   8.709   3.823 -1.4361  1.4480  0.1732
27296SOL    HW286736   8.901   8.687   3.677 -4.2027 -0.7273 -0.1541
27297SOL     OW86737   8.538   8.721   6.070  0.3178 -0.5938  0.0008
27297SOL    HW186738   8.467   8.779   6.044  1.1261  0.0824 -0.7428
27297SOL    HW286739   8.494   8.641   6.101 -0.7841  0.3662  0.9383
27298SOL     OW86740   9.637   7.656   5.191 -0.4564 -0.0057 -0.0127
27298SOL    HW186741   9.654   7.709   5.112 -0.2197 -0.8108 -0.5077
27298SOL    HW286742   9.636   7.720   5.262  1.9795  0.4224 -0.3031
27299SOL     OW86743   9.060   7.841   4.909  0.4795 -0.3510  0.2542
27299SOL    HW186744   9.121   7.775   4.875 -0.4615 -1.4675  0.7115
27299SOL    HW286745   9.112   7.922   4.911  1.3246 -0.8216 -1.3423
27300SOL     OW86746   8.606   9.711   2.178  0.1009 -0.0831  0.8537
27300SOL    HW186747   8.614   9.686   2.086  0.0396 -1.1587  1.1356
27300SOL    HW286748   8.633   9.803   2.180  0.3173 -0.1154 -0.1991
27301SOL     OW86749   8.343   9.716   4.236  0.3046  0.3445 -0.0803
27301SOL    HW186750   8.263   9.750   4.275 -1.0424 -3.5581  0.7876
27301SOL    HW286751   8.414   9.759   4.285 -1.2385  2.2839  0.5162
27302SOL     OW86752   9.915   7.482   4.629  0.2729 -0.2284 -0.0737
27302SOL    HW186753   9.963   7.401   4.644 -0.1060 -0.7315 -1.4817
27302SOL    HW286754   9.970   7.532   4.568 -0.6925 -0.5445 -1.2175
27303SOL     OW86755   8.771   7.690   4.686  0.4021  0.2272 -0.8918
27303SOL    HW186756   8.699   7.712   4.627 -0.9807  1.2081  1.1078
27303SOL    HW286757   8.809   7.774   4.710  0.7500 -0.1475 -0.1275
27304SOL     OW86758   9.122   8.460   5.473  0.1230  0.7715  0.5433
27304SOL    HW186759   9.217   8.451   5.481  0.1976  0.1195 -0.9113
27304SOL    HW286760   9.088   8.426   5.555  1.0577 -1.0567  0.2126
27305SOL     OW86761   8.969   7.997   5.706  0.3407  0.1836  0.3120
27305SOL    HW186762   8.899   8.009   5.771 -0.0652  1.0156 -0.2564
27305SOL    HW286763   9.026   8.073   5.719  0.2656  0.3438 -0.2849
27306SOL     OW86764   0.033   8.646   4.396  0.2240  0.2676  0.5691
27306SOL    HW186765  -0.037   8.673   4.336  1.2543 -1.9467 -1.6840
27306SOL    HW286766  -0.004   8.572   4.444  0.8079 -0.5020 -0.1732
27307SOL     OW86767   9.240   9.295   3.566  0.1767  0.3018  0.5637
27307SOL    HW186768   9.327   9.260   3.580  0.7127  2.0375  1.7220
27307SOL    HW286769   9.241   9.325   3.475  0.1693 -1.3281  0.0099
27308SOL     OW86770   7.664   9.209   4.901 -0.4923 -0.1066 -0.3386
27308SOL    HW186771   7.662   9.118   4.933 -2.5704 -0.4111 -1.2781
27308SOL    HW286772   7.714   9.203   4.819  3.0898  0.3513  1.6846
27309SOL     OW86773   8.580   8.616   5.079  0.3515  0.4025 -0.4566
27309SOL    HW186774   8.647   8.661   5.130 -0.1732 -0.1223  0.7222
27309SOL    HW286775   8.548   8.682   5.018  0.3904  1.3102  0.4827
27310SOL     OW86776   0.967   7.901   5.588  0.0088 -0.0267 -0.2653
27310SOL    HW186777   0.875   7.926   5.595 -0.1538 -0.2456 -1.3824
27310SOL    HW286778   1.015   7.984   5.593 -0.1526 -0.0499  1.7612
27311SOL     OW86779   7.553   9.395   4.091 -0.3118  0.4369  0.3702
27311SOL    HW186780   7.479   9.447   4.123  0.5475  1.5093  0.6615
27311SOL    HW286781   7.533   9.306   4.118 -1.3547  0.7686  0.7198
27312SOL     OW86782   6.598   9.832   3.921  0.1839 -0.0878  0.0228
27312SOL    HW186783   6.554   9.898   3.867  0.0893  1.2492  1.6643
27312SOL    HW286784   6.690   9.839   3.896 -0.3135 -1.8663 -2.3734
27313SOL     OW86785   9.059   8.123   6.372 -0.0354 -0.0444  0.6583
27313SOL    HW186786   8.988   8.132   6.435 -2.4204  0.7779 -2.0511
27313SOL    HW286787   9.060   8.029   6.351  0.3334 -0.2123  1.4124
27314SOL     OW86788   7.810   9.969   5.309  0.0502 -0.0294 -0.0001
27314SOL    HW186789   7.717   9.986   5.294  0.0822 -1.9660 -2.7349
27314SOL    HW286790   7.817   9.950   5.403 -2.0143  1.7748  0.5526
27315SOL     OW86791   7.505   0.838   3.781 -0.1717  0.3638 -0.6966
27315SOL    HW186792   7.567   0.794   3.840  0.3674 -0.2384 -1.6926
27315SOL    HW286793   7.556   0.909   3.742  0.0303 -0.4029 -1.8470
27316SOL     OW86794   9.557   7.516   5.454 -0.0746 -0.3083  0.3365
27316SOL    HW186795   9.613   7.479   5.522  0.2454 -0.3017  0.0761
27316SOL    HW286796   9.583   7.608   5.449 -0.3544 -0.2220  0.4667
27317SOL     OW86797   7.783   9.159   3.364 -0.3688  0.2877  0.5523
27317SOL    HW186798   7.699   9.114   3.352  0.1100 -0.3981 -0.2983
27317SOL    HW286799   7.797   9.159   3.459 -1.9084  1.4914  0.7939
27318SOL     OW86800   0.226   8.604   5.921 -0.8228  0.1910  0.5767
27318SOL    HW186801   0.262   8.522   5.890 -2.1563 -0.2431  0.1296
27318SOL    HW286802   0.272   8.622   6.003  1.2045  0.2627 -0.5627
27319SOL     OW86803   8.126   8.221   5.064  0.3608  0.0804 -0.1603
27319SOL    HW186804   8.141   8.211   4.970 -0.4264  0.3928 -0.3174
27319SOL    HW286805   8.206   8.186   5.105  0.9429  0.4712 -0.9601
27320SOL     OW86806   8.651   8.227   4.253 -0.6363  0.5714  0.1776
27320SOL    HW186807   8.742   8.229   4.224 -1.0303 -0.6789 -1.2471
27320SOL    HW286808   8.647   8.154   4.314 -0.9256 -0.1607 -0.6995
27321SOL     OW86809   7.592   8.565   6.472  0.6817  0.3618 -0.0733
27321SOL    HW186810   7.608   8.528   6.385 -0.5247  0.4354 -0.3301
27321SOL    HW286811   7.549   8.648   6.455 -0.6850 -0.1848  0.6146
27322SOL     OW86812   8.860   0.403   4.683 -0.5071 -0.2562  0.5338
27322SOL    HW186813   8.828   0.321   4.722 -1.4798  0.1235  0.5212
27322SOL    HW286814   8.861   0.386   4.589 -2.6689  0.4341  0.3661
27323SOL     OW86815   7.883   8.884   5.391 -0.2673  0.2024 -0.0101
27323SOL    HW186816   7.808   8.928   5.349  0.5168  1.4350 -0.1289
27323SOL    HW286817   7.955   8.896   5.329  0.6185  1.0528  1.1662
27324SOL     OW86818   9.205   8.817   3.888  0.2229 -0.1400  0.6873
27324SOL    HW186819   9.204   8.859   3.802  2.2488  0.3922  0.9122
27324SOL    HW286820   9.174   8.885   3.948  0.6062  0.0845  0.6328
27325SOL     OW86821   8.779   7.855   5.944 -0.1404  0.0409 -0.1177
27325SOL    HW186822   8.851   7.793   5.931  0.0989  0.0805  0.9493
27325SOL    HW286823   8.754   7.882   5.856 -0.6102 -1.9847 -0.6068
27326SOL     OW86824   8.891   9.289   3.484  0.1459 -0.1589  0.1065
27326SOL    HW186825   8.925   9.215   3.535  1.3724 -0.2585 -0.8371
27326SOL    HW286826   8.922   9.366   3.530  2.1177 -0.2471 -1.0202
27327SOL     OW86827   0.036   8.595   5.134 -0.1176 -0.5321  0.8368
27327SOL    HW186828   0.021   8.683   5.099  2.5913 -0.0930  0.6880
27327SOL    HW286829   0.051   8.608   5.227  1.0553 -0.7447  0.6819
27328SOL     OW86830   9.444   8.851   4.280  0.0771 -0.0386  0.0825
27328SOL    HW186831   9.529   8.871   4.319 -0.1562 -0.2263  0.6831
27328SOL    HW286832   9.392   8.930   4.293 -0.0451 -0.1495  0.2709
27329SOL     OW86833   8.371   9.239   2.151  0.1296  0.2779  0.3868
27329SOL    HW186834   8.463   9.248   2.176 -0.2345  0.7333  1.5910
27329SOL    HW286835   8.358   9.304   2.081  0.6698  0.3283  0.3357
27330SOL     OW86836   7.105   9.275   5.856 -0.0526  0.5033  0.6140
27330SOL    HW186837   7.023   9.258   5.901 -0.5550 -0.8094 -0.7540
27330SOL    HW286838   7.161   9.316   5.922 -2.1830  2.4858  1.2338
27331SOL     OW86839   8.731   8.102   5.496 -0.8920  0.8375 -0.3099
27331SOL    HW186840   8.695   8.093   5.584 -0.0734 -0.0744 -0.0552
27331SOL    HW286841   8.817   8.060   5.501 -0.4856  1.5220 -1.3283
27332SOL     OW86842   8.238   8.443   3.740 -0.2181 -0.2397  0.2502
27332SOL    HW186843   8.265   8.508   3.675  1.1460  0.3255  1.3561
27332SOL    HW286844   8.272   8.360   3.706  1.3769  0.1998  0.7250
27333SOL     OW86845   9.250   8.873   3.596  0.2182  0.3837 -0.9330
27333SOL    HW186846   9.270   8.787   3.560 -1.0651 -0.1785 -0.3323
27333SOL    HW286847   9.306   8.934   3.547  1.3776 -0.8222 -1.1296
27334SOL     OW86848   7.173   8.578   4.144  0.5050  0.0831  0.1206
27334SOL    HW186849   7.236   8.648   4.161 -1.3639  1.8170  0.1481
27334SOL    HW286850   7.123   8.572   4.225  0.3459 -0.9637 -0.0592
27335SOL     OW86851   6.840   7.463   4.269 -0.2832 -0.4376 -0.0557
27335SOL    HW186852   6.919   7.422   4.233  0.1986 -0.6939  1.2558
27335SOL    HW286853   6.813   7.403   4.339 -2.7466 -1.3627 -1.7326
27336SOL     OW86854   9.067   9.463   5.886 -0.1885 -0.4743 -0.0731
27336SOL    HW186855   9.080   9.449   5.793  0.5859  1.3801 -0.2706
27336SOL    HW286856   9.065   9.375   5.924 -3.8018 -1.4220 -2.2132
27337SOL     OW86857   8.909   6.407   4.275  0.2260 -0.6151 -0.6457
27337SOL    HW186858   8.919   6.379   4.184  1.1037  0.2392 -0.8251
27337SOL    HW286859   8.998   6.403   4.311  0.3900  1.9222 -0.6844
27338SOL     OW86860   7.591   0.167   3.745 -0.5839 -0.1533 -0.2328
27338SOL    HW186861   7.599   0.104   3.673 -0.6968 -0.1688 -0.2308
27338SOL    HW286862   7.677   0.210   3.748 -0.4633 -0.4004 -0.1468
27339SOL     OW86863   7.841   9.122   5.885 -0.2695 -0.1595  0.1745
27339SOL    HW186864   7.781   9.197   5.886 -1.3304 -0.9977  0.1909
27339SOL    HW286865   7.928   9.161   5.894 -0.6706  1.2087 -1.5058
27340SOL     OW86866   7.751   7.311   5.177 -0.0040 -0.5417 -0.9457
27340SOL    HW186867   7.736   7.400   5.146 -0.6528 -0.0475  0.7452
27340SOL    HW286868   7.845   7.297   5.166  0.3865  0.9647  0.2843
27341SOL     OW86869   7.278   9.240   3.745 -0.8278  0.3663 -0.3388
27341SOL    HW186870   7.258   9.318   3.796 -0.2437  1.5301 -1.8642
27341SOL    HW286871   7.357   9.263   3.696  0.6541 -1.9418  0.8502
27342SOL     OW86872   8.796   6.446   5.958  0.1280 -0.1506 -0.7590
27342SOL    HW186873   8.750   6.403   5.886 -1.1050 -0.3324  0.1246
27342SOL    HW286874   8.790   6.539   5.939  0.9938 -0.2624 -1.5976
27343SOL     OW86875   8.894   8.288   5.076  0.8575 -0.8315 -0.4812
27343SOL    HW186876   8.960   8.219   5.085  1.6258 -0.0096  0.2373
27343SOL    HW286877   8.910   8.346   5.150  1.2312  0.9957 -1.9797
27344SOL     OW86878   8.913   9.093   3.239  0.0561  0.1720  0.2934
27344SOL    HW186879   8.985   9.150   3.213 -0.5734  0.4437 -0.8719
27344SOL    HW286880   8.863   9.144   3.302  0.1863  0.4415  0.1772
27345SOL     OW86881   9.415   7.556   5.078 -0.2122  0.0394 -0.5604
27345SOL    HW186882   9.484   7.590   5.135  0.2402 -1.6042 -0.0952
27345SOL    HW286883   9.459   7.540   4.994 -0.3169  0.1414 -0.6356
27346SOL     OW86884   8.795   7.422   3.640 -0.1063  0.0765 -0.0517
27346SOL    HW186885   8.711   7.401   3.680  0.2586  0.8940  1.1583
27346SOL    HW286886   8.860   7.378   3.696  0.2697 -0.7879 -1.1393
27347SOL     OW86887   8.966   7.146   5.244  0.3719 -0.1712 -0.5119
27347SOL    HW186888   8.918   7.087   5.303 -0.4792 -0.3367 -1.3522
27347SOL    HW286889   8.984   7.224   5.298 -0.7179 -0.1651 -0.1309
27348SOL     OW86890   7.854   9.831   5.077 -0.3407 -0.7905  0.2133
27348SOL    HW186891   7.850   9.866   5.166  1.6560 -1.2986  0.5126
27348SOL    HW286892   7.813   9.899   5.024 -0.1043  0.2376  1.3142
27349SOL     OW86893   7.836   0.288   3.746 -0.6113 -0.2453 -0.8936
27349SOL    HW186894   7.924   0.251   3.754 -0.9665 -1.4639 -2.3563
27349SOL    HW286895   7.847   0.381   3.767  0.6066 -0.8297  1.1082
27350SOL     OW86896   7.386   6.966   6.311  0.1178  0.3512  0.2131
27350SOL    HW186897   7.344   7.036   6.361  0.9158  0.4519  0.7648
27350SOL    HW286898   7.391   6.999   6.222 -0.4011  0.5953  0.2731
27351SOL     OW86899   8.761   7.989   5.181  0.0951  1.1534  0.2440
27351SOL    HW186900   8.722   8.027   5.260  2.2217  1.2737  1.3003
27351SOL    HW286901   8.852   8.019   5.184  0.2773  0.9102 -2.1192
27352SOL     OW86902   5.497   8.200   5.518 -0.0505  0.4087  0.3170
27352SOL    HW186903   5.576   8.183   5.466 -1.5562 -1.5368 -1.4508
27352SOL    HW286904   5.517   8.164   5.604  1.6041  1.4553  0.3813
27353SOL     OW86905   6.822   8.458   6.352  0.1448 -0.2979 -0.0721
27353SOL    HW186906   6.785   8.524   6.294  2.3013  1.2968  0.3439
27353SOL    HW286907   6.785   8.375   6.321 -2.9887  1.1224 -0.2775
27354SOL     OW86908   9.689   8.339   5.889 -0.0917  0.1975 -0.5089
27354SOL    HW186909   9.695   8.428   5.925 -0.0322  0.2191 -0.5732
27354SOL    HW286910   9.772   8.325   5.845  0.1740 -0.1516  0.0988
27355SOL     OW86911   7.941   7.641   6.027  0.2942  0.1120 -0.6328
27355SOL    HW186912   7.937   7.552   6.062 -0.4553 -0.5490 -2.3111
27355SOL    HW286913   8.003   7.635   5.955 -0.7663  0.6197 -1.6118
27356SOL     OW86914   8.908   7.286   3.953  0.4709 -0.1701  0.6434
27356SOL    HW186915   8.848   7.324   4.017 -1.0290  0.5957 -1.1907
27356SOL    HW286916   8.959   7.361   3.921  1.4039 -0.5919  1.1367
27357SOL     OW86917   9.100   9.265   6.495  0.2290  0.7592 -0.3396
27357SOL    HW186918   9.004   9.270   6.497  0.1674 -0.4442 -0.3975
27357SOL    HW286919   9.129   9.334   6.555 -0.6817  0.6737  0.1976
27358SOL     OW86920   8.122   7.881   7.533  0.1747 -0.2829 -0.6354
27358SOL    HW186921   8.192   7.874   7.598 -0.2046 -0.0807 -0.1964
27358SOL    HW286922   8.139   7.964   7.489 -0.6948  0.5570  0.5684
27359SOL     OW86923   8.323   9.961   7.947  0.0641  0.0062  0.3957
27359SOL    HW186924   8.318  10.009   7.864  1.2405 -0.0280  0.2873
27359SOL    HW286925   8.287  10.021   8.012 -0.0148  0.3931 -0.0023
27360SOL     OW86926   6.891   9.015   6.827  0.0222 -0.1611 -0.4512
27360SOL    HW186927   6.970   8.961   6.835  0.3051  0.2417 -0.4862
27360SOL    HW286928   6.824   8.965   6.874  0.7234  0.3082  1.1028
27361SOL     OW86929   8.086   8.706   7.823  0.3858 -0.6307  0.3727
27361SOL    HW186930   8.116   8.714   7.732  0.1004  1.5826  0.4408
27361SOL    HW286931   8.160   8.668   7.870  1.0766 -0.3788 -0.5037
27362SOL     OW86932   9.566   9.243   6.403  0.0622  0.1296 -0.5783
27362SOL    HW186933   9.553   9.180   6.333 -0.1582  0.1951 -0.5963
27362SOL    HW286934   9.533   9.326   6.368  0.8123  0.3639 -0.7393
27363SOL     OW86935   6.955   7.502   5.371  0.2870 -0.0409 -0.3199
27363SOL    HW186936   6.917   7.488   5.284 -0.4898  0.6085 -0.0967
27363SOL    HW286937   7.050   7.506   5.355  0.2281 -1.0432 -0.9731
27364SOL     OW86938   8.664   9.717   4.217 -0.1035 -0.1259  0.4365
27364SOL    HW186939   8.738   9.777   4.214  0.5077 -0.8844  0.1066
27364SOL    HW286940   8.636   9.719   4.308 -0.2619  0.8592  0.3751
27365SOL     OW86941   9.202   9.393   6.707 -0.9922  0.4287 -0.2844
27365SOL    HW186942   9.155   9.475   6.720  0.1957  0.9807  0.6061
27365SOL    HW286943   9.290   9.419   6.682 -0.0931 -0.5317  1.7673
27366SOL     OW86944   7.275   0.190   6.090  0.7511 -0.3861  0.3380
27366SOL    HW186945   7.356   0.187   6.039  0.8939  1.4557  0.4363
27366SOL    HW286946   7.220   0.121   6.051  1.2944  0.2258 -1.5578
27367SOL     OW86947   7.239   9.456   6.022 -0.1568 -0.0941  0.3221
27367SOL    HW186948   7.302   9.466   6.093 -0.3218 -0.5562  0.5334
27367SOL    HW286949   7.168   9.516   6.045  0.1191  0.2931  0.1771
27368SOL     OW86950   8.172   8.790   6.549 -0.6368  0.0127 -0.6906
27368SOL    HW186951   8.119   8.869   6.542 -0.1442  0.3668 -0.4691
27368SOL    HW286952   8.190   8.766   6.458 -2.1652 -0.7933 -0.8007
27369SOL     OW86953   7.271   8.248   3.553 -0.2776  0.5793  0.3774
27369SOL    HW186954   7.288   8.313   3.621  2.8991  1.4560 -1.1288
27369SOL    HW286955   7.245   8.300   3.477  1.5273  0.1038 -0.6127
27370SOL     OW86956   0.556   6.448   5.363  0.6441 -0.2500  0.0123
27370SOL    HW186957   0.525   6.358   5.348  0.0657  0.0760 -0.7619
27370SOL    HW286958   0.483   6.503   5.335  1.4809  0.4999 -0.7204
27371SOL     OW86959   7.196   8.360   6.103 -0.3492  0.2041  0.1958
27371SOL    HW186960   7.145   8.312   6.169  0.0287 -0.1377  0.2433
27371SOL    HW286961   7.280   8.314   6.100 -0.2777  0.3709 -0.3512
27372SOL     OW86962   7.540   8.152   4.311 -0.2904  0.3135  0.0959
27372SOL    HW186963   7.621   8.190   4.276 -1.0112  1.2683 -0.5503
27372SOL    HW286964   7.485   8.138   4.234 -0.5879 -0.7178  0.4905
27373SOL     OW86965   0.562   7.830   6.800  0.4144  0.0066 -0.1778
27373SOL    HW186966   0.607   7.863   6.722  0.9922  0.8190  0.4870
27373SOL    HW286967   0.547   7.908   6.853 -0.1047 -0.5214  0.4572
27374SOL     OW86968   8.653   8.413   7.310  0.1804 -0.7155  0.2251
27374SOL    HW186969   8.677   8.501   7.339  0.0425  0.0023 -1.7819
27374SOL    HW286970   8.735   8.372   7.283 -0.1617  0.0333 -2.0704
27375SOL     OW86971   8.282   9.034   7.403  0.1375 -0.2376  0.2123
27375SOL    HW186972   8.357   9.088   7.379 -0.1637 -0.1640 -0.6054
27375SOL    HW286973   8.304   8.947   7.370 -0.4530 -0.0477 -0.7291
27376SOL     OW86974   9.116   0.000   7.552 -0.2325  0.4908 -0.1021
27376SOL    HW186975   9.097   0.060   7.480  1.2025 -1.5768 -2.2805
27376SOL    HW286976   9.205   0.024   7.580 -0.4539  0.7174  0.4163
27377SOL     OW86977   8.683   7.751   5.649 -0.0080 -0.1616  0.7115
27377SOL    HW186978   8.617   7.698   5.693  0.1877 -1.8684 -0.9625
27377SOL    HW286979   8.634   7.800   5.582  0.2758 -0.8021  0.0220
27378SOL     OW86980   7.580   9.523   7.409  0.3107  0.3649 -0.0229
27378SOL    HW186981   7.599   9.443   7.459  2.7286 -0.5106 -2.2588
27378SOL    HW286982   7.601   9.501   7.319 -3.3428  2.1371 -1.4106
27379SOL     OW86983   9.326   9.298   5.420  0.0963 -0.0532 -0.1560
27379SOL    HW186984   9.406   9.350   5.424 -0.7379  1.3870 -1.8997
27379SOL    HW286985   9.295   9.295   5.511  0.7401  1.5542  0.1275
27380SOL     OW86986   7.984   7.954   8.013 -0.1981  0.5393 -0.6730
27380SOL    HW186987   7.910   7.988   8.064  0.6521  0.3631  0.7075
27380SOL    HW286988   8.015   8.029   7.962 -0.7826  0.8357 -0.5914
27381SOL     OW86989   9.573   9.166   6.918 -0.3359  0.5491  0.4445
27381SOL    HW186990   9.535   9.155   6.830 -1.3560 -0.6720  1.0160
27381SOL    HW286991   9.659   9.125   6.912 -0.0459  1.2553 -0.2351
27382SOL     OW86992   8.694   8.978   4.265  0.0745 -0.1639 -0.1783
27382SOL    HW186993   8.749   9.056   4.261 -0.8284  0.4343 -1.9358
27382SOL    HW286994   8.658   8.978   4.353  2.8360 -0.5599  0.9888
27383SOL     OW86995   6.157   9.624   6.071  0.0862 -0.4205 -0.6855
27383SOL    HW186996   6.116   9.697   6.117  0.7169 -0.4952  0.0107
27383SOL    HW286997   6.093   9.596   6.006  0.0760  1.1606 -1.3772
27384SOL     OW86998   8.188   7.824   7.043 -0.3860 -0.3396  0.3233
27384SOL    HW186999   8.219   7.890   6.981 -2.2014 -1.1006 -1.4782
27384SOL    HW287000   8.129   7.872   7.101  0.0750  0.0727  0.4527
27385SOL     OW87001   9.180   1.381   5.841 -0.4127  0.4993 -0.8998
27385SOL    HW187002   9.179   1.428   5.924  1.1761  1.9976 -1.6982
27385SOL    HW287003   9.114   1.426   5.788 -1.9049 -0.8746 -0.2731
27386SOL     OW87004   9.256   8.794   6.252 -0.1610  0.1078  0.5075
27386SOL    HW187005   9.339   8.837   6.232 -1.4618  1.7433 -1.5453
27386SOL    HW287006   9.206   8.860   6.300 -1.3060  0.0925 -0.6543
27387SOL     OW87007   8.558   7.217   7.809 -0.0366 -0.7117  0.3359
27387SOL    HW187008   8.555   7.139   7.864  1.1059 -1.4514 -0.6282
27387SOL    HW287009   8.565   7.183   7.720 -1.7997  0.4778 -0.2768
27388SOL     OW87010   7.333   9.103   9.206  0.2666 -0.3441 -0.1503
27388SOL    HW187011   7.374   9.046   9.270 -0.7225  0.4126  1.1658
27388SOL    HW287012   7.265   9.049   9.165  1.2149 -0.9737 -0.9178
27389SOL     OW87013   7.311   9.447   7.751 -0.2477  0.1536 -0.4220
27389SOL    HW187014   7.328   9.482   7.838 -1.8793  0.1032 -0.0571
27389SOL    HW287015   7.315   9.352   7.761  1.7209  0.1758 -0.8791
27390SOL     OW87016   7.969   0.100   7.796 -0.5168 -0.1634 -0.2430
27390SOL    HW187017   7.905   0.133   7.859  0.5864 -0.2131  0.9298
27390SOL    HW287018   8.054   0.131   7.830  0.0633  0.1059 -1.8934
27391SOL     OW87019   7.048   8.163   4.645 -0.2965 -0.2636  0.1807
27391SOL    HW187020   7.029   8.161   4.739 -0.5474 -1.6916  0.1101
27391SOL    HW287021   7.107   8.237   4.634  0.7842 -0.8818  1.6700
27392SOL     OW87022   9.094   6.827   6.258 -0.3550  0.2293  0.3246
27392SOL    HW187023   9.129   6.754   6.207  0.9850  1.4733 -0.5916
27392SOL    HW287024   9.153   6.836   6.332 -0.2105  0.7094  0.1545
27393SOL     OW87025   9.857   7.317   6.408  0.1065 -0.1265 -0.4542
27393SOL    HW187026   9.829   7.225   6.407 -0.7453  0.1271 -0.4682
27393SOL    HW287027   9.781   7.364   6.442  0.8233  0.4842  0.3131
27394SOL     OW87028   8.377   7.608   5.555  0.4011 -0.2041 -0.1742
27394SOL    HW187029   8.409   7.520   5.577 -2.4303 -1.2974 -0.2018
27394SOL    HW287030   8.371   7.607   5.459 -0.0649 -0.1456 -0.1467
27395SOL     OW87031   9.564   9.489   5.481 -0.1255 -0.1003 -0.5557
27395SOL    HW187032   9.538   9.575   5.515 -1.3451 -0.0626 -1.5839
27395SOL    HW287033   9.588   9.439   5.560  0.4319  1.1187  0.0607
27396SOL     OW87034   7.763   0.384   6.586 -0.4085 -0.2686 -0.5653
27396SOL    HW187035   7.698   0.315   6.573  1.1585 -2.5950  3.1564
27396SOL    HW287036   7.722   0.445   6.648 -0.1021 -0.2630 -0.3660
27397SOL     OW87037   9.783   8.647   7.415  0.0350  0.2605  0.2813
27397SOL    HW187038   9.867   8.636   7.461  0.0667 -0.6284  0.0135
27397SOL    HW287039   9.796   8.725   7.361  0.6151  0.2615  0.4134
27398SOL     OW87040   0.422   9.470   8.171  0.4447  0.2296 -0.0574
27398SOL    HW187041   0.332   9.475   8.138 -0.5892  1.2890  2.7042
27398SOL    HW287042   0.420   9.397   8.233  1.1633  0.9803  0.8733
27399SOL     OW87043   8.368   8.674   7.377  1.2586  0.2626  0.0960
27399SOL    HW187044   8.350   8.644   7.288  0.1739  1.5172 -0.1185
27399SOL    HW287045   8.417   8.755   7.366  0.4310  0.8407  0.6380
27400SOL     OW87046   9.261   7.431   5.805  0.8063 -0.6071  0.3284
27400SOL    HW187047   9.277   7.522   5.830 -2.3295 -0.4796  2.2471
27400SOL    HW287048   9.297   7.423   5.717  2.5932  2.0126  0.7655
27401SOL     OW87049   9.790   9.147   6.552  0.2097  0.3654 -0.6934
27401SOL    HW187050   9.786   9.085   6.625 -0.4336  1.4302  0.2139
27401SOL    HW287051   9.704   9.189   6.553  0.1297  0.2399 -2.2107
27402SOL     OW87052   8.949   9.014   7.610  0.6794  0.0656  0.4058
27402SOL    HW187053   8.872   8.993   7.559  0.3672  0.2271  0.8073
27402SOL    HW287054   9.019   9.027   7.545  0.1663  0.7872 -0.0071
27403SOL     OW87055   7.856   8.206   7.431 -0.0749 -0.3161 -0.3556
27403SOL    HW187056   7.930   8.263   7.409 -0.5707  1.2612  1.8717
27403SOL    HW287057   7.884   8.161   7.510 -0.9449 -0.8282 -0.3421
27404SOL     OW87058   9.655   9.736   7.460 -0.1881  0.1223 -0.2204
27404SOL    HW187059   9.676   9.740   7.367  0.5268 -1.3978 -0.1425
27404SOL    HW287060   9.628   9.825   7.483  0.4474  0.7025 -1.6866
27405SOL     OW87061   8.626   8.764   6.509 -0.4599  0.2372 -0.0187
27405SOL    HW187062   8.711   8.749   6.551  0.8741 -1.1311 -3.0971
27405SOL    HW287063   8.562   8.745   6.578  1.6784  0.1891  2.0219
27406SOL     OW87064   9.299   6.914   6.030  0.0276  0.2123  0.2760
27406SOL    HW187065   9.307   6.880   6.119 -0.5085 -1.6809 -0.3860
27406SOL    HW287066   9.226   6.865   5.992 -2.1394  3.4747 -0.0774
27407SOL     OW87067   7.558   9.712   5.307  0.0490  0.2444 -0.0172
27407SOL    HW187068   7.493   9.645   5.323 -0.0070  0.0015 -1.1802
27407SOL    HW287069   7.508   9.790   5.282  0.1464  0.4608  0.4627
27408SOL     OW87070   8.645   1.063   5.850  0.4641  0.6626 -0.6348
27408SOL    HW187071   8.620   0.972   5.836 -0.1638  0.7539 -0.1271
27408SOL    HW287072   8.595   1.112   5.785  0.3751  0.7067 -0.5323
27409SOL     OW87073   9.306   7.409   4.840  0.0118  0.5905 -0.3920
27409SOL    HW187074   9.393   7.443   4.820  0.1897  0.0969 -0.4731
27409SOL    HW287075   9.315   7.373   4.929  0.0458  0.0311 -0.6179
27410SOL     OW87076   8.006   7.092   4.866 -0.4113 -0.8147  0.4155
27410SOL    HW187077   8.057   7.102   4.786 -1.0230 -2.7638 -0.2543
27410SOL    HW287078   8.066   7.114   4.937  0.8711 -1.5483 -0.4421
27411SOL     OW87079   8.920   8.427   7.177  0.8796  0.1930  0.4860
27411SOL    HW187080   8.938   8.334   7.185  2.3107  0.4646  0.5796
27411SOL    HW287081   8.960   8.467   7.254 -2.1138  0.5961  1.8995
27412SOL     OW87082   0.270   8.741   6.496 -0.1340 -0.6327 -0.5313
27412SOL    HW187083   0.325   8.677   6.451 -1.2504 -1.7507 -0.3068
27412SOL    HW287084   0.309   8.748   6.584  1.3358  0.6889 -1.2558
27413SOL     OW87085   9.067   9.272   7.057  0.0447  0.5592  0.0655
27413SOL    HW187086   9.135   9.331   7.087  1.3303 -1.1297  0.5450
27413SOL    HW287087   9.097   9.240   6.973  0.5592 -1.3023  0.9362
27414SOL     OW87088   8.258   0.388   7.238  0.0422  0.8973  0.1697
27414SOL    HW187089   8.170   0.353   7.247  0.2779  1.0171  3.6829
27414SOL    HW287090   8.245   0.481   7.218 -0.6090  0.7884  0.0731
27415SOL     OW87091   7.878   7.551   6.458 -0.3234  0.2745  0.0278
27415SOL    HW187092   7.814   7.481   6.473  1.4166 -1.1515  1.0363
27415SOL    HW287093   7.874   7.566   6.364 -0.6707 -1.2392 -0.2181
27416SOL     OW87094   7.148   7.833   6.971 -0.2944 -0.2321 -0.0659
27416SOL    HW187095   7.230   7.862   6.930  0.2069 -3.1804 -1.2561
27416SOL    HW287096   7.156   7.861   7.062  1.7987 -0.0249 -0.2814
27417SOL     OW87097   9.969   9.335   5.708  0.5355 -0.2272  0.0029
27417SOL    HW187098  10.053   9.366   5.675  0.7683 -2.0478 -1.1857
27417SOL    HW287099   9.918   9.316   5.629 -1.3939  1.8334  0.6924
27418SOL     OW87100   6.818   6.487   3.918  0.5843 -0.2492  0.1729
27418SOL    HW187101   6.901   6.471   3.964  0.2381 -0.3324  0.7726
27418SOL    HW287102   6.752   6.446   3.973  0.2462 -1.0607 -0.8173
27419SOL     OW87103   6.889   6.274   7.479  0.1250  0.2641  0.2914
27419SOL    HW187104   6.835   6.197   7.462 -0.1675  1.1611 -3.2823
27419SOL    HW287105   6.979   6.240   7.486 -0.0950 -0.4863 -0.5053
27420SOL     OW87106   9.979   8.319   6.148  0.6314 -0.5253  0.9183
27420SOL    HW187107   9.967   8.380   6.222  0.3947 -0.1401  0.5668
27420SOL    HW287108  10.064   8.277   6.165  0.8601 -0.0014  1.0998
27421SOL     OW87109   8.714   7.331   6.957  0.6509  0.0648  0.1446
27421SOL    HW187110   8.738   7.277   7.033  1.7557  0.6491  0.2273
27421SOL    HW287111   8.619   7.330   6.956  0.6186  0.0988  1.5881
27422SOL     OW87112   8.065   8.549   6.635 -0.3572 -0.4767 -0.2353
27422SOL    HW187113   8.031   8.565   6.723 -0.6933 -1.1366 -0.2380
27422SOL    HW287114   8.079   8.636   6.598  1.9267 -0.1733  1.2851
27423SOL     OW87115   7.658   8.853   5.985  0.1537 -0.2051 -0.3080
27423SOL    HW187116   7.622   8.939   6.005  0.4896  0.1231 -1.1034
27423SOL    HW287117   7.696   8.823   6.068 -1.4005 -0.2967  0.3837
27424SOL     OW87118   0.002   7.620   6.409 -0.3049 -0.4566 -0.3422
27424SOL    HW187119   0.004   7.544   6.467 -4.1073 -2.0693 -2.1475
27424SOL    HW287120  -0.016   7.694   6.467  0.5320 -1.3310  1.0712
27425SOL     OW87121   8.429   9.558   4.842  0.0054  0.0467  0.1541
27425SOL    HW187122   8.404   9.527   4.929  0.3472 -2.1065 -0.4690
27425SOL    HW287123   8.353   9.540   4.787  0.7748 -1.1772 -0.5424
27426SOL     OW87124   8.881   8.453   6.459 -0.1469 -0.3294 -0.1964
27426SOL    HW187125   8.800   8.419   6.420  0.2969 -1.1765 -0.3745
27426SOL    HW287126   8.861   8.457   6.553 -0.7119  0.3382 -0.3395
27427SOL     OW87127   8.083   7.419   6.556  0.6669  0.1881 -0.1305
27427SOL    HW187128   8.005   7.465   6.524 -0.2796 -1.3426 -0.1066
27427SOL    HW287129   8.156   7.476   6.533 -0.3650  1.0947 -1.2500
27428SOL     OW87130   8.435   8.321   5.672 -0.3239  0.0503  0.3346
27428SOL    HW187131   8.499   8.277   5.729  0.8913  0.6066 -0.5842
27428SOL    HW287132   8.351   8.281   5.696  0.2919 -0.3687  1.8724
27429SOL     OW87133   9.179   9.237   7.633  0.2891  0.2378 -0.3560
27429SOL    HW187134   9.177   9.270   7.723  0.3825  0.0136 -0.2727
27429SOL    HW287135   9.088   9.245   7.602  0.6748  2.4877 -1.0235
27430SOL     OW87136   8.653   7.349   6.388  0.4146 -0.7370  0.0668
27430SOL    HW187137   8.681   7.438   6.367  0.2502 -0.8559 -0.6764
27430SOL    HW287138   8.581   7.331   6.327 -0.7550 -0.7248  1.4191
27431SOL     OW87139   7.904   9.428   7.097  0.2260 -0.1290  0.5365
27431SOL    HW187140   7.867   9.340   7.090 -0.6289  0.1519  1.3680
27431SOL    HW287141   7.841   9.483   7.049  1.0240 -0.0427 -0.4190
27432SOL     OW87142   8.413   8.859   4.260  0.0944 -0.1382 -0.2804
27432SOL    HW187143   8.509   8.864   4.260  0.0505  0.7817 -0.6168
27432SOL    HW287144   8.388   8.888   4.347  0.1389 -0.8835 -0.0139
27433SOL     OW87145   8.449   8.533   6.269 -0.8560 -0.1628 -0.3604
27433SOL    HW187146   8.354   8.540   6.266 -0.8177  0.9593  1.0357
27433SOL    HW287147   8.469   8.509   6.359  0.1928 -0.4119 -0.6490
27434SOL     OW87148   7.957   6.779   5.162  0.4537 -0.3372 -0.4227
27434SOL    HW187149   8.025   6.712   5.158  0.7218 -0.1123  0.2332
27434SOL    HW287150   7.938   6.789   5.255  0.3778  0.4516 -0.5150
27435SOL     OW87151   0.428   9.110   6.198  0.4472  0.3210 -0.2239
27435SOL    HW187152   0.356   9.095   6.258 -0.7359  0.3696 -1.6145
27435SOL    HW287153   0.493   9.157   6.251 -0.6447  0.5365  0.9574
27436SOL     OW87154   8.454   9.731   7.761  0.3180  0.5180 -0.1383
27436SOL    HW187155   8.427   9.794   7.695 -1.7351 -0.0625  0.1238
27436SOL    HW287156   8.505   9.666   7.713 -0.3013  0.6500 -0.9817
27437SOL     OW87157   0.501   8.787   7.133  0.2997 -0.3794  0.0922
27437SOL    HW187158   0.529   8.877   7.117 -0.5945 -0.1105  0.0177
27437SOL    HW287159   0.579   8.744   7.169  0.2751  0.8352  1.6501
27438SOL     OW87160   8.419   9.271   6.019  0.2367 -0.1149 -0.4411
27438SOL    HW187161   8.423   9.367   6.016  0.9168 -0.1238  0.1594
27438SOL    HW287162   8.433   9.244   5.928 -0.5538  0.3772 -0.7139
27439SOL     OW87163   9.927   9.435   6.611  0.0768  0.3952  0.4691
27439SOL    HW187164   9.992   9.370   6.639  3.0219  2.2032 -1.7287
27439SOL    HW287165   9.914   9.416   6.518 -1.4510  0.9728  0.5590
27440SOL     OW87166   7.332   5.436   5.993  0.3746  0.2093 -0.6548
27440SOL    HW187167   7.333   5.511   6.053  1.5005  0.6177 -1.1812
27440SOL    HW287168   7.302   5.363   6.048 -2.5856  1.3941 -0.5829
27441SOL     OW87169   6.898   9.599   6.629 -0.2199  0.3245 -0.3053
27441SOL    HW187170   6.909   9.596   6.534 -2.2210  4.2096 -0.7481
27441SOL    HW287171   6.810   9.565   6.645  0.3176 -0.8624  0.2861
27442SOL     OW87172   7.426   7.640   7.313 -0.0122  0.3899  0.1911
27442SOL    HW187173   7.331   7.635   7.326 -0.5701  0.1388 -3.2472
27442SOL    HW287174   7.439   7.727   7.274  0.9211 -0.2499 -0.9422
27443SOL     OW87175   8.280   9.956   7.013  0.0016  0.2005 -0.4433
27443SOL    HW187176   8.329   9.907   6.947 -0.6515 -0.9640 -0.0938
27443SOL    HW287177   8.234  10.023   6.964  1.6548  1.0916 -0.8216
27444SOL     OW87178   9.472   7.246   6.863 -0.0782 -0.0839  0.1256
27444SOL    HW187179   9.499   7.219   6.775 -0.8816 -0.7448  0.0723
27444SOL    HW287180   9.435   7.166   6.902 -1.2718  0.6124  0.4498
27445SOL     OW87181   7.868   8.803   6.458 -0.5285  0.0620 -0.4251
27445SOL    HW187182   7.836   8.809   6.548 -0.7167 -0.0953 -0.4805
27445SOL    HW287183   7.921   8.881   6.446  0.7576 -0.6756  0.3239
27446SOL     OW87184   9.033   8.790   5.175 -0.4320 -0.6470 -0.1146
27446SOL    HW187185   9.031   8.707   5.223 -0.3051 -0.7558 -0.2985
27446SOL    HW287186   9.020   8.856   5.243 -0.0442 -0.7892  0.0998
27447SOL     OW87187   7.875   7.734   6.262 -0.4117  0.0242 -0.0883
27447SOL    HW187188   7.926   7.815   6.262  0.1721 -0.3451  0.1811
27447SOL    HW287189   7.896   7.692   6.179 -2.4829  1.2528 -1.2775
27448SOL     OW87190   9.709   7.622   6.139  0.6023 -0.8250  0.6280
27448SOL    HW187191   9.689   7.615   6.045 -1.0640 -0.3915  0.9333
27448SOL    HW287192   9.629   7.593   6.183  1.4634 -1.2778  1.9285
27449SOL     OW87193   9.771   8.837   6.388  0.0703  0.2324 -0.0853
27449SOL    HW187194   9.793   8.833   6.481 -0.2518 -1.0708 -0.0571
27449SOL    HW287195   9.854   8.823   6.342 -0.0202 -0.6903  0.0178
27450SOL     OW87196   8.906   8.468   5.684  0.6474 -0.0858  0.4851
27450SOL    HW187197   8.846   8.444   5.613  0.8310  0.0151  0.2956
27450SOL    HW287198   8.896   8.563   5.692  2.1932  0.2089 -0.8407
27451SOL     OW87199   8.814   9.727   7.687 -0.9779 -0.0684 -0.6020
27451SOL    HW187200   8.742   9.763   7.636 -0.8803 -0.4639 -1.0244
27451SOL    HW287201   8.885   9.790   7.676 -1.2331  0.2921 -0.2331
27452SOL     OW87202   9.221   7.924   6.957  0.4763  0.1299 -0.1222
27452SOL    HW187203   9.314   7.920   6.980  0.3195  1.0834  0.7189
27452SOL    HW287204   9.214   7.999   6.897  0.4866 -0.8502 -1.3604
27453SOL     OW87205   8.444   7.759   6.852  0.8752 -0.0996  0.5673
27453SOL    HW187206   8.485   7.724   6.931  1.0085  2.0340  1.4630
27453SOL    HW287207   8.421   7.849   6.874  0.3542  0.3354 -1.6284
27454SOL     OW87208   9.077   8.365   6.227  0.0627  0.1709  1.0182
27454SOL    HW187209   9.078   8.283   6.275 -2.1481  0.0467  0.9180
27454SOL    HW287210   9.161   8.367   6.181  0.2357 -1.9239  1.1853
27455SOL     OW87211   8.380   7.302   6.993 -0.6764  0.3412  0.3768
27455SOL    HW187212   8.323   7.264   7.059 -0.0965 -1.6748 -0.2469
27455SOL    HW287213   8.354   7.261   6.911  0.8435  0.3027 -0.1136
27456SOL     OW87214   0.955   7.709   6.523  0.4978  0.5969  0.5963
27456SOL    HW187215   0.948   7.744   6.435  2.3206  0.6483  0.4481
27456SOL    HW287216   0.936   7.783   6.580  0.5728  0.8804  0.2517
27457SOL     OW87217   8.602   8.197   5.944  0.2968  0.9385 -0.2117
27457SOL    HW187218   8.521   8.219   5.989  0.3335  0.0424  0.3046
27457SOL    HW287219   8.659   8.272   5.959  0.2263  0.7527  1.0623
27458SOL     OW87220   9.337   7.976   5.716  0.1569  0.3082  0.5090
27458SOL    HW187221   9.243   7.989   5.708  0.1216  0.1410  0.6552
27458SOL    HW287222   9.374   8.012   5.635 -0.1482 -0.8769 -0.1768
27459SOL     OW87223   7.379   9.530   7.016  0.3748  0.1915  0.2668
27459SOL    HW187224   7.364   9.452   6.962 -1.5603  0.7509 -0.0409
27459SOL    HW287225   7.384   9.602   6.952 -0.7549  0.6968  0.7363
27460SOL     OW87226   9.682   9.736   7.174 -0.1359 -0.0104 -0.5664
27460SOL    HW187227   9.689   9.680   7.097  0.4466  0.7195 -1.0531
27460SOL    HW287228   9.645   9.818   7.141 -1.3279 -0.2369  0.2038
27461SOL     OW87229   7.047   8.382   5.474 -0.8798  0.1129 -0.6253
27461SOL    HW187230   6.992   8.459   5.459 -0.8985  0.0115 -1.1146
27461SOL    HW287231   7.135   8.417   5.485 -1.0537  0.2831  0.2258
27462SOL     OW87232   9.769   8.323   6.660  0.0117 -0.5710 -0.0018
27462SOL    HW187233   9.745   8.414   6.678 -1.8826 -0.9268 -0.5759
27462SOL    HW287234   9.843   8.330   6.600 -0.2938  0.6070 -0.2710
27463SOL     OW87235   1.301   8.604   5.830 -0.4419 -0.2682 -0.3275
27463SOL    HW187236   1.276   8.639   5.744  0.3913  0.1036 -0.4322
27463SOL    HW287237   1.361   8.532   5.810  0.4146  0.3591 -0.0452
27464SOL     OW87238   0.435   8.253   5.476  0.2503  0.0120 -0.3750
27464SOL    HW187239   0.511   8.281   5.527  0.5672 -1.9856  0.2910
27464SOL    HW287240   0.422   8.322   5.412  0.4436  2.1222  1.7887
27465SOL     OW87241   7.312   8.843   7.821  0.0811  0.7756 -0.0138
27465SOL    HW187242   7.263   8.855   7.903 -0.2320 -0.3961 -0.0174
27465SOL    HW287243   7.272   8.905   7.760 -0.2062  1.1011  0.5048
27466SOL     OW87244   9.022   8.287   7.519  0.2693 -0.2829 -0.5514
27466SOL    HW187245   9.096   8.316   7.573 -1.0465  0.9958  0.6172
27466SOL    HW287246   8.988   8.367   7.480 -1.5371 -0.6062  0.2871
27467SOL     OW87247   8.364   6.748   4.922  0.4970 -0.1421 -0.0208
27467SOL    HW187248   8.336   6.838   4.937  1.7984  0.4668 -1.1069
27467SOL    HW287249   8.431   6.755   4.854 -1.1456 -2.1831 -1.9036
27468SOL     OW87250   6.286   9.965   6.902 -0.1549 -0.1552  0.0200
27468SOL    HW187251   6.256  10.017   6.828 -0.0149 -2.4234 -1.6708
27468SOL    HW287252   6.206   9.932   6.942 -0.2293  1.0566  0.9073
27469SOL     OW87253   6.464   7.105   5.027  0.0786  0.2553 -0.1530
27469SOL    HW187254   6.421   7.048   4.964  1.0230 -1.4277  0.7154
27469SOL    HW287255   6.552   7.118   4.993  0.3425 -0.0173  0.4318
27470SOL     OW87256   7.013   8.207   5.696 -0.2588 -0.6704  0.3866
27470SOL    HW187257   6.964   8.244   5.622  1.6945  0.0133 -0.6030
27470SOL    HW287258   6.973   8.245   5.773 -1.0773  0.1188 -0.4189
27471SOL     OW87259   7.700   7.005   6.864  0.3382  0.4081 -0.0029
27471SOL    HW187260   7.696   6.933   6.801  2.5309  0.2751 -0.0227
27471SOL    HW287261   7.644   6.976   6.936  0.3887 -0.8861 -0.4565
27472SOL     OW87262   8.248   7.443   8.335  0.0875 -0.4577 -0.4240
27472SOL    HW187263   8.181   7.416   8.273 -0.3229  0.7766 -0.5317
27472SOL    HW287264   8.213   7.522   8.375  0.3684 -1.2179  1.3641
27473SOL     OW87265   7.011   8.547   4.361  0.2936 -0.3889  0.7917
27473SOL    HW187266   6.924   8.575   4.333 -0.0872 -2.6121 -0.4603
27473SOL    HW287267   6.994   8.476   4.423  1.2205  0.7634  2.3944
27474SOL     OW87268   8.232   8.623   5.373 -0.7118  0.1746 -0.6496
27474SOL    HW187269   8.298   8.581   5.429 -0.2274 -2.4489 -3.0414
27474SOL    HW287270   8.275   8.703   5.342  0.7640 -0.6999 -0.9217
27475SOL     OW87271   7.873   7.589   6.809  0.1227  0.4576 -0.0995
27475SOL    HW187272   7.909   7.600   6.898 -0.3742  0.9791  0.0419
27475SOL    HW287273   7.904   7.666   6.762  0.7834 -0.0601 -0.5192
27476SOL     OW87274   8.670   9.949   8.623  0.1966 -0.1943 -0.0777
27476SOL    HW187275   8.750   9.963   8.573  0.1434 -3.8860 -1.3279
27476SOL    HW287276   8.685   9.995   8.706  1.2484  3.9667 -2.4673
27477SOL     OW87277   9.194   8.908   6.832  0.6406  0.4916 -0.2562
27477SOL    HW187278   9.269   8.855   6.807  0.7724  0.3826  0.3608
27477SOL    HW287279   9.165   8.871   6.915  0.7690  1.4180  0.2074
27478SOL     OW87280   8.448   7.732   5.783  0.3354  0.3451 -0.5845
27478SOL    HW187281   8.417   7.690   5.703  0.9265  0.2770 -0.7827
27478SOL    HW287282   8.437   7.665   5.851  0.5816  0.1255 -0.7608
27479SOL     OW87283   9.325   9.400   8.287 -0.3837  0.8880 -0.5751
27479SOL    HW187284   9.252   9.367   8.339 -1.2459  0.4189 -2.0526
27479SOL    HW287285   9.403   9.374   8.336 -1.1167 -1.1945 -0.4487
27480SOL     OW87286   7.709   0.602   8.029 -0.1011 -0.4731  0.3797
27480SOL    HW187287   7.739   0.598   7.938 -1.3056  0.4956 -0.0722
27480SOL    HW287288   7.712   0.511   8.059  1.7845 -0.6057 -0.1212
27481SOL     OW87289   8.922   7.440   5.048 -0.2838 -0.0806  0.4789
27481SOL    HW187290   8.903   7.366   4.991  1.6538 -0.7290  0.6326
27481SOL    HW287291   8.851   7.502   5.032 -1.4141 -1.5564 -0.3476
27482SOL     OW87292   6.789   9.458   7.181 -0.0616 -0.3010  0.4247
27482SOL    HW187293   6.803   9.515   7.257 -0.4432  0.6436 -0.2027
27482SOL    HW287294   6.695   9.441   7.181  0.0294 -0.8078  0.5180
27483SOL     OW87295   8.396   9.032   6.682 -0.5703 -0.0614 -0.3002
27483SOL    HW187296   8.408   8.941   6.710  1.5486 -0.0154 -0.9285
27483SOL    HW287297   8.328   9.028   6.615  0.0125 -1.2952 -0.8382
27484SOL     OW87298   8.581   9.744   6.254  0.6820  0.3703  0.4097
27484SOL    HW187299   8.611   9.818   6.307  2.0384  0.1516 -0.0263
27484SOL    HW287300   8.637   9.671   6.280  0.8029  0.0452 -0.7146
27485SOL     OW87301   9.320   0.092   4.708  0.0496 -0.2113 -0.5322
27485SOL    HW187302   9.327   0.053   4.795 -0.5214  1.3100  0.2087
27485SOL    HW287303   9.402   0.068   4.664  0.0644 -1.5130  0.1941
27486SOL     OW87304   9.530   9.775   6.169  0.0614 -0.6623  0.1697
27486SOL    HW187305   9.442   9.767   6.132  0.1218 -0.9077  0.0724
27486SOL    HW287306   9.575   9.836   6.111 -0.2372 -0.0432  0.5896
27487SOL     OW87307   7.247   8.940   5.567  0.1072  0.5659  0.0840
27487SOL    HW187308   7.202   9.024   5.579  0.7937  1.2432 -1.8909
27487SOL    HW287309   7.331   8.951   5.610 -0.6620  0.1179  1.7304
27488SOL     OW87310   7.974   9.663   8.504  0.4281  0.1727  0.4422
27488SOL    HW187311   7.981   9.743   8.453 -0.3265  1.3177  2.1135
27488SOL    HW287312   7.888   9.667   8.545  0.4067 -1.4577  0.5972
27489SOL     OW87313   8.232   7.230   6.766 -0.5737 -0.6467 -0.1252
27489SOL    HW187314   8.228   7.314   6.720  1.6073 -0.1714  0.4862
27489SOL    HW287315   8.228   7.164   6.696  0.5144  0.0405 -0.8588
27490SOL     OW87316   8.652   9.184   4.956 -0.0560 -0.2256 -0.0072
27490SOL    HW187317   8.698   9.234   5.023  1.7878 -1.0666 -0.6178
27490SOL    HW287318   8.719   9.162   4.892 -1.5581 -0.4806 -1.5136
27491SOL     OW87319   9.078   0.208   6.544  0.3644  0.5946  0.8631
27491SOL    HW187320   9.090   0.293   6.503 -0.9454  0.8588  1.0323
27491SOL    HW287321   9.122   0.215   6.629  3.3856 -0.0600 -0.5748
27492SOL     OW87322   9.989   7.864   6.187 -0.1754 -0.5511  0.9565
27492SOL    HW187323   9.904   7.874   6.146  0.9314 -0.3788 -1.3800
27492SOL    HW287324   9.991   7.929   6.257 -1.6214  0.0025  0.4781
27493SOL     OW87325   7.472   8.726   8.022  0.1081 -0.6552 -0.3267
27493SOL    HW187326   7.441   8.738   7.932  0.1595 -1.1002 -0.4045
27493SOL    HW287327   7.459   8.811   8.064 -1.6443 -0.9710 -0.2222
27494SOL     OW87328   8.848   7.546   5.738  0.1974  0.4114  0.2135
27494SOL    HW187329   8.779   7.493   5.778 -0.6515  1.8824  0.7357
27494SOL    HW287330   8.801   7.615   5.690  1.2747  0.5832 -0.6236
27495SOL     OW87331   8.990   8.739   6.379  0.5462 -0.0413 -0.4178
27495SOL    HW187332   9.075   8.779   6.399  0.4069 -0.9859  2.1483
27495SOL    HW287333   8.926   8.804   6.407  0.3987  0.5849 -2.1667
27496SOL     OW87334   9.142   7.313   6.936 -0.1451  0.2049  0.4017
27496SOL    HW187335   9.084   7.245   6.901  0.3525  0.7712 -1.5545
27496SOL    HW287336   9.164   7.282   7.024 -0.8023 -1.6221 -0.0555
27497SOL     OW87337   7.952   8.036   5.972  0.3221 -0.2325  0.1070
27497SOL    HW187338   8.002   8.023   5.891 -0.4096 -0.6431 -0.2841
27497SOL    HW287339   7.876   7.978   5.963  0.9808 -1.3851  1.7299
27498SOL     OW87340   8.104   8.991   5.770  0.6589 -0.5196 -0.0223
27498SOL    HW187341   8.069   9.068   5.725  0.6558 -0.8726 -0.6230
27498SOL    HW287342   8.026   8.945   5.802  0.6923  0.2129  1.1553
27499SOL     OW87343   7.862   8.107   4.942  0.0764  0.2148  0.0645
27499SOL    HW187344   7.863   8.079   4.850  1.8277 -1.3663  0.5495
27499SOL    HW287345   7.793   8.055   4.982 -0.4978  0.7057 -0.2660
27500SOL     OW87346   8.238   7.953   5.848 -0.2292 -0.7987 -0.1705
27500SOL    HW187347   8.209   7.934   5.759 -1.1477  0.7107 -0.2081
27500SOL    HW287348   8.310   7.891   5.864 -2.6930 -3.8572 -0.4631
27501SOL     OW87349   7.274   9.384   6.522 -0.6296  0.4732  0.3498
27501SOL    HW187350   7.206   9.321   6.498  1.2034 -1.6159  0.3593
27501SOL    HW287351   7.230   9.448   6.578 -2.4427 -1.1924  0.8995
27502SOL     OW87352   8.368   9.023   5.814 -0.1895 -0.6597 -0.1022
27502SOL    HW187353   8.277   8.994   5.822  0.1196 -1.6028  0.0259
27502SOL    HW287354   8.361   9.113   5.782 -1.1556 -1.1114 -1.2274
27503SOL     OW87355   8.687   7.998   7.086 -0.5885  0.0973  0.3062
27503SOL    HW187356   8.595   7.992   7.113 -0.1208 -0.8211  1.7120
27503SOL    HW287357   8.685   8.053   7.007 -2.2447  0.8001  0.8164
27504SOL     OW87358   8.887   9.823   7.235 -0.2494 -0.1379 -0.2020
27504SOL    HW187359   8.808   9.861   7.196 -0.2248  0.4734  0.3418
27504SOL    HW287360   8.953   9.830   7.166 -1.1529 -2.4069 -1.3526
27505SOL     OW87361   9.215   8.380   6.840 -0.1756 -0.2675  1.0199
27505SOL    HW187362   9.255   8.433   6.771 -2.4588  1.0962  0.6830
27505SOL    HW287363   9.194   8.297   6.798 -1.8219  0.6607 -0.0370
27506SOL     OW87364   7.948   8.363   5.825  0.1549  0.0050  0.2154
27506SOL    HW187365   8.037   8.373   5.860  0.4010 -0.3571 -0.3007
27506SOL    HW287366   7.936   8.438   5.768  0.0871  0.1126  0.3710
27507SOL     OW87367   8.748   8.704   7.399 -0.1097 -0.0158  0.7158
27507SOL    HW187368   8.666   8.739   7.432  0.2675 -0.1781  1.8180
27507SOL    HW287369   8.792   8.780   7.359 -1.5090 -0.2462 -1.3809
27508SOL     OW87370   7.982   6.838   5.760  0.7074 -0.5564  0.2269
27508SOL    HW187371   7.939   6.911   5.716  1.4995  0.1640  0.6268
27508SOL    HW287372   7.980   6.861   5.853 -0.9733 -2.0830  0.5833
27509SOL     OW87373   5.961   7.590   6.275  1.0119  0.9304 -0.6994
27509SOL    HW187374   5.990   7.561   6.189  0.2356 -0.8423 -0.4026
27509SOL    HW287375   5.919   7.512   6.313 -0.6261  2.3082  0.3833
27510SOL     OW87376   0.266   8.707   7.626 -0.4708 -0.1044  0.3844
27510SOL    HW187377   0.173   8.714   7.603 -0.0484 -0.3311 -1.5240
27510SOL    HW287378   0.281   8.613   7.636  0.7624 -0.6648 -5.0308
27511SOL     OW87379   6.820   9.248   5.912 -0.2705 -0.5039 -0.0636
27511SOL    HW187380   6.741   9.280   5.956  0.4479 -0.2828  1.0649
27511SOL    HW287381   6.841   9.166   5.956  1.3372  0.4934  1.0326
27512SOL     OW87382   0.910   7.585   6.066  0.2284  0.4283  0.4163
27512SOL    HW187383   0.874   7.619   5.984 -0.0521 -1.6928 -0.3731
27512SOL    HW287384   0.836   7.584   6.127 -0.6481 -1.9922 -0.6011
27513SOL     OW87385   7.831   8.627   8.152 -0.0171  0.2286  0.6152
27513SOL    HW187386   7.812   8.716   8.123 -1.3794 -0.4656 -0.7810
27513SOL    HW287387   7.875   8.587   8.077 -1.0768 -0.7842  0.5095
27514SOL     OW87388   8.544   9.109   6.393 -0.1766  0.1483  0.3968
27514SOL    HW187389   8.636   9.089   6.378  0.6341  2.1926  2.3016
27514SOL    HW287390   8.532   9.094   6.487 -2.0981 -1.2768 -0.0631
27515SOL     OW87391   9.539   8.414   7.505  0.3271 -0.3527  0.3420
27515SOL    HW187392   9.543   8.430   7.599 -0.0952 -0.6229  0.4045
27515SOL    HW287393   9.543   8.319   7.496  1.2594 -0.2914  0.0427
27516SOL     OW87394   0.100   0.381   5.943 -0.5514  0.5292  0.5180
27516SOL    HW187395   0.075   0.300   5.899  1.0804  0.9487 -1.2321
27516SOL    HW287396   0.188   0.400   5.912 -0.4353  2.3505  1.8301
27517SOL     OW87397   8.852   9.436   7.303  0.6515 -0.2694 -0.2483
27517SOL    HW187398   8.762   9.424   7.332  0.8505 -1.1328  0.0100
27517SOL    HW287399   8.846   9.447   7.208  0.2861 -0.4486 -0.2454
27518SOL     OW87400   9.858   7.951   6.790 -0.4509 -0.5114 -0.0488
27518SOL    HW187401   9.892   7.982   6.873  1.5350 -0.0190 -1.0115
27518SOL    HW287402   9.803   8.022   6.758  0.1940  0.0144  0.0188
27519SOL     OW87403   8.157   6.643   5.013 -0.4192 -0.3181  0.3026
27519SOL    HW187404   8.200   6.570   5.057  1.3099 -1.0763 -2.4858
27519SOL    HW287405   8.228   6.700   4.986 -1.4294  0.2968 -1.1473
27520SOL     OW87406   8.124   7.836   5.603  0.2665 -0.2997 -0.1503
27520SOL    HW187407   8.086   7.781   5.535  0.4108 -0.1487 -0.3537
27520SOL    HW287408   8.066   7.912   5.607  0.3229 -0.2556 -0.1847
27521SOL     OW87409   8.680   9.304   7.619 -0.1784 -0.1633 -0.4307
27521SOL    HW187410   8.649   9.317   7.529 -1.0155 -3.2395 -0.6350
27521SOL    HW287411   8.601   9.304   7.672  0.1024 -0.7785 -0.0078
27522SOL     OW87412   0.604   7.599   5.993 -0.2173  0.1289  0.4177
27522SOL    HW187413   0.682   7.633   5.951 -1.0408  0.3816 -0.9386
27522SOL    HW287414   0.590   7.656   6.068  1.8877 -0.9932  1.7166
27523SOL     OW87415   9.153   9.863   5.977  0.2344 -0.3371  0.5564
27523SOL    HW187416   9.197   9.779   5.991  1.0712  0.1113  0.6122
27523SOL    HW287417   9.201   9.903   5.904 -0.8997 -0.4216 -0.2582
27524SOL     OW87418   8.692   6.326   6.711  0.2597  0.2491 -0.0595
27524SOL    HW187419   8.692   6.404   6.767 -1.8232 -0.4698  1.0232
27524SOL    HW287420   8.600   6.297   6.712  0.6515 -1.1124 -1.9930
27525SOL     OW87421   0.425   6.953   7.389 -0.0782  0.2667  0.2744
27525SOL    HW187422   0.383   7.027   7.346 -2.7395 -0.9570  0.6192
27525SOL    HW287423   0.519   6.966   7.375 -0.7070  1.4108 -3.3940
27526SOL     OW87424   8.703   8.924   8.443 -0.1733 -0.1291  0.3434
27526SOL    HW187425   8.662   8.897   8.361  0.0481  0.4483  0.0430
27526SOL    HW287426   8.636   8.976   8.487  0.0445  0.3587  0.0988
27527SOL     OW87427   8.215   7.573   6.968  0.2391  0.0611 -0.6170
27527SOL    HW187428   8.124   7.543   6.965  0.2419 -0.0539  0.2926
27527SOL    HW287429   8.209   7.666   6.991  0.3713 -0.0639 -0.0785
27528SOL     OW87430   9.471   8.577   6.779  0.3582  0.1060  0.0225
27528SOL    HW187431   9.563   8.591   6.755  0.6082 -0.3727  0.7077
27528SOL    HW287432   9.449   8.651   6.835  0.8064 -0.6559  1.2043
27529SOL     OW87433   1.036   8.849   6.932  0.2180 -0.2966  0.1238
27529SOL    HW187434   1.017   8.880   7.021 -2.3091 -1.2140 -0.0625
27529SOL    HW287435   1.016   8.756   6.935 -0.2986 -0.2432 -1.5297
27530SOL     OW87436   8.227   6.871   7.525 -0.4157  0.1755 -0.3414
27530SOL    HW187437   8.267   6.807   7.466  0.6611  0.8232 -0.3236
27530SOL    HW287438   8.148   6.900   7.479  0.6921  1.0720 -1.7156
27531SOL     OW87439   9.496   8.252   6.849  0.0033  0.2784  0.3076
27531SOL    HW187440   9.578   8.251   6.897 -0.1933 -0.2655  0.6334
27531SOL    HW287441   9.444   8.320   6.893 -0.5624 -0.9226  1.5178
27532SOL     OW87442   8.148   9.472   6.990 -0.1038  0.8609  0.0806
27532SOL    HW187443   8.161   9.391   6.941 -0.3322  0.0449  1.3236
27532SOL    HW287444   8.068   9.456   7.041 -0.1576  1.8733  0.3209
27533SOL     OW87445   7.983   7.731   5.390  0.9290  0.3208 -0.3610
27533SOL    HW187446   7.981   7.778   5.306 -4.3792  0.2326 -0.4413
27533SOL    HW287447   7.988   7.639   5.365 -0.3359  0.3080 -0.5686
27534SOL     OW87448   8.752   7.114   5.656  0.3815 -0.0126 -0.0870
27534SOL    HW187449   8.836   7.146   5.689  0.7171 -1.5928  0.6641
27534SOL    HW287450   8.764   7.107   5.561  1.2940 -0.7767  0.0840
27535SOL     OW87451   8.926   7.513   6.060 -0.6120 -0.5046 -0.3361
27535SOL    HW187452   8.964   7.579   6.001  1.4158 -0.3052  1.1068
27535SOL    HW287453   8.841   7.549   6.085 -0.6310  0.3418 -1.5590
27536SOL     OW87454   9.936   8.220   5.877 -0.3003  0.4229  0.3544
27536SOL    HW187455   9.952   8.263   5.961  1.5991  1.6310 -0.5878
27536SOL    HW287456  10.004   8.152   5.871 -0.1727  0.6074 -0.3655
27537SOL     OW87457   6.498   8.093   4.171  0.1509 -0.0937 -0.2088
27537SOL    HW187458   6.592   8.077   4.162  0.0548 -0.7951 -0.0493
27537SOL    HW287459   6.465   8.095   4.081  0.3344  0.2671 -0.2698
27538SOL     OW87460   0.066   7.584   6.890  0.6155  0.0766  0.7713
27538SOL    HW187461   0.040   7.536   6.811  0.0433  1.5277  0.0541
27538SOL    HW287462   0.156   7.557   6.907  0.4756 -0.8377  0.0634
27539SOL     OW87463   6.722   8.572   6.813 -0.6664  0.0894 -0.1130
27539SOL    HW187464   6.742   8.585   6.720 -0.7225  1.1535  0.0294
27539SOL    HW287465   6.803   8.597   6.859 -0.9058  0.3132  0.1826
27540SOL     OW87466   6.722   1.798   7.531  0.5926  0.1696 -0.4305
27540SOL    HW187467   6.715   1.703   7.528  0.7947  0.0871  1.2701
27540SOL    HW287468   6.805   1.817   7.487  1.0328 -0.5020  0.1143
27541SOL     OW87469   8.708   8.022   7.351 -0.4434  0.7320  0.2181
27541SOL    HW187470   8.696   8.006   7.257 -1.5091 -1.6178  0.7044
27541SOL    HW287471   8.653   8.098   7.369 -1.8365 -0.0205 -0.7136
27542SOL     OW87472   7.103   8.189   9.412  0.4104 -0.2381  0.3864
27542SOL    HW187473   7.101   8.237   9.329  0.3014  0.6869  0.9182
27542SOL    HW287474   7.017   8.149   9.418  0.3944 -0.2541  0.0779
27543SOL     OW87475   7.962   8.617   7.374  0.0733  0.9557 -0.3058
27543SOL    HW187476   8.006   8.557   7.314  1.6606 -0.5744  2.2536
27543SOL    HW287477   7.878   8.575   7.392  0.0664  0.8460 -0.5938
27544SOL     OW87478   8.284   9.283   8.019 -0.5785  0.1623 -0.3886
27544SOL    HW187479   8.308   9.357   7.963  3.3177 -0.1880  0.6792
27544SOL    HW287480   8.316   9.307   8.106  0.1505 -2.4565  0.1156
27545SOL     OW87481   7.899   8.248   6.711  0.3355  0.1541  0.2967
27545SOL    HW187482   7.959   8.173   6.713 -3.2109 -2.8211 -0.1410
27545SOL    HW287483   7.902   8.282   6.801  1.8037 -0.6202  0.5701
27546SOL     OW87484   8.849   9.410   7.864  0.0593  0.3174  0.1206
27546SOL    HW187485   8.803   9.330   7.837  0.1266 -0.0574  1.1027
27546SOL    HW287486   8.942   9.387   7.859  0.1113  0.6494 -0.5429
27547SOL     OW87487   9.011   9.270   8.167 -0.2163 -0.5901  0.4072
27547SOL    HW187488   9.062   9.299   8.243 -2.0517  1.2901  0.9778
27547SOL    HW287489   8.926   9.246   8.204 -0.5870 -1.2686 -0.8569
27548SOL     OW87490   5.719   8.237   7.815  0.4330  0.3206 -0.7639
27548SOL    HW187491   5.713   8.250   7.720  3.5684 -1.9192 -1.3501
27548SOL    HW287492   5.803   8.276   7.839  1.1184 -1.8751  0.5327
27549SOL     OW87493   7.375   8.449   0.089  0.1402 -0.1909 -0.1664
27549SOL    HW187494   7.372   8.366   0.041 -2.6798  0.3432 -0.9756
27549SOL    HW287495   7.432   8.505   0.036  0.5055 -0.9712 -0.6170
27550SOL     OW87496   7.177   9.478   8.275 -0.1153  0.4342  0.3164
27550SOL    HW187497   7.133   9.431   8.345 -1.8268  2.5558  0.7454
27550SOL    HW287498   7.244   9.531   8.319 -0.3102  0.7759  0.2069
27551SOL     OW87499   7.125   7.377   9.290 -0.2866  0.7558  0.3575
27551SOL    HW187500   7.196   7.334   9.243  0.0828  1.4595  0.2602
27551SOL    HW287501   7.150   7.372   9.382 -0.0739  1.0694  0.3174
27552SOL     OW87502   7.038   7.741   8.879 -0.1072 -0.0165  0.1681
27552SOL    HW187503   7.039   7.752   8.974 -0.5274 -0.1057  0.1803
27552SOL    HW287504   7.127   7.764   8.852  0.8643 -2.6625  0.8963
27553SOL     OW87505   9.135   0.463   8.064 -0.1628 -0.6576  0.2493
27553SOL    HW187506   9.226   0.468   8.033 -0.8257 -0.6816 -1.7737
27553SOL    HW287507   9.097   0.547   8.038 -0.8047 -0.7709  0.8160
27554SOL     OW87508   8.838   9.800   8.183 -0.1286  0.1342  0.9163
27554SOL    HW187509   8.887   9.731   8.136  0.6879  0.8129  0.7564
27554SOL    HW287510   8.766   9.822   8.124  1.8343  2.1614 -0.8374
27555SOL     OW87511   8.627   7.920   8.290 -0.3125 -0.3452  0.4305
27555SOL    HW187512   8.617   7.827   8.270 -0.6291 -0.3398  0.5717
27555SOL    HW287513   8.624   7.963   8.204  0.5350 -0.5269  0.3014
27556SOL     OW87514   8.406   9.843   8.584 -0.1326  0.2627  0.0391
27556SOL    HW187515   8.341   9.912   8.587  0.1706  0.4669  3.1397
27556SOL    HW287516   8.490   9.889   8.584  0.0522 -0.0662 -0.4882
27557SOL     OW87517   7.820   8.642   1.127  0.1518 -0.0097  0.1888
27557SOL    HW187518   7.765   8.711   1.164 -0.3063  0.1109 -0.7121
27557SOL    HW287519   7.833   8.581   1.200 -1.3545 -0.1407  0.3818
27558SOL     OW87520   7.660   9.620   7.866  0.5954 -0.1679 -0.0563
27558SOL    HW187521   7.647   9.639   7.959 -0.9695  1.4630 -0.5659
27558SOL    HW287522   7.681   9.527   7.863  2.7318  0.1858  2.0972
27559SOL     OW87523   8.293   9.496   7.831  0.0560  1.0771  0.2274
27559SOL    HW187524   8.223   9.494   7.766 -0.2733 -1.6954  0.6016
27559SOL    HW287525   8.336   9.580   7.818 -2.3264  2.1341 -1.0860
27560SOL     OW87526   8.234   9.062   9.773 -0.1764  0.7721 -0.1881
27560SOL    HW187527   8.232   8.976   9.815 -2.7456  0.1556 -1.4504
27560SOL    HW287528   8.323   9.070   9.739  0.3368 -1.0203  0.6863
27561SOL     OW87529   0.422   8.851   7.783  0.6434 -0.2055 -0.0939
27561SOL    HW187530   0.493   8.873   7.722  1.0781  0.6972  0.7308
27561SOL    HW287531   0.357   8.807   7.728  0.5933  1.4635 -1.4250
27562SOL     OW87532   8.452   7.628   0.225  0.2513  0.6727 -0.6414
27562SOL    HW187533   8.360   7.600   0.235 -0.0167  2.2617  1.6132
27562SOL    HW287534   8.503   7.549   0.244 -0.6160 -0.0624 -1.3011
27563SOL     OW87535   8.454   8.874   9.501  0.9073 -0.6261 -1.0789
27563SOL    HW187536   8.450   8.922   9.583  1.2527 -0.4191 -1.1817
27563SOL    HW287537   8.523   8.917   9.451 -1.1907  1.0599 -2.6370
27564SOL     OW87538   9.084   9.630   6.738 -0.0391 -0.7048 -0.0509
27564SOL    HW187539   9.124   9.638   6.824 -0.0444 -1.1749 -0.0015
27564SOL    HW287540   9.040   9.713   6.724 -1.0068 -1.0490  0.8875
27565SOL     OW87541   7.997   9.115   8.799  0.2413 -0.2022  0.6071
27565SOL    HW187542   7.921   9.171   8.815 -0.1571 -0.0526 -1.6473
27565SOL    HW287543   8.069   9.157   8.846 -0.4816  1.0983  0.5585
27566SOL     OW87544   9.893   8.217   7.274  0.0561  0.1714  0.6032
27566SOL    HW187545   9.816   8.163   7.292  0.7319 -0.6168  1.1750
27566SOL    HW287546   9.914   8.199   7.183 -0.2331  0.1207  0.5463
27567SOL     OW87547   0.123   7.976   9.960  0.2890 -0.3143 -0.2562
27567SOL    HW187548   0.200   8.024   9.930 -1.1940  3.2304  1.3019
27567SOL    HW287549   0.145   7.948  10.049  0.1561 -0.1042 -0.1552
27568SOL     OW87550   8.012   6.056   9.579  0.0864 -0.1559 -0.1831
27568SOL    HW187551   7.961   6.071   9.659  1.6658 -0.0339  0.8372
27568SOL    HW287552   8.052   5.970   9.593  0.1678 -0.2434 -0.9597
27569SOL     OW87553   8.820   8.144   6.830 -0.6938 -0.1310  0.5768
27569SOL    HW187554   8.752   8.198   6.869 -1.3493  0.0438 -0.7639
27569SOL    HW287555   8.782   8.057   6.823  0.5920 -0.9653  3.3383
27570SOL     OW87556   9.704   8.292   8.522  0.1487 -0.4166  0.2571
27570SOL    HW187557   9.624   8.327   8.483 -0.1053 -2.0464 -0.7364
27570SOL    HW287558   9.696   8.311   8.615 -1.2701 -0.3257  0.1228
27571SOL     OW87559   6.277   8.751   8.614 -0.5300 -0.3234  0.4594
27571SOL    HW187560   6.306   8.787   8.531 -0.0581 -0.7170  0.4513
27571SOL    HW287561   6.275   8.826   8.674  2.4674 -0.6044  1.0008
27572SOL     OW87562   9.745   9.327   7.878 -0.3829  0.4068  0.3937
27572SOL    HW187563   9.679   9.334   7.947 -1.6751 -0.5495 -0.7147
27572SOL    HW287564   9.739   9.410   7.831 -0.8849  0.2654  0.2125
27573SOL     OW87565   9.550   0.044   8.585  0.2173 -0.6254 -0.2917
27573SOL    HW187566   9.463   0.085   8.580  1.3054  1.5907 -1.6793
27573SOL    HW287567   9.589   0.082   8.663  0.7845  0.1080 -0.9277
27574SOL     OW87568   7.956   8.939   9.935  0.3488 -0.2055 -0.4217
27574SOL    HW187569   7.926   8.906   9.851 -0.5535 -0.2515 -0.0879
27574SOL    HW287570   8.046   8.906   9.943  0.3369 -0.4390 -1.2299
27575SOL     OW87571   9.355   9.289   9.893  0.3985  0.5427  0.3501
27575SOL    HW187572   9.374   9.363   9.950  0.8673 -0.2235  1.2124
27575SOL    HW287573   9.432   9.232   9.901  0.2193  0.1541 -0.6050
27576SOL     OW87574   9.685   0.468   7.780  0.2453  0.6004  0.0271
27576SOL    HW187575   9.685   0.553   7.736  0.8478  0.8585  0.5194
27576SOL    HW287576   9.771   0.462   7.821 -0.2873  0.3489  1.1281
27577SOL     OW87577   8.039   8.008   6.726 -0.3528  0.1960  0.5664
27577SOL    HW187578   8.121   7.992   6.772 -0.2367  0.9979  0.6483
27577SOL    HW287579   8.025   7.928   6.674  0.6230  0.1728  0.3302
27578SOL     OW87580   8.515   8.453   7.925 -0.6702  0.4171 -0.4488
27578SOL    HW187581   8.572   8.446   8.002  0.8259  1.7269 -1.3972
27578SOL    HW287582   8.435   8.407   7.949  0.7017 -1.2389  1.0289
27579SOL     OW87583   9.530   9.949   7.087  0.1292 -0.0616 -0.2913
27579SOL    HW187584   9.587   9.985   7.019 -0.3229 -0.4513 -0.8858
27579SOL    HW287585   9.480  10.023   7.119 -0.5241 -0.0774 -1.2393
27580SOL     OW87586   8.893   7.958   7.982  0.3376  0.4020 -0.7320
27580SOL    HW187587   8.875   8.050   7.962 -0.3429  0.2309 -0.9320
27580SOL    HW287588   8.958   7.961   8.053 -0.0415  1.0394 -0.4065
27581SOL     OW87589   8.940   7.871   0.442 -0.2311  0.5036 -0.0738
27581SOL    HW187590   8.994   7.899   0.515 -0.5504 -1.2887  0.8819
27581SOL    HW287591   8.903   7.787   0.470 -1.2523  0.3324 -1.8351
27582SOL     OW87592   7.428   8.420   8.927 -1.1918  0.3681 -0.2464
27582SOL    HW187593   7.435   8.494   8.987 -2.6176 -0.9709  1.6440
27582SOL    HW287594   7.334   8.401   8.922 -0.8094 -1.6811 -0.1945
27583SOL     OW87595   8.242   9.716   7.267 -0.3026 -0.2790  0.0115
27583SOL    HW187596   8.159   9.734   7.310 -0.5529 -1.8403  0.2112
27583SOL    HW287597   8.291   9.798   7.273 -0.9382 -0.0276  1.9103
27584SOL     OW87598   9.860   0.351   7.457  0.5351 -0.4675  0.0615
27584SOL    HW187599   9.766   0.346   7.438  0.6851 -1.3783 -0.4736
27584SOL    HW287600   9.868   0.318   7.547  0.2846  0.1352  0.3101
27585SOL     OW87601   8.374   7.564   9.120  0.1633 -0.5332  0.8462
27585SOL    HW187602   8.299   7.533   9.172 -0.1254 -0.5007  0.4522
27585SOL    HW287603   8.422   7.621   9.180  0.0664 -0.8357  1.2138
27586SOL     OW87604   8.135   8.662   8.767  0.6307  0.0200 -0.3332
27586SOL    HW187605   8.107   8.752   8.779 -0.6223 -0.2049 -1.5394
27586SOL    HW287606   8.079   8.611   8.826  0.5449 -0.1053 -0.5225
27587SOL     OW87607   8.239   8.473   9.389  0.2746  0.4262  0.5804
27587SOL    HW187608   8.334   8.485   9.393  0.0295  1.9462  2.0531
27587SOL    HW287609   8.227   8.405   9.323  2.4857 -0.9520  1.5345
27588SOL     OW87610   8.946   8.444   0.839  0.0524 -0.0954  0.1095
27588SOL    HW187611   8.977   8.355   0.859  0.1562  0.0864  0.7650
27588SOL    HW287612   8.860   8.431   0.800  0.6506 -0.5708 -1.0956
27589SOL     OW87613   7.608   7.247   6.726 -0.1338 -0.0455  0.2172
27589SOL    HW187614   7.618   7.190   6.802  3.0762  0.2480  0.0928
27589SOL    HW287615   7.634   7.192   6.651 -1.9212  0.0881 -0.5298
27590SOL     OW87616   8.296   8.786   9.273 -0.4433 -0.2867  0.3184
27590SOL    HW187617   8.303   8.832   9.357 -0.9902  0.1945  0.1066
27590SOL    HW287618   8.286   8.694   9.297  1.6767 -0.4312  0.7203
27591SOL     OW87619   9.785   9.769   8.316  0.2743 -0.1596  0.1620
27591SOL    HW187620   9.872   9.808   8.324  0.9230 -1.5230 -0.1870
27591SOL    HW287621   9.801   9.682   8.280 -1.3241  0.0059 -0.9945
27592SOL     OW87622   7.623   0.889   8.357 -0.2490 -0.4456  0.2237
27592SOL    HW187623   7.670   0.911   8.437  0.1334 -0.6941  0.0666
27592SOL    HW287624   7.629   0.794   8.352 -0.4921 -0.4501  0.0319
27593SOL     OW87625   9.685   9.142   7.686  0.2216  0.5166 -0.3394
27593SOL    HW187626   9.690   9.212   7.752  2.2709 -1.2554  1.4457
27593SOL    HW287627   9.592   9.121   7.681 -0.2697  2.4785  0.0571
27594SOL     OW87628   8.927   0.893   8.630  0.3188 -0.0446  0.6482
27594SOL    HW187629   8.888   0.904   8.543  1.0386 -0.3449  0.2792
27594SOL    HW287630   8.999   0.956   8.632 -0.0945  0.4160  1.2742
27595SOL     OW87631   6.274   8.042   6.978  0.0564 -0.1255 -0.4446
27595SOL    HW187632   6.355   8.089   6.995  0.3423 -0.0610 -1.8615
27595SOL    HW287633   6.205   8.108   6.987  0.0652 -0.4010  1.7146
27596SOL     OW87634   9.670   0.171   7.017 -0.1413 -0.3339  0.4107
27596SOL    HW187635   9.706   0.255   7.047 -0.4476 -0.4392  1.0715
27596SOL    HW287636   9.746   0.124   6.984  0.5647 -1.0154  2.8681
27597SOL     OW87637   7.366   9.839   9.651  0.3750  0.0842 -0.6012
27597SOL    HW187638   7.441   9.823   9.594  0.3805  0.5845 -0.7419
27597SOL    HW287639   7.377   9.777   9.723 -0.7352 -1.9553 -2.1580
27598SOL     OW87640   0.168   8.991   6.593  0.4006 -0.1579  0.0165
27598SOL    HW187641   0.115   8.942   6.656  1.7805 -0.6577  0.7935
27598SOL    HW287642   0.211   8.924   6.540 -0.5009  0.2576 -1.2779
27599SOL     OW87643   8.756   6.669   8.561  0.3878 -0.2076 -0.7146
27599SOL    HW187644   8.785   6.603   8.623 -1.2072  1.0291  1.3991
27599SOL    HW287645   8.806   6.748   8.584 -0.4255  0.3383 -0.8084
27600SOL     OW87646   9.493   8.429   8.398 -0.4024 -0.1858 -0.7394
27600SOL    HW187647   9.424   8.411   8.334 -0.7096  0.5988 -0.6337
27600SOL    HW287648   9.484   8.522   8.418  0.6632 -0.0853 -0.6906
27601SOL     OW87649   7.850   9.807   7.858 -0.8136 -0.2525 -0.2529
27601SOL    HW187650   7.790   9.732   7.867 -1.7883  0.6786  1.1396
27601SOL    HW287651   7.841   9.855   7.940  1.0030  0.5395 -0.4943
27602SOL     OW87652   8.032   7.911   7.242 -0.3638  0.6433  0.4655
27602SOL    HW187653   7.955   7.965   7.265  0.8744  2.6210  0.1105
27602SOL    HW287654   8.098   7.935   7.307  0.3859 -0.0395 -0.0359
27603SOL     OW87655   8.448   0.462   0.063 -0.6902  0.1332  0.0692
27603SOL    HW187656   8.414   0.523   0.128 -0.8678  0.2110 -0.0954
27603SOL    HW287657   8.447   0.377   0.107 -0.0025  0.3230  0.4533
27604SOL     OW87658   7.931   9.955   7.173  0.1969 -0.7208  0.2135
27604SOL    HW187659   7.862  10.021   7.172  0.1142 -0.8160 -0.1980
27604SOL    HW287660   7.982   9.972   7.094  0.4914 -0.8109  0.3857
27605SOL     OW87661   9.045   8.918   8.330  0.0913 -0.4381  0.6321
27605SOL    HW187662   9.117   8.946   8.274 -1.7448  0.3095 -1.4502
27605SOL    HW287663   9.037   8.987   8.396  0.4049  0.1403  0.0604
27606SOL     OW87664   8.961   7.977   9.871 -0.1659 -0.2741  0.3538
27606SOL    HW187665   8.975   7.883   9.877  0.2447 -0.2714 -0.3994
27606SOL    HW287666   9.021   8.014   9.935 -1.6537 -0.6053  1.9664
27607SOL     OW87667   6.703   8.647   7.663  0.8780 -0.1261  0.8103
27607SOL    HW187668   6.651   8.718   7.625 -0.2790 -1.8880 -0.9598
27607SOL    HW287669   6.783   8.645   7.610  0.8948 -0.1745  0.8367
27608SOL     OW87670   7.361   7.867   7.891 -0.4549 -0.3364  0.1445
27608SOL    HW187671   7.389   7.783   7.855 -1.2001 -1.2204  1.5718
27608SOL    HW287672   7.268   7.854   7.913 -0.9410  1.2953 -0.8911
27609SOL     OW87673   8.916   8.618   8.812 -0.5250 -0.0148  0.2941
27609SOL    HW187674   9.000   8.641   8.852 -0.5313 -0.1102  0.3637
27609SOL    HW287675   8.890   8.697   8.766 -0.1245 -0.1690 -0.1961
27610SOL     OW87676   7.633   7.642   8.499 -0.1646 -0.0736 -0.9470
27610SOL    HW187677   7.693   7.662   8.571 -0.9910  2.2058 -0.8528
27610SOL    HW287678   7.551   7.686   8.523 -1.8283 -2.9280 -1.1937
27611SOL     OW87679   9.768   8.721   7.756  0.5070 -0.2862  0.2008
27611SOL    HW187680   9.691   8.722   7.699  0.3664  0.0902  0.4008
27611SOL    HW287681   9.812   8.638   7.735 -0.5644 -1.0547  0.8921
27612SOL     OW87682   9.139   7.172   6.542 -0.0572  0.4292  0.4000
27612SOL    HW187683   9.191   7.142   6.467 -2.2633  1.6671 -1.6966
27612SOL    HW287684   9.066   7.111   6.546 -1.0518  1.5924  0.2307
27613SOL     OW87685   8.784   9.126   8.154  0.1318 -0.1371  0.4286
27613SOL    HW187686   8.814   9.039   8.181  1.6619  0.4150  0.5656
27613SOL    HW287687   8.803   9.130   8.061  2.6170  1.0458  0.9530
27614SOL     OW87688   6.354   7.255   6.998 -0.4124  0.2525 -0.5653
27614SOL    HW187689   6.382   7.346   6.986 -0.2734  0.1213 -1.2482
27614SOL    HW287690   6.258   7.260   7.000 -0.4052  0.4131 -0.5819
27615SOL     OW87691   8.309   8.968   8.679 -0.1340 -0.2575  0.1775
27615SOL    HW187692   8.283   9.001   8.765 -2.0196  1.8400 -1.1458
27615SOL    HW287693   8.380   9.026   8.652 -1.2953  0.7324 -0.7797
27616SOL     OW87694   8.251   6.777   8.849  0.3126 -0.2094  0.0236
27616SOL    HW187695   8.251   6.795   8.943 -2.2167 -0.7240  0.1726
27616SOL    HW287696   8.230   6.684   8.842 -1.4480  0.2335 -1.0610
27617SOL     OW87697   7.636   1.387   9.246 -0.1330 -0.7092 -0.3594
27617SOL    HW187698   7.637   1.451   9.174  0.1895 -0.1103  0.1737
27617SOL    HW287699   7.627   1.303   9.202 -0.8879 -0.2794 -1.0538
27618SOL     OW87700   8.644   9.572   7.962  0.1751 -0.3150  0.0565
27618SOL    HW187701   8.699   9.510   7.914  0.4071  1.4504 -2.0427
27618SOL    HW287702   8.608   9.521   8.035  2.0933 -2.3109 -0.3390
27619SOL     OW87703   8.408   8.714   6.695 -0.7102  0.3676  0.4122
27619SOL    HW187704   8.408   8.628   6.739 -0.0765  0.1143 -0.0653
27619SOL    HW287705   8.326   8.716   6.646 -1.4815  0.7062  1.6979
27620SOL     OW87706   8.475   7.654   7.077  1.0923  0.0217  0.7805
27620SOL    HW187707   8.534   7.604   7.133  2.7900 -0.0358 -0.9947
27620SOL    HW287708   8.394   7.604   7.077  1.9225 -1.3570  1.1265
27621SOL     OW87709   6.884   7.377   8.313 -0.2750 -0.1111 -0.3207
27621SOL    HW187710   6.872   7.426   8.231 -1.9040  1.0681  0.5892
27621SOL    HW287711   6.960   7.418   8.354 -0.0067 -0.1048 -0.8268
27622SOL     OW87712   7.289   8.098   8.973  0.1119 -0.2807 -0.6879
27622SOL    HW187713   7.249   8.183   8.953  0.5791 -0.0899 -0.8235
27622SOL    HW287714   7.383   8.114   8.966  0.1881 -0.9603 -1.3035
27623SOL     OW87715   9.066   9.077   7.359 -0.1447  0.1365  0.0310
27623SOL    HW187716   9.139   9.135   7.338  0.0060 -0.7934 -2.1206
27623SOL    HW287717   8.990   9.118   7.319 -0.0393 -1.1172 -1.4804
27624SOL     OW87718   8.515   7.278   6.622 -0.1653 -0.0944  0.1946
27624SOL    HW187719   8.559   7.323   6.549 -1.1956 -0.5388 -0.7222
27624SOL    HW287720   8.518   7.341   6.694  4.2619 -1.0939  1.0214
27625SOL     OW87721   8.133   9.251   7.469 -0.0844 -0.3661  0.7390
27625SOL    HW187722   8.206   9.198   7.436  1.1907  0.7222  1.7495
27625SOL    HW287723   8.175   9.329   7.506 -1.7344  0.0786  1.7281
27626SOL     OW87724   7.137   8.906   9.166  0.2683  0.0611  0.5686
27626SOL    HW187725   7.119   8.858   9.247  0.8531 -0.1561  0.5732
27626SOL    HW287726   7.151   8.838   9.100 -3.9654  0.2049 -0.6174
27627SOL     OW87727   9.894   7.229   7.549 -0.1683 -0.4177  0.3933
27627SOL    HW187728   9.930   7.141   7.536  1.1342  0.0627  0.6818
27627SOL    HW287729   9.912   7.248   7.641  1.0027  0.7928 -0.0775
27628SOL     OW87730   8.469   9.302   7.772 -0.1759 -0.2303  0.0814
27628SOL    HW187731   8.399   9.247   7.738 -0.5110 -1.3415  2.4757
27628SOL    HW287732   8.423   9.377   7.810  0.0839  0.1491 -0.3494
27629SOL     OW87733   0.478   8.758   7.463 -0.4534 -0.0403  0.3683
27629SOL    HW187734   0.521   8.680   7.427 -0.6050  0.1593 -0.2379
27629SOL    HW287735   0.405   8.724   7.514 -0.0293 -0.3415  0.7820
27630SOL     OW87736   8.997   8.539   7.413  0.2783 -0.2244 -0.2664
27630SOL    HW187737   8.924   8.586   7.454 -0.7166 -2.5963  0.8315
27630SOL    HW287738   9.057   8.607   7.385 -1.4886  1.7170  0.5094
27631SOL     OW87739   8.026   7.187   8.773 -0.0804  0.0832  0.4546
27631SOL    HW187740   7.937   7.217   8.754  0.2179 -0.9343 -2.9107
27631SOL    HW287741   8.078   7.267   8.782 -0.8722  0.6634 -0.1262
27632SOL     OW87742   7.352   0.114   9.996 -0.1320  0.3077 -0.7714
27632SOL    HW187743   7.356   0.172  10.071  3.7902  1.1338 -1.5591
27632SOL    HW287744   7.313   0.167   9.926 -1.0686  0.4233 -0.1765
27633SOL     OW87745   9.414   1.496   9.064  0.3616  0.4855 -0.2934
27633SOL    HW187746   9.504   1.483   9.093  0.4746  0.5024 -0.6372
27633SOL    HW287747   9.361   1.483   9.143  0.3944 -3.0425 -0.7744
27634SOL     OW87748   9.849   7.992   9.361  0.2335  0.3422 -0.2975
27634SOL    HW187749   9.800   8.060   9.314  0.4772  1.3052  0.8097
27634SOL    HW287750   9.939   8.005   9.333  0.2901  0.5239 -0.0321
27635SOL     OW87751   8.255   9.413   0.409 -0.9929  0.1235 -0.8645
27635SOL    HW187752   8.335   9.401   0.358 -1.1112 -2.5564 -0.4744
27635SOL    HW287753   8.184   9.402   0.345 -1.0955  3.2190 -1.3592
27636SOL     OW87754   8.356   7.592   8.067 -0.5103  0.2482 -0.1788
27636SOL    HW187755   8.409   7.631   7.996 -1.2989  0.9578 -0.3899
27636SOL    HW287756   8.418   7.580   8.139  0.2629 -0.2951 -0.9191
27637SOL     OW87757   0.132   9.902   7.808 -0.7133 -0.0979 -0.7446
27637SOL    HW187758   0.220   9.865   7.809 -0.3741  0.6440 -1.8707
27637SOL    HW287759   0.092   9.866   7.729 -0.2301  2.2068 -2.1124
27638SOL     OW87760   7.404   8.908   1.077  0.7011  0.3872 -0.4079
27638SOL    HW187761   7.439   8.965   1.145  1.4055  1.2021 -1.4294
27638SOL    HW287762   7.442   8.942   0.996 -1.1474  0.2428 -1.3660
27639SOL     OW87763   8.929   9.991   6.008  0.3122 -0.0791  0.1378
27639SOL    HW187764   9.010   9.942   6.020  0.4139  0.1308  0.2913
27639SOL    HW287765   8.933  10.023   5.918  0.4843  0.0926  0.2072
27640SOL     OW87766   7.830   9.143   9.488 -0.0983 -0.9549 -0.1493
27640SOL    HW187767   7.761   9.169   9.550  0.2567 -0.0172 -0.1329
27640SOL    HW287768   7.859   9.057   9.519 -1.9917 -1.8319 -0.7808
27641SOL     OW87769   9.659   8.311   8.116 -0.6215  0.5466  0.3378
27641SOL    HW187770   9.703   8.324   8.200 -0.3884 -1.6893  0.5878
27641SOL    HW287771   9.728   8.328   8.051  0.9409 -3.6584  0.7378
27642SOL     OW87772   7.934   7.824   0.411 -0.1360 -0.1294 -0.0857
27642SOL    HW187773   8.019   7.784   0.427 -0.2153 -0.2261  0.0940
27642SOL    HW287774   7.926   7.827   0.315 -0.5205 -1.3945 -0.1007
27643SOL     OW87775   7.180   7.922   7.214  0.4472 -0.2180 -0.0195
27643SOL    HW187776   7.212   7.877   7.292 -1.5071 -0.0063  0.9252
27643SOL    HW287777   7.213   8.012   7.223  1.2298 -0.4973 -0.0589
27644SOL     OW87778   9.282   1.407   8.125  0.0450 -0.0091 -0.2279
27644SOL    HW187779   9.367   1.436   8.092  0.8574  0.2071  1.9508
27644SOL    HW287780   9.218   1.445   8.065  1.3887  1.6066 -0.6682
27645SOL     OW87781   8.373   8.473   9.945 -0.1463  0.4628 -0.0835
27645SOL    HW187782   8.369   8.539  10.014 -1.4352 -1.0582  1.3319
27645SOL    HW287783   8.457   8.488   9.902  1.1075  0.8270  2.4365
27646SOL     OW87784   0.244   0.279   7.431  0.5214  0.4225 -0.0832
27646SOL    HW187785   0.199   0.364   7.434  1.2546  0.8437 -0.7576
27646SOL    HW287786   0.173   0.215   7.419  0.1373  1.1493 -1.9374
27647SOL     OW87787   7.854   0.076   9.144 -0.6870 -0.6651 -0.2872
27647SOL    HW187788   7.819   0.164   9.131 -0.9090 -0.6300  0.5238
27647SOL    HW287789   7.820   0.049   9.229  2.3315 -0.0983  1.1568
27648SOL     OW87790   8.312   0.218   8.191  0.2746 -0.3730  0.4926
27648SOL    HW187791   8.397   0.247   8.160  0.2426 -0.7291  0.0536
27648SOL    HW287792   8.264   0.298   8.212 -0.1538 -0.0630 -1.5892
27649SOL     OW87793   9.459   9.643   9.095  0.0932 -0.6072  0.1022
27649SOL    HW187794   9.440   9.635   9.188  2.0984  2.8764  0.9156
27649SOL    HW287795   9.374   9.661   9.054 -0.6131 -0.8363  1.4472
27650SOL     OW87796   9.562   7.586   8.928 -0.9493  0.1346 -0.3924
27650SOL    HW187797   9.487   7.636   8.897 -1.4340 -0.0118  0.5300
27650SOL    HW287798   9.630   7.652   8.942 -1.6890  0.5872  1.1312
27651SOL     OW87799   7.628   8.985   8.380  0.2407  0.2896 -0.4691
27651SOL    HW187800   7.658   8.915   8.438  0.0139  1.1840  0.7530
27651SOL    HW287801   7.688   9.058   8.397  0.1709  0.5669 -1.3640
27652SOL     OW87802   7.473   9.595   0.746  0.0055 -0.8362  0.6067
27652SOL    HW187803   7.484   9.560   0.658 -0.4270  1.9521 -0.6242
27652SOL    HW287804   7.549   9.652   0.759 -1.4502  1.1326  0.8033
27653SOL     OW87805   8.929   9.086   9.240  0.0587 -0.3932 -0.8864
27653SOL    HW187806   8.992   9.157   9.229 -0.4889  0.0297 -1.3138
27653SOL    HW287807   8.932   9.038   9.157  0.2907 -0.7584 -0.6695
27654SOL     OW87808   9.464   7.632   6.238  0.3699 -0.1046 -0.3822
27654SOL    HW187809   9.384   7.583   6.257  0.3700  0.2999  0.6751
27654SOL    HW287810   9.434   7.721   6.222  0.2232 -0.6811 -3.5907
27655SOL     OW87811   8.755   8.305   9.303  0.5503 -0.5176  0.2102
27655SOL    HW187812   8.677   8.315   9.248 -0.8425 -0.7277  2.1196
27655SOL    HW287813   8.788   8.217   9.282 -0.9848 -1.2945  0.9598
27656SOL     OW87814   7.833   8.364   8.508  0.5253 -0.6585  0.5112
27656SOL    HW187815   7.823   8.408   8.592 -0.4962 -0.6293  0.3829
27656SOL    HW287816   7.758   8.395   8.456  0.1579 -2.0442  0.2064
27657SOL     OW87817   6.954   8.674   7.529 -0.1923 -0.0013 -0.1927
27657SOL    HW187818   7.024   8.641   7.585 -0.1309 -0.9694 -0.8259
27657SOL    HW287819   6.983   8.762   7.504 -0.1897  0.4141  1.2239
27658SOL     OW87820   9.024   8.960   0.794  0.2644 -0.3794  0.2758
27658SOL    HW187821   8.956   9.008   0.841 -0.0574  1.2430 -1.7819
27658SOL    HW287822   8.987   8.872   0.783 -0.1657 -0.4363  1.8987
27659SOL     OW87823   7.290   9.443   9.506  1.0790  0.1684 -0.8585
27659SOL    HW187824   7.304   9.410   9.595 -0.4819  0.9820 -0.3061
27659SOL    HW287825   7.229   9.381   9.467 -1.0679  1.7915 -0.1537
27660SOL     OW87826   9.913   7.914   8.997 -0.4546 -0.9329 -0.4843
27660SOL    HW187827   9.948   7.877   8.916 -0.9558  0.1776 -1.2201
27660SOL    HW287828   9.991   7.940   9.047 -0.1275 -2.2231 -0.3044
27661SOL     OW87829   7.910   7.558   7.127  0.4120 -0.0215  0.0248
27661SOL    HW187830   7.872   7.645   7.133  2.7609  1.1696 -1.5449
27661SOL    HW287831   7.908   7.524   7.216 -1.3602  1.2459  0.4929
27662SOL     OW87832   8.304   0.653   9.426 -0.4141  1.0291 -0.7143
27662SOL    HW187833   8.332   0.583   9.485 -2.6631  0.2924 -0.4962
27662SOL    HW287834   8.352   0.635   9.345  0.7605  0.5730  0.0601
27663SOL     OW87835   9.096   7.935   8.168 -0.6310  0.0658 -0.0778
27663SOL    HW187836   9.153   7.887   8.229 -0.3342  0.1891 -0.2581
27663SOL    HW287837   9.049   7.996   8.224 -0.8686 -0.2997  0.1277
27664SOL     OW87838   9.791   8.305   9.952 -0.3846 -0.1249  0.7416
27664SOL    HW187839   9.793   8.382   9.895  3.5866 -0.6861 -0.0145
27664SOL    HW287840   9.770   8.232   9.894 -0.0923 -0.1639  0.6807
27665SOL     OW87841   9.124   8.151   9.336 -0.1437 -0.4741 -0.3231
27665SOL    HW187842   9.122   8.063   9.298 -2.2602 -0.8413  0.5319
27665SOL    HW287843   9.053   8.151   9.400  2.1911  0.7250  2.3342
27666SOL     OW87844   9.328   8.119   7.623  0.1899 -0.2075 -0.1779
27666SOL    HW187845   9.291   8.116   7.712 -1.5542 -0.9752 -0.9260
27666SOL    HW287846   9.327   8.212   7.601  4.6780  0.5854  2.2364
27667SOL     OW87847   9.528   9.412   7.609 -0.4619  0.1713 -0.5017
27667SOL    HW187848   9.520   9.440   7.518  0.3851 -1.0237 -0.9684
27667SOL    HW287849   9.482   9.479   7.660  0.7224  1.8766 -1.6368
27668SOL     OW87850   6.993   7.576   9.136  0.4065 -0.5111 -1.1223
27668SOL    HW187851   7.024   7.526   9.060  0.8793 -0.2272 -1.1137
27668SOL    HW287852   7.035   7.534   9.211  0.3559 -0.4528 -1.0630
27669SOL     OW87853   6.816   8.717   8.236 -0.3673 -0.0699  0.1083
27669SOL    HW187854   6.754   8.772   8.285  0.3691  0.5985  0.2880
27669SOL    HW287855   6.831   8.764   8.154 -1.2305 -0.9608 -0.5717
27670SOL     OW87856   9.565   7.769   0.933 -0.1932 -0.0531 -0.3251
27670SOL    HW187857   9.508   7.764   1.010 -2.8999 -0.0421 -2.2145
27670SOL    HW287858   9.591   7.861   0.928  1.2348 -0.3403  1.3831
27671SOL     OW87859   7.785   9.716   7.177 -0.1399  0.6318  0.1583
27671SOL    HW187860   7.756   9.682   7.093 -0.5543 -0.4735  0.7332
27671SOL    HW287861   7.845   9.787   7.155  0.7398 -0.4684 -1.0755
27672SOL     OW87862   7.465   8.693   9.052  0.1947  0.1784 -0.3913
27672SOL    HW187863   7.545   8.723   9.009  0.9776 -0.4073  0.6129
27672SOL    HW287864   7.452   8.756   9.124 -0.2796  0.3028 -0.5855
27673SOL     OW87865   7.555   9.320   7.189 -0.0643 -0.1714 -0.1811
27673SOL    HW187866   7.618   9.310   7.118  2.0934 -0.7971  1.7414
27673SOL    HW287867   7.531   9.230   7.212 -0.8834  0.0344 -0.2229
27674SOL     OW87868   8.456   8.071   7.623  0.3163  0.8170 -0.0223
27674SOL    HW187869   8.381   8.036   7.671  0.6277  1.5701  1.0572
27674SOL    HW287870   8.472   8.008   7.553 -0.9786  0.3690  0.0691
27675SOL     OW87871   7.775   0.347   0.489 -0.1197 -0.0509  0.1231
27675SOL    HW187872   7.814   0.403   0.556  0.6370  1.5109 -1.5957
27675SOL    HW287873   7.827   0.267   0.492 -0.0372  0.0263  1.3234
27676SOL     OW87874   9.373   0.641   1.548 -0.2925 -0.5594  0.0560
27676SOL    HW187875   9.391   0.697   1.624 -1.3330  0.2507 -0.2792
27676SOL    HW287876   9.434   0.568   1.557  0.1103 -0.0884  1.2658
27677SOL     OW87877   7.909   7.874   8.604 -0.0116  0.6033 -0.1888
27677SOL    HW187878   7.987   7.838   8.647  0.5389  1.8988 -0.0779
27677SOL    HW287879   7.873   7.935   8.668  0.0440  1.5378 -1.0389
27678SOL     OW87880   7.987   7.745   6.626  0.1422  0.5018 -0.0377
27678SOL    HW187881   7.959   7.705   6.543  0.7623  0.7763 -0.3853
27678SOL    HW287882   8.082   7.754   6.617  0.2414  0.2686  0.8275
27679SOL     OW87883   9.166   8.970   7.894  0.2424 -0.0468  0.2376
27679SOL    HW187884   9.189   8.974   7.802  1.4446 -0.1615  0.5265
27679SOL    HW287885   9.204   9.049   7.933 -1.5825  0.8086  0.3628
27680SOL     OW87886   8.730   7.929   9.687 -0.1864  0.3759 -0.1908
27680SOL    HW187887   8.708   7.835   9.690  0.5601  0.2114  0.0886
27680SOL    HW287888   8.809   7.937   9.740 -1.2362  1.4595  1.2587
27681SOL     OW87889   9.416   9.134   7.644  0.1644 -0.0181  0.1977
27681SOL    HW187890   9.321   9.141   7.636  0.0771  0.4342  1.4224
27681SOL    HW287891   9.446   9.225   7.640  0.6457 -0.2437 -1.2863
27682SOL     OW87892   7.786   8.208   0.429 -0.7192 -0.5043 -0.0988
27682SOL    HW187893   7.786   8.190   0.523 -1.3109  0.0310  0.0104
27682SOL    HW287894   7.874   8.185   0.400 -0.4847 -0.5255  0.6163
27683SOL     OW87895   9.418   8.294   6.446 -0.0291  0.0538  0.3579
27683SOL    HW187896   9.381   8.377   6.476 -0.4714  0.2398 -0.6751
27683SOL    HW287897   9.458   8.255   6.524  0.5895  1.4514  0.7540
27684SOL     OW87898   6.471   8.562   7.793  0.1784  0.6979  0.2564
27684SOL    HW187899   6.413   8.623   7.747 -1.4996 -2.2442 -1.7020
27684SOL    HW287900   6.559   8.582   7.760 -0.2895  2.3026 -0.0452
27685SOL     OW87901   8.896   7.715   9.439  0.1848  0.1821  0.4958
27685SOL    HW187902   8.957   7.769   9.489  0.2228  1.5761 -1.0229
27685SOL    HW287903   8.848   7.777   9.385 -0.4046 -1.2211 -0.6100
27686SOL     OW87904   8.733   7.654   7.178 -0.1080  0.6033  0.3541
27686SOL    HW187905   8.780   7.619   7.103 -0.4404  0.2010  0.3333
27686SOL    HW287906   8.676   7.722   7.142 -1.3252 -0.5683  0.0311
27687SOL     OW87907   9.884   8.958   8.979  0.8700  0.2793 -0.3504
27687SOL    HW187908   9.790   8.960   8.963  0.8398 -0.4878 -0.2803
27687SOL    HW287909   9.909   8.867   8.965  1.4795  0.3351  0.3486
27688SOL     OW87910   9.856   8.839   8.394 -0.1613  1.0030  0.5631
27688SOL    HW187911   9.902   8.810   8.315  0.3079  0.9551  0.8533
27688SOL    HW287912   9.764   8.839   8.369 -0.3802 -2.6081  1.1348
27689SOL     OW87913   6.174   9.282   0.249  0.7654  0.5520 -0.1305
27689SOL    HW187914   6.188   9.207   0.307  0.9148  0.0594 -0.7952
27689SOL    HW287915   6.228   9.352   0.286  1.5108 -0.0070 -0.1505
27690SOL     OW87916   9.087   9.057   0.168 -0.3137 -0.2943 -0.4849
27690SOL    HW187917   9.013   9.004   0.142  0.0269 -0.7560 -0.5167
27690SOL    HW287918   9.098   9.120   0.096  0.0782 -0.9996 -1.0497
27691SOL     OW87919   9.579   7.964   7.668  0.0946 -0.0853  0.0585
27691SOL    HW187920   9.661   7.944   7.714  0.2496 -1.0072 -0.6158
27691SOL    HW287921   9.516   7.981   7.738  0.5894 -0.4484  0.5979
27692SOL     OW87922   9.509   9.008   7.426 -0.0049  0.2167 -0.0818
27692SOL    HW187923   9.585   9.055   7.391  0.6832 -0.2722  0.7627
27692SOL    HW287924   9.488   9.053   7.508  0.0280 -0.3162  0.2187
27693SOL     OW87925   7.590   0.633   9.264 -0.1005 -0.3869 -0.8750
27693SOL    HW187926   7.676   0.675   9.254  0.9357 -2.0995  0.4393
27693SOL    HW287927   7.581   0.579   9.185  1.0668 -1.8977 -0.0239
27694SOL     OW87928   7.583   8.395   9.341  0.0517  0.5250  0.4210
27694SOL    HW187929   7.611   8.484   9.317  1.5819 -0.1350 -0.3026
27694SOL    HW287930   7.488   8.400   9.343  0.0878  1.9634 -0.5100
27695SOL     OW87931   8.943   0.700   9.300  0.1021  0.4372  0.5723
27695SOL    HW187932   8.905   0.731   9.218  1.8941  3.1888  0.6857
27695SOL    HW287933   8.870   0.700   9.362 -0.8092  0.4568 -0.4804
27696SOL     OW87934   7.895   9.464   7.401 -0.3824  0.0089  0.4566
27696SOL    HW187935   7.854   9.384   7.435 -1.0219  0.0319 -0.2474
27696SOL    HW287936   7.863   9.471   7.311  0.1117  0.7616  0.3334
27697SOL     OW87937   9.704   1.401   9.620 -0.4251  0.0430  0.1108
27697SOL    HW187938   9.656   1.321   9.599  0.8726 -0.7809  0.2115
27697SOL    HW287939   9.763   1.413   9.546  0.6696 -0.1114  0.9552
27698SOL     OW87940   8.061   6.629   7.462 -0.0540  0.4699 -0.1877
27698SOL    HW187941   8.017   6.598   7.382 -1.2162  0.0505  0.6012
27698SOL    HW287942   8.147   6.658   7.432 -0.0112 -0.8592 -1.3983
27699SOL     OW87943   9.111   8.340   8.922 -0.3878 -0.1493  0.0747
27699SOL    HW187944   9.109   8.400   8.847 -3.2370 -2.1131 -1.4862
27699SOL    HW287945   9.102   8.397   8.998 -2.5266  1.4927 -1.3517
27700SOL     OW87946   8.066   0.062   6.529  0.0468 -0.3995  0.3264
27700SOL    HW187947   8.080   0.138   6.471 -0.2618 -2.1403 -2.1141
27700SOL    HW287948   8.048   0.101   6.615  0.2246  2.2836 -0.7783
27701SOL     OW87949   7.794   8.922   9.683 -0.4360 -0.2037  0.1060
27701SOL    HW187950   7.723   8.915   9.747  0.2537  0.9556  1.0327
27701SOL    HW287951   7.826   8.833   9.673 -0.0025 -0.2921  2.0436
27702SOL     OW87952   8.499   9.074   7.088 -0.5314 -0.5373  0.1727
27702SOL    HW187953   8.540   9.111   7.010  2.6588 -1.1733  1.4811
27702SOL    HW287954   8.526   9.132   7.159 -0.7134 -1.8123  1.3068
27703SOL     OW87955   0.291   8.758   6.781  0.1549 -0.5225 -0.1377
27703SOL    HW187956   0.207   8.713   6.769  0.6864 -1.4163 -0.5209
27703SOL    HW287957   0.267   8.848   6.803 -0.9219 -0.9737  0.5730
27704SOL     OW87958   8.655   8.196   8.143 -0.0845 -0.2312 -0.6160
27704SOL    HW187959   8.680   8.272   8.196 -1.6945  1.2208 -1.8754
27704SOL    HW287960   8.561   8.186   8.158 -1.0709  1.5777 -4.7952
27705SOL     OW87961   8.604   0.691   8.804  0.7824 -0.5735  0.0342
27705SOL    HW187962   8.584   0.771   8.756 -1.3509 -1.7605 -1.1592
27705SOL    HW287963   8.573   0.708   8.893  0.3460 -0.0669 -0.2110
27706SOL     OW87964   8.621   8.291   6.925  0.4010 -0.0576  0.3450
27706SOL    HW187965   8.645   8.383   6.933 -0.4406  0.3896 -1.8966
27706SOL    HW287966   8.534   8.285   6.964  0.0939  0.2950 -0.2682
27707SOL     OW87967   8.920   6.058   9.092  0.5220 -0.3022  0.2028
27707SOL    HW187968   8.868   6.101   9.160 -0.6004  1.5686 -1.7718
27707SOL    HW287969   8.891   5.967   9.093 -0.3949 -0.0058  1.3520
27708SOL     OW87970   9.478   8.676   8.485 -0.7891 -0.6408  0.3715
27708SOL    HW187971   9.404   8.737   8.481 -0.5573 -0.4016 -0.3701
27708SOL    HW287972   9.540   8.718   8.545 -1.0018 -0.5697  0.5458
27709SOL     OW87973   9.640   7.551   9.353 -0.2081  0.1550  0.6516
27709SOL    HW187974   9.735   7.556   9.356 -0.1623 -0.8809  1.3880
27709SOL    HW287975   9.621   7.486   9.285 -0.3631 -0.1468  0.9778
27710SOL     OW87976   8.564   9.747   6.955 -0.1611  0.0363  0.5950
27710SOL    HW187977   8.629   9.692   6.912 -3.3888 -0.6144 -3.8724
27710SOL    HW287978   8.574   9.833   6.913 -1.6430  0.1219  0.3908
27711SOL     OW87979   7.885   7.935   1.046 -0.6316 -0.1262 -0.2913
27711SOL    HW187980   7.952   7.978   0.993 -0.4066 -0.3019 -0.1523
27711SOL    HW287981   7.817   8.002   1.057 -0.0386  0.3719  0.3801
27712SOL     OW87982   7.197   6.282   8.449 -0.2540  0.5645 -0.0983
27712SOL    HW187983   7.111   6.240   8.450  0.5471 -1.1184  0.2675
27712SOL    HW287984   7.226   6.277   8.540  0.9405 -0.4077 -0.5186
27713SOL     OW87985   8.468   9.359   8.497  0.5759 -0.2222  0.6400
27713SOL    HW187986   8.450   9.425   8.564 -0.0106 -0.9496  1.2121
27713SOL    HW287987   8.558   9.375   8.470  0.5949  0.4968  1.1349
27714SOL     OW87988   7.871   9.069   0.560 -0.5866  0.4582  0.0976
27714SOL    HW187989   7.923   8.994   0.588  0.3077  0.7531 -0.7612
27714SOL    HW287990   7.855   9.119   0.640 -1.9822 -1.1136  0.8465
27715SOL     OW87991   8.215   7.834   8.160  0.0819  0.3396 -0.4070
27715SOL    HW187992   8.234   7.751   8.116 -1.6253 -0.9847  1.2733
27715SOL    HW287993   8.137   7.867   8.115 -1.0075 -0.4689  0.8610
27716SOL     OW87994   0.131   9.252   8.403 -0.1167 -0.3530 -0.4927
27716SOL    HW187995   0.194   9.231   8.471  1.7421  0.9852 -1.7437
27716SOL    HW287996   0.136   9.179   8.342  0.2014 -0.2688 -0.5682
27717SOL     OW87997   7.715   7.787   8.850 -0.2055 -0.0502  0.5484
27717SOL    HW187998   7.779   7.741   8.797  1.8805  3.1792  0.1210
27717SOL    HW287999   7.759   7.801   8.934 -1.4014 -0.2610  1.2228
27718SOL     OW88000   9.604   0.649   7.465 -0.0234  0.2149 -0.5954
27718SOL    HW188001   9.580   0.724   7.411 -1.5330 -0.5587 -1.0313
27718SOL    HW288002   9.651   0.688   7.539 -1.6493  1.7138 -0.3010
27719SOL     OW88003   7.994   8.422   0.138 -0.2413  0.7431 -0.2325
27719SOL    HW188004   7.959   8.357   0.076  1.9365 -0.2335 -0.4627
27719SOL    HW288005   7.956   8.505   0.109  1.5459  0.4929 -3.5786
27720SOL     OW88006   7.950   8.730   9.244  0.2923  0.1992  0.2156
27720SOL    HW188007   7.942   8.823   9.264  2.7180  0.0276  2.3417
27720SOL    HW288008   8.009   8.727   9.168 -0.4622  0.4048 -0.3883
27721SOL     OW88009   7.513   8.569   8.646  0.1780 -0.4539  0.5806
27721SOL    HW188010   7.473   8.647   8.685  0.0439 -0.0401 -0.3564
27721SOL    HW288011   7.600   8.564   8.685  1.0763  1.5187 -1.0397
27722SOL     OW88012   9.325   6.821   9.053  0.1130  0.0597  0.1355
27722SOL    HW188013   9.290   6.760   9.117 -0.9090 -0.9923 -1.3955
27722SOL    HW288014   9.391   6.871   9.102 -1.1994 -0.1565  2.1950
27723SOL     OW88015   9.534   6.898   9.202  0.4859  0.2686  0.3232
27723SOL    HW188016   9.589   6.823   9.177  1.6017  0.6898  1.4760
27723SOL    HW288017   9.590   6.974   9.187  0.1803  0.7059  1.3714
27724SOL     OW88018   6.764   7.516   5.951 -0.1752  0.1886  0.6410
27724SOL    HW188019   6.791   7.446   6.012  1.4407  0.2538  0.0351
27724SOL    HW288020   6.821   7.503   5.875 -1.7283  0.5199 -0.5872
27725SOL     OW88021   9.986   8.228   0.923  0.0041  0.0418 -0.6452
27725SOL    HW188022  10.048   8.190   0.861 -2.3219 -2.3904 -1.5729
27725SOL    HW288023   9.960   8.311   0.883  0.4699 -0.2844 -1.6509
27726SOL     OW88024   9.414   8.119   9.236 -0.8453  0.0673 -0.4648
27726SOL    HW188025   9.510   8.122   9.231 -0.8318 -0.6932 -0.6919
27726SOL    HW288026   9.385   8.125   9.145 -0.9939 -0.4106 -0.4468
27727SOL     OW88027   8.780   9.066   6.656  0.0149 -0.3458 -0.1852
27727SOL    HW188028   8.819   9.044   6.741  0.6074 -0.1524 -0.4076
27727SOL    HW288029   8.705   9.121   6.678  1.6587  1.8556  0.0970
27728SOL     OW88030   8.780   9.152   6.204  0.2081 -0.1944  0.1941
27728SOL    HW188031   8.738   9.106   6.131 -0.4237  0.3011  0.2361
27728SOL    HW288032   8.794   9.084   6.269  1.2475 -0.7371 -0.5942
27729SOL     OW88033   8.866   8.502   7.979 -0.0445  0.1051  0.6309
27729SOL    HW188034   8.849   8.544   7.895  1.4385  1.3939  0.9702
27729SOL    HW288035   8.860   8.572   8.043 -0.3403 -0.7202  1.5171
27730SOL     OW88036   8.306   9.618   6.257  0.3509  0.0726  0.0561
27730SOL    HW188037   8.363   9.576   6.193  0.8848 -0.1111  0.6524
27730SOL    HW288038   8.358   9.692   6.290  0.4357 -0.3966  0.9710
27731SOL     OW88039   0.395   9.685   8.564 -0.2309 -0.2100 -0.2303
27731SOL    HW188040   0.448   9.703   8.642 -1.5333  0.5056  0.5212
27731SOL    HW288041   0.443   9.616   8.518 -0.2965 -1.8903  2.0891
27732SOL     OW88042   7.151   0.236   0.470 -0.3139  0.0145  0.0101
27732SOL    HW188043   7.142   0.163   0.531 -1.0865  0.1776  0.0968
27732SOL    HW288044   7.184   0.308   0.523  0.9980 -0.4193 -0.1880
27733SOL     OW88045   6.859   9.026   8.348 -0.2280  0.0130 -0.6147
27733SOL    HW188046   6.792   9.092   8.366  1.3265  1.1306  1.2047
27733SOL    HW288047   6.852   9.010   8.254 -2.0564  1.1854 -0.7082
27734SOL     OW88048   7.469   8.094   8.190 -0.0421 -0.0344  0.2459
27734SOL    HW188049   7.374   8.077   8.193 -0.0714  0.0069 -0.3330
27734SOL    HW288050   7.500   8.073   8.278 -0.9223  1.9899  1.0701
27735SOL     OW88051   0.124   8.293   9.449  0.4733  0.1692 -0.3738
27735SOL    HW188052   0.124   8.317   9.357  1.6291 -1.0284 -0.7055
27735SOL    HW288053   0.177   8.213   9.453  0.1819  0.0353  1.2755
27736SOL     OW88054   9.284   8.476   6.593  0.5654 -0.2174  0.7970
27736SOL    HW188055   9.201   8.522   6.583  1.8881  1.7632 -1.9251
27736SOL    HW288056   9.343   8.540   6.633  1.1588 -1.1756  1.4950
27737SOL     OW88057   8.653   9.642   9.492  0.1404 -0.3831 -0.5737
27737SOL    HW188058   8.563   9.648   9.526  0.4378  1.7997 -0.0619
27737SOL    HW288059   8.642   9.616   9.401 -0.8515 -2.8598  0.2190
27738SOL     OW88060   7.818   6.859   0.270  0.0744 -0.0071 -0.0600
27738SOL    HW188061   7.814   6.820   0.182  0.9637 -2.8030  1.0900
27738SOL    HW288062   7.908   6.890   0.278  0.1551 -0.2696  0.0638
27739SOL     OW88063   8.386   8.291   7.320 -0.0440 -0.0228 -0.0386
27739SOL    HW188064   8.377   8.280   7.225 -2.0646 -0.0118  0.1389
27739SOL    HW288065   8.461   8.351   7.330 -0.3376  0.6437 -1.6473
27740SOL     OW88066   9.427   7.221   9.312 -0.3735 -0.1739 -0.4276
27740SOL    HW188067   9.434   7.222   9.217 -0.3980 -2.7452 -0.4876
27740SOL    HW288068   9.513   7.192   9.342 -0.1442  1.2684  0.4052
27741SOL     OW88069   7.129   8.717   0.348  0.2359 -0.2320 -0.4498
27741SOL    HW188070   7.128   8.795   0.293 -0.2623 -0.5217 -0.8498
27741SOL    HW288071   7.100   8.646   0.291 -0.8529 -0.4356  0.3281
27742SOL     OW88072   8.889   9.979   8.406  0.7163 -0.5209 -0.8972
27742SOL    HW188073   8.801   9.950   8.382 -0.1115  1.2150 -0.0728
27742SOL    HW288074   8.938   9.980   8.323 -0.8884  1.3100 -1.8787
27743SOL     OW88075   6.600   9.478   9.084 -0.0804  0.0719  0.1804
27743SOL    HW188076   6.538   9.413   9.050 -0.8587  1.9406 -2.1667
27743SOL    HW288077   6.545   9.538   9.135  0.1550  0.4973 -0.0653
27744SOL     OW88078   0.185   7.781   8.403  0.3006  0.0989 -0.1134
27744SOL    HW188079   0.251   7.849   8.392  1.0084 -0.5503  0.0818
27744SOL    HW288080   0.102   7.825   8.383  0.8081  0.8611 -0.5892
27745SOL     OW88081   8.889   9.044   6.915 -0.0707 -0.1296  0.4062
27745SOL    HW188082   8.919   8.979   6.979  0.9933  0.7920  0.8427
27745SOL    HW288083   8.969   9.085   6.882 -0.6524 -0.0492 -0.9564
27746SOL     OW88084   0.044   8.760   7.881  0.2476  0.2853 -0.7717
27746SOL    HW188085  -0.036   8.803   7.853 -0.2160  0.7467  1.1720
27746SOL    HW288086   0.048   8.679   7.830 -2.2729 -0.5040  0.2374
27747SOL     OW88087   8.269   9.220   6.862 -0.1171  0.1001 -0.2516
27747SOL    HW188088   8.322   9.162   6.808 -2.7830 -2.1448 -0.5226
27747SOL    HW288089   8.333   9.274   6.908  2.4018 -2.4592 -0.6267
27748SOL     OW88090   8.533   0.474   7.317 -0.2475 -0.3929  0.0685
27748SOL    HW188091   8.461   0.411   7.309 -1.2268  0.4411  1.9116
27748SOL    HW288092   8.590   0.436   7.383 -0.1554  0.0185  0.2235
27749SOL     OW88093   8.933   8.090   9.523 -0.5621  0.4715 -0.2525
27749SOL    HW188094   8.991   8.020   9.553  0.0492  0.8236 -0.5915
27749SOL    HW288095   8.872   8.047   9.463  1.0140  0.5452 -1.9642
27750SOL     OW88096   0.552   7.560   8.591 -0.2316  0.0595 -0.2087
27750SOL    HW188097   0.500   7.484   8.567  0.3521 -0.5354  0.4052
27750SOL    HW288098   0.499   7.606   8.656 -0.3586 -0.1000 -0.2026
27751SOL     OW88099   6.943   8.514   8.580  0.2932  0.5809 -0.7380
27751SOL    HW188100   6.917   8.601   8.552 -2.8002 -0.1155 -0.1459
27751SOL    HW288101   6.953   8.521   8.675  3.4445  1.0992 -1.0592
27752SOL     OW88102   7.597   8.967   9.859 -0.8339  0.2829 -0.0585
27752SOL    HW188103   7.629   8.975   9.949  0.1839  0.6979 -0.4514
27752SOL    HW288104   7.507   8.938   9.869 -0.7298  0.3085  1.1016
27753SOL     OW88105   9.160   9.023   9.858  0.1481 -0.2913  0.6244
27753SOL    HW188106   9.119   9.098   9.817 -0.7079 -0.1391  1.7421
27753SOL    HW288107   9.229   9.060   9.914  2.0509 -0.5591 -1.4595
27754SOL     OW88108   7.466   8.187   9.666  0.3732 -0.2192 -0.0372
27754SOL    HW188109   7.545   8.236   9.644 -0.0741  0.5796  0.1423
27754SOL    HW288110   7.482   8.099   9.630  0.3637  0.5679 -2.0182
27755SOL     OW88111   0.554   9.789   9.294  0.4036  0.3522  0.1801
27755SOL    HW188112   0.534   9.738   9.215  0.3307  1.8519 -0.7973
27755SOL    HW288113   0.598   9.728   9.352 -1.8844 -1.5030  0.0334
27756SOL     OW88114   7.384   9.542   8.024 -0.5734 -0.3159 -0.2461
27756SOL    HW188115   7.460   9.515   8.076 -0.9876 -0.9368  0.0531
27756SOL    HW288116   7.317   9.563   8.089 -1.1881 -1.3770 -0.5161
27757SOL     OW88117   0.881   7.947   9.218  0.2832  0.0227 -0.0197
27757SOL    HW188118   0.856   8.039   9.206  0.2677 -0.2342 -2.0925
27757SOL    HW288119   0.804   7.897   9.190  0.6539 -0.6477  0.1379
27758SOL     OW88120   8.044   8.861   0.637 -0.7448  0.1890 -0.0487
27758SOL    HW188121   8.008   8.772   0.643 -0.6189  0.1106 -0.4115
27758SOL    HW288122   8.132   8.848   0.600 -2.0042  0.7522 -3.3945
27759SOL     OW88123   7.660   8.504   8.336 -0.3166  0.1734  0.0227
27759SOL    HW188124   7.575   8.547   8.341 -0.4289  0.4852 -3.4540
27759SOL    HW288125   7.717   8.569   8.294  0.8802 -1.1053 -0.3635
27760SOL     OW88126   9.110   7.911   9.216 -0.7305  0.6779 -0.5866
27760SOL    HW188127   9.167   7.838   9.242 -1.2156  0.3406 -0.4591
27760SOL    HW288128   9.065   7.879   9.138 -0.5277  1.0554 -0.8564
27761SOL     OW88129   8.774   9.070   9.760 -0.3526  0.1170  0.6406
27761SOL    HW188130   8.791   9.139   9.824 -2.4611  2.6367 -1.3855
27761SOL    HW288131   8.837   9.085   9.690 -0.7172 -0.1176  0.2574
27762SOL     OW88132   6.948   8.750   9.820 -0.2608 -0.1361  0.5997
27762SOL    HW188133   6.940   8.692   9.895  0.1793 -0.6721  0.2294
27762SOL    HW288134   6.947   8.692   9.744 -0.2110  0.3668  0.2115
27763SOL     OW88135   9.546   8.619   9.449  0.3333 -0.3975  0.1230
27763SOL    HW188136   9.498   8.702   9.446  1.0801  0.0000 -0.9515
27763SOL    HW288137   9.521   8.580   9.533 -1.3749  0.1004 -0.1391
27764SOL     OW88138   6.993   8.201   1.853  0.1757  0.1550  0.0365
27764SOL    HW188139   7.027   8.218   1.765 -0.7602 -0.8867 -0.5441
27764SOL    HW288140   6.898   8.214   1.845  0.2817  1.9297  1.3667
27765SOL     OW88141   7.323   7.230   9.175 -0.2632 -0.1821  1.2404
27765SOL    HW188142   7.397   7.282   9.144 -0.1453 -0.4560  1.0550
27765SOL    HW288143   7.364   7.152   9.215 -0.4528 -0.3635  1.0802
27766SOL     OW88144   9.791   6.145   8.875 -0.3927  0.4806  0.0556
27766SOL    HW188145   9.792   6.239   8.855  1.5537  0.8165  1.6058
27766SOL    HW288146   9.882   6.117   8.864 -1.2830 -1.6626 -2.2381
27767SOL     OW88147   9.725   6.828   9.523  0.0323 -0.5829 -0.4825
27767SOL    HW188148   9.797   6.857   9.467  0.0474  0.0928 -0.1179
27767SOL    HW288149   9.767   6.782   9.595 -0.0670 -2.8745 -1.8430
27768SOL     OW88150   8.438   9.635   9.976  0.2091 -0.2695  0.2348
27768SOL    HW188151   8.355   9.620  10.022  0.3231 -1.1394  0.1735
27768SOL    HW288152   8.412   9.673   9.892 -0.0176  1.0443  0.8903
27769SOL     OW88153   7.855   0.140   9.979  0.4239  0.4764 -0.3716
27769SOL    HW188154   7.782   0.169   9.925  0.0266  1.6588  0.7780
27769SOL    HW288155   7.825   0.150  10.070  1.0769 -1.4706  0.0926
27770SOL     OW88156   9.374   7.541   0.752 -0.3675  0.1009  0.3621
27770SOL    HW188157   9.371   7.481   0.678  2.7269 -1.4398  1.4020
27770SOL    HW288158   9.429   7.613   0.723 -0.3611  0.2201  0.6629
27771SOL     OW88159   7.952   9.815   9.059  0.6636 -0.1290  0.1426
27771SOL    HW188160   7.923   9.901   9.089 -1.6155 -0.2654 -1.5671
27771SOL    HW288161   7.942   9.758   9.136 -1.6511  0.3007  0.2054
27772SOL     OW88162   8.408   8.057   9.857  0.0929  0.1335 -0.6415
27772SOL    HW188163   8.367   8.139   9.888  1.4059  0.3727  0.4916
27772SOL    HW288164   8.486   8.048   9.911  0.9538 -0.9041 -2.0516
27773SOL     OW88165   6.781   9.276   8.186  0.2367  0.2361  0.2168
27773SOL    HW188166   6.751   9.322   8.108  2.6450 -1.7852 -1.9741
27773SOL    HW288167   6.876   9.271   8.177  0.5857  0.0926  3.3540
27774SOL     OW88168   9.933   7.699   9.353  0.4104  0.2335 -0.4040
27774SOL    HW188169   9.963   7.708   9.444 -1.9437  0.8765  0.3351
27774SOL    HW288170   9.913   7.788   9.326 -2.8101 -0.3630 -0.1508
27775SOL     OW88171   8.194   9.056   9.468 -0.3107  0.2426 -0.2083
27775SOL    HW188172   8.205   9.119   9.540  0.4837 -0.4724  0.3094
27775SOL    HW288173   8.271   8.999   9.474 -1.6939 -1.6345  0.1922
27776SOL     OW88174   9.353   8.411   9.358 -0.6811 -0.5341  0.4490
27776SOL    HW188175   9.279   8.462   9.389 -2.0171 -1.3929 -1.2401
27776SOL    HW288176   9.430   8.457   9.391 -1.8866  1.8770 -0.0221
27777SOL     OW88177   8.719   7.456   0.093  0.1138  0.3458 -0.1641
27777SOL    HW188178   8.665   7.385   0.127  0.7084 -0.1156 -0.1723
27777SOL    HW288179   8.774   7.482   0.167 -0.8267  1.5023  0.1398
27778SOL     OW88180   1.290   8.853   0.209  0.1131 -0.2699  0.0281
27778SOL    HW188181   1.377   8.813   0.208 -0.8230 -2.4252  1.0149
27778SOL    HW288182   1.300   8.931   0.263  1.3320 -0.8131  0.6114
27779SOL     OW88183   7.874   6.158   9.797  0.4879 -0.2471  0.0589
27779SOL    HW188184   7.820   6.237   9.802 -0.3256 -0.7416 -0.7418
27779SOL    HW288185   7.929   6.162   9.875  1.2688  1.6963 -0.5472
27780SOL     OW88186   9.107   7.604   1.378  0.2296  0.5416 -0.0563
27780SOL    HW188187   9.015   7.622   1.396  0.1379  0.6140 -0.5844
27780SOL    HW288188   9.108   7.517   1.338  0.1324  1.4704 -2.1795
27781SOL     OW88189   6.998   5.944   9.693  0.3959  0.3740  0.2165
27781SOL    HW188190   7.006   6.011   9.760  1.7715  1.3180 -0.8718
27781SOL    HW288191   6.904   5.937   9.676  0.3242  3.3422 -0.9522
27782SOL     OW88192   8.820   9.256   1.188 -0.3730  0.3875  0.4640
27782SOL    HW188193   8.827   9.220   1.276 -1.1740 -0.2281  0.2878
27782SOL    HW288194   8.768   9.336   1.199  0.7964  1.1141  0.7555
27783SOL     OW88195   8.982   8.690   0.683  0.3625  0.4811 -0.4207
27783SOL    HW188196   8.941   8.658   0.603 -0.5930 -0.7629  0.5241
27783SOL    HW288197   8.985   8.613   0.740  0.4705  1.4787  0.9471
27784SOL     OW88198   8.506   7.609   1.359 -0.0788  0.1055  0.0472
27784SOL    HW188199   8.573   7.660   1.314 -0.2245 -0.7349 -1.1314
27784SOL    HW288200   8.477   7.544   1.295 -1.2646 -0.2267  0.8922
27785SOL     OW88201   7.981   9.051   0.290 -0.2158 -0.1528  0.0838
27785SOL    HW188202   8.020   8.964   0.296  0.7565  0.2396 -0.3875
27785SOL    HW288203   7.958   9.073   0.380  2.0750  0.2423  0.6131
27786SOL     OW88204   9.913   8.194   8.738 -0.5937 -0.2491 -0.1433
27786SOL    HW188205   9.895   8.114   8.690 -2.2042 -1.3634  2.2214
27786SOL    HW288206   9.920   8.262   8.671 -0.8680 -2.0735 -2.0402
27787SOL     OW88207   7.291   9.139   8.767  0.0365 -0.1707 -0.4354
27787SOL    HW188208   7.379   9.100   8.771  0.0651 -0.0927 -0.3125
27787SOL    HW288209   7.287   9.196   8.844 -0.3653 -0.6792 -0.0782
27788SOL     OW88210   7.670   8.778   0.106 -0.0266  0.0106 -0.1304
27788SOL    HW188211   7.654   8.709   0.170 -2.1202 -0.3691 -1.0111
27788SOL    HW288212   7.600   8.842   0.123  0.9988  1.1909 -0.3009
27789SOL     OW88213   9.895   7.916   0.205  0.2959  0.4668 -0.2269
27789SOL    HW188214   9.936   7.867   0.276  0.4548 -0.4895 -0.9641
27789SOL    HW288215   9.945   7.998   0.200  0.0828  0.6775  0.9615
27790SOL     OW88216   8.250   8.372   8.012 -0.8016 -0.1609 -0.1612
27790SOL    HW188217   8.266   8.317   8.089 -0.0341  0.7946  0.3881
27790SOL    HW288218   8.197   8.444   8.045  1.9614  1.8204  0.1703
27791SOL     OW88219   8.635   7.322   9.741 -0.5315  0.1225  1.1430
27791SOL    HW188220   8.656   7.274   9.821  0.9287  0.4130  0.9639
27791SOL    HW288221   8.704   7.297   9.679 -0.0522  2.0006  0.8740
27792SOL     OW88222   9.374   7.485   9.422 -1.2629 -0.4443 -0.3104
27792SOL    HW188223   9.461   7.502   9.387 -0.4052  1.0889  2.4345
27792SOL    HW288224   9.359   7.392   9.404  0.2396 -0.3597 -2.2298
27793SOL     OW88225   8.853   8.772   9.518 -0.1895 -0.4063  0.2682
27793SOL    HW188226   8.840   8.839   9.451  2.3581 -1.5541 -1.4631
27793SOL    HW288227   8.817   8.692   9.479  3.4056 -1.6056 -0.8371
27794SOL     OW88228   0.230   9.217   7.806  0.4639 -0.2414 -0.0175
27794SOL    HW188229   0.308   9.236   7.858 -0.6352  1.4310  1.0518
27794SOL    HW288230   0.159   9.209   7.870 -0.2779 -1.6777 -0.9759
27795SOL     OW88231   7.901   9.496   9.805  0.0856  0.9438 -0.4877
27795SOL    HW188232   7.852   9.436   9.861 -0.5942  2.2944  0.3908
27795SOL    HW288233   7.904   9.453   9.720 -1.9556  0.4872 -0.3430
27796SOL     OW88234   7.554   8.588   9.922 -0.7076  0.0173  0.3241
27796SOL    HW188235   7.514   8.675   9.930 -0.8785 -0.0378  0.0936
27796SOL    HW288236   7.648   8.605   9.917 -0.7618  0.2156 -0.0725
27797SOL     OW88237   7.565   7.191   9.580  0.3351 -0.2737  0.0677
27797SOL    HW188238   7.615   7.143   9.646 -0.9909 -0.3905  0.9812
27797SOL    HW288239   7.474   7.176   9.602 -0.1164  0.4674 -1.2338
27798SOL     OW88240   9.237   5.669   8.567 -0.4071  0.4387 -0.6183
27798SOL    HW188241   9.298   5.667   8.493  0.3573 -0.4781  0.0168
27798SOL    HW288242   9.259   5.750   8.613  1.0667 -0.3890  0.1897
27799SOL     OW88243   9.185   7.243   0.355 -0.2597 -0.5862  0.3169
27799SOL    HW188244   9.205   7.296   0.433  0.1654 -0.1501 -0.0858
27799SOL    HW288245   9.096   7.270   0.330 -1.0217 -1.8648  1.5675
27800SOL     OW88246   7.906   8.857   8.759  0.1810  0.4055  0.3494
27800SOL    HW188247   7.870   8.864   8.671  0.4972 -0.3080  0.1581
27800SOL    HW288248   7.937   8.945   8.780  1.7384  0.1727 -0.9529
27801SOL     OW88249   8.097   0.345   9.255  0.5718 -0.8490  0.1355
27801SOL    HW188250   8.156   0.328   9.329  0.0323 -0.9731  0.5346
27801SOL    HW288251   8.027   0.399   9.291 -0.4711 -2.1245  0.0520
27802SOL     OW88252   8.353   7.968   0.231 -0.3866 -0.1191 -0.1699
27802SOL    HW188253   8.368   7.874   0.236  3.2685  0.4409  0.7111
27802SOL    HW288254   8.434   8.004   0.195 -1.5202  2.7493 -0.0288
27803SOL     OW88255   7.951   9.550   8.803 -0.2692 -0.1987  0.1598
27803SOL    HW188256   7.968   9.615   8.735  2.4371  1.7384  2.5473
27803SOL    HW288257   7.866   9.575   8.840  0.8587  2.2733  1.2332
27804SOL     OW88258   9.248   8.659   0.153  0.3218 -0.2871  0.1245
27804SOL    HW188259   9.319   8.673   0.216  0.1123  0.4116  0.2051
27804SOL    HW288260   9.169   8.684   0.201  0.1969  0.5475 -0.5287
27805SOL     OW88261   7.187   8.427   0.971  0.2525 -0.5059  0.3099
27805SOL    HW188262   7.113   8.488   0.973  1.7385  1.3918 -1.0766
27805SOL    HW288263   7.195   8.402   0.879  1.5270 -0.4653  0.4015
27806SOL     OW88264   8.623   7.860   9.011  0.2462  0.0736  0.3956
27806SOL    HW188265   8.622   7.871   9.106  0.8052  0.5798  0.3456
27806SOL    HW288266   8.647   7.768   8.998  0.5970  0.1185  0.7327
27807SOL     OW88267   7.157   7.231   0.369  0.1780  0.1037 -0.4041
27807SOL    HW188268   7.202   7.314   0.348 -0.5665  0.9217  1.1542
27807SOL    HW288269   7.221   7.182   0.420  0.0429  0.3847  0.0308
27808SOL     OW88270   8.618   8.583   9.825 -0.4229 -0.2315 -0.0397
27808SOL    HW188271   8.637   8.673   9.796  2.1028 -0.6438  0.1940
27808SOL    HW288272   8.675   8.571   9.901 -0.8506 -1.9901  0.0116
27809SOL     OW88273   8.842   8.066   9.070 -0.7922 -0.3037 -0.0329
27809SOL    HW188274   8.800   8.042   9.153 -1.8426  0.4155 -0.3337
27809SOL    HW288275   8.898   7.992   9.049  0.1387 -0.1369  1.7392
27810SOL     OW88276   7.442   9.441   9.292  0.3086 -0.3128  0.0311
27810SOL    HW188277   7.418   9.438   9.385  0.5853 -0.2031  0.1072
27810SOL    HW288278   7.359   9.455   9.247 -0.0786 -2.1705  0.1285
27811SOL     OW88279   8.209   9.316   9.628  0.1618  0.1920  0.5085
27811SOL    HW188280   8.232   9.393   9.680  0.8634 -0.0938  0.6290
27811SOL    HW288281   8.218   9.243   9.689 -0.3574 -0.0017  0.3559
27812SOL     OW88282   9.157   7.448   0.525 -0.0351  0.1468 -0.0308
27812SOL    HW188283   9.214   7.515   0.489 -0.1207 -0.4003 -1.2264
27812SOL    HW288284   9.070   7.470   0.492 -0.1700 -0.1906  0.0989
27813SOL     OW88285   7.567   7.968   8.710 -0.2830 -0.2944  0.6636
27813SOL    HW188286   7.602   8.056   8.723 -1.0852  0.0731  0.2873
27813SOL    HW288287   7.616   7.914   8.773  0.3985  0.3640  0.7030
27814SOL     OW88288   7.723   8.481   0.621  0.2186 -0.2362  0.2482
27814SOL    HW188289   7.640   8.434   0.612  0.0815  0.2759 -1.4127
27814SOL    HW288290   7.741   8.480   0.715 -0.3325 -2.6346  0.3617
27815SOL     OW88291   8.339   8.676   0.135 -0.0204  0.3360  0.3429
27815SOL    HW188292   8.417   8.687   0.190  0.0558 -1.3720  0.6039
27815SOL    HW288293   8.282   8.617   0.185  0.2540 -1.6315 -1.5946
27816SOL     OW88294   9.310   8.662   9.879 -0.0167 -0.5293 -0.5685
27816SOL    HW188295   9.347   8.740   9.837 -1.0213  0.0256 -0.4216
27816SOL    HW288296   9.304   8.685   9.972  1.1915 -1.3674 -0.2699
27817SOL     OW88297   7.239   7.895   9.137  0.1943  0.1183 -0.3189
27817SOL    HW188298   7.144   7.893   9.142  0.0941  0.3663 -1.7581
27817SOL    HW288299   7.258   7.974   9.086  1.2527  1.1188  1.5749
27818SOL     OW88300   9.935   7.805   9.885 -0.2253  0.1747 -0.2933
27818SOL    HW188301   9.962   7.723   9.926  0.0623 -0.5985 -2.0106
27818SOL    HW288302  10.008   7.864   9.900  0.9485 -0.8518 -1.8181
27819SOL     OW88303   7.914   8.096   1.923 -0.3633  0.2803 -0.2015
27819SOL    HW188304   7.853   8.092   1.850 -0.0882  0.8183 -0.4679
27819SOL    HW288305   7.959   8.011   1.921  0.5018  0.7381 -1.4228
27820SOL     OW88306   6.903   6.426   1.121 -0.1059  0.7225  0.5988
27820SOL    HW188307   6.852   6.484   1.064 -0.0879  1.3128  1.1782
27820SOL    HW288308   6.993   6.459   1.113  0.0114  0.3626  0.4219
27821SOL     OW88309   0.727   1.514   0.619  0.5619  0.2833  0.2798
27821SOL    HW188310   0.682   1.535   0.701 -0.0057  0.9802 -0.2005
27821SOL    HW288311   0.657   1.513   0.553  0.8054 -1.6110  0.0184
27822SOL     OW88312   6.869   1.137   1.716 -1.2756  0.1511 -0.5703
27822SOL    HW188313   6.801   1.106   1.775 -0.9438 -1.9260 -1.2295
27822SOL    HW288314   6.951   1.122   1.762 -1.0792 -0.4198 -1.0982
27823SOL     OW88315   9.173   9.449   0.163 -0.3035 -0.6894  0.0103
27823SOL    HW188316   9.268   9.445   0.155 -0.3243 -1.5653  0.1536
27823SOL    HW288317   9.141   9.377   0.109 -0.8657 -0.6558  0.2954
27824SOL     OW88318   9.916   8.524   1.373  0.2459  0.0092 -0.0912
27824SOL    HW188319   9.896   8.490   1.286 -0.0122 -0.5167  0.1745
27824SOL    HW288320   9.990   8.583   1.359 -1.4375  1.9637 -1.1071
27825SOL     OW88321   7.503   0.150   2.926  0.2013  0.2167 -0.5016
27825SOL    HW188322   7.586   0.128   2.967  1.2438  2.7455 -1.1559
27825SOL    HW288323   7.488   0.079   2.863  1.9512 -0.1644 -0.5048
27826SOL     OW88324   8.654   8.890   1.714 -0.4189 -0.5718  0.2305
27826SOL    HW188325   8.655   8.965   1.774  0.0695 -0.7043  0.3857
27826SOL    HW288326   8.743   8.855   1.717  0.0726  0.4489 -1.8627
27827SOL     OW88327   8.569   8.704   0.765 -0.4717  0.1794 -0.4970
27827SOL    HW188328   8.571   8.764   0.691  1.3788  0.1937 -0.4601
27827SOL    HW288329   8.622   8.747   0.832 -0.0069 -1.0177 -0.0884
27828SOL     OW88330   9.362   0.796   2.898  0.1302  0.3972 -0.2594
27828SOL    HW188331   9.390   0.863   2.835  1.8806  0.3157  0.3856
27828SOL    HW288332   9.363   0.841   2.983  0.0632 -0.0982  0.0066
27829SOL     OW88333   0.344   9.978   0.380 -0.4794 -0.3371  0.0523
27829SOL    HW188334   0.367   9.981   0.473 -0.8439  2.5129  0.0937
27829SOL    HW288335   0.419   9.937   0.338  0.1304 -0.7133  1.4601
27830SOL     OW88336   8.535   9.692   0.484  0.1710 -0.4092 -0.7137
27830SOL    HW188337   8.613   9.653   0.522  1.1442  1.9222 -0.1971
27830SOL    HW288338   8.499   9.747   0.554  0.9985  2.5680 -2.5370
27831SOL     OW88339   9.332   6.625   9.244  0.6584 -0.2892 -0.0720
27831SOL    HW188340   9.324   6.549   9.301  0.0607 -0.7789 -0.8011
27831SOL    HW288341   9.389   6.685   9.292  0.0273 -0.6229  1.1069
27832SOL     OW88342   9.057   0.112   1.992  0.0141  0.1519 -0.2109
27832SOL    HW188343   9.103   0.135   2.072  1.5620 -0.4563 -0.9178
27832SOL    HW288344   9.062   0.191   1.938  1.8908 -0.5227 -1.0467
27833SOL     OW88345   7.335   0.606   9.901 -0.3922 -0.1923  0.4187
27833SOL    HW188346   7.300   0.547   9.967 -0.3265  0.5050  1.0779
27833SOL    HW288347   7.385   0.671   9.950  0.2588 -0.0843 -0.3684
27834SOL     OW88348   0.304   9.124   8.657  0.5116 -0.5812 -0.2015
27834SOL    HW188349   0.235   9.082   8.708 -1.2169  0.2250 -1.8482
27834SOL    HW288350   0.333   9.055   8.596 -0.0141 -0.4140 -0.6452
27835SOL     OW88351   9.664   8.028   0.936  0.4371  0.5531 -0.0990
27835SOL    HW188352   9.617   8.111   0.942  0.3537  0.5258 -0.3513
27835SOL    HW288353   9.754   8.052   0.914  0.7847  0.6608  1.4190
27836SOL     OW88354   8.460   9.215   1.349 -0.2835  0.0733  0.1119
27836SOL    HW188355   8.416   9.154   1.409  0.8042 -0.8618 -0.0083
27836SOL    HW288356   8.397   9.230   1.279 -0.8302 -0.3794  0.5044
27837SOL     OW88357   7.301   1.054   8.902 -0.3909 -0.0269  0.1012
27837SOL    HW188358   7.239   0.992   8.865  1.0528 -2.0072  0.8777
27837SOL    HW288359   7.348   1.004   8.969  0.9819  1.8451  0.5930
27838SOL     OW88360   7.711   8.444   1.576  0.2141  0.0680 -0.1904
27838SOL    HW188361   7.654   8.465   1.502 -1.3394 -0.9847  0.6897
27838SOL    HW288362   7.696   8.352   1.593  1.7607 -0.0917  0.4453
27839SOL     OW88363   8.506   9.452   1.032  0.7009  0.4797  0.7985
27839SOL    HW188364   8.582   9.499   1.066  1.2976  0.1674 -0.0948
27839SOL    HW288365   8.453   9.521   0.990  1.0795  0.5097  0.3693
27840SOL     OW88366   9.532   9.632   9.631  0.3941  0.1783 -0.4946
27840SOL    HW188367   9.593   9.688   9.678 -1.2595  1.3463  0.3060
27840SOL    HW288368   9.550   9.544   9.664  2.0724  0.4014 -0.7606
27841SOL     OW88369   7.652   8.769   0.731 -0.2305  0.1432  0.5913
27841SOL    HW188370   7.670   8.806   0.644  0.0314  0.7206  0.8895
27841SOL    HW288371   7.566   8.729   0.723 -0.6372  1.0721  0.3507
27842SOL     OW88372   8.470   0.008   1.228  0.5685  0.0430 -0.0967
27842SOL    HW188373   8.466   0.104   1.233  1.2226  0.0593  0.1183
27842SOL    HW288374   8.460  -0.011   1.134  1.0821  0.3538 -0.2184
27843SOL     OW88375   7.569   9.136   0.615 -0.3908 -0.8752 -0.0878
27843SOL    HW188376   7.624   9.178   0.680  0.1674 -0.5892 -0.7338
27843SOL    HW288377   7.631   9.096   0.554 -0.8735  0.5324 -1.5300
27844SOL     OW88378   9.747   0.574   0.696 -0.0558 -0.0724  0.7952
27844SOL    HW188379   9.822   0.514   0.701 -0.7710 -0.9872  0.5711
27844SOL    HW288380   9.773   0.648   0.750  0.4870 -0.9730  1.7976
27845SOL     OW88381   8.941   1.816   0.484 -0.2713 -0.4998  0.1873
27845SOL    HW188382   8.846   1.821   0.467 -0.2490 -0.5859  0.0417
27845SOL    HW288383   8.976   1.772   0.408 -0.1031 -0.4094  0.2129
27846SOL     OW88384   7.555   8.530   0.954  0.0324  0.4151  0.4261
27846SOL    HW188385   7.512   8.578   0.883  1.7742  0.7444 -0.4208
27846SOL    HW288386   7.643   8.513   0.922  0.8870  0.6578  2.5676
27847SOL     OW88387   9.086   9.178   1.873 -0.4049  0.3227 -0.2177
27847SOL    HW188388   9.068   9.157   1.782  2.8686  1.3697 -1.2068
27847SOL    HW288389   9.136   9.103   1.906 -0.7554  0.3648  0.4104
27848SOL     OW88390   8.541   9.145   0.040  0.2654  0.3422 -0.4947
27848SOL    HW188391   8.571   9.054   0.037 -0.1385  0.2529 -1.8728
27848SOL    HW288392   8.482   9.149   0.116  1.0183 -0.3132  0.1268
27849SOL     OW88393   8.374   0.858   2.708  0.1881  0.1779 -0.7043
27849SOL    HW188394   8.401   0.865   2.800  0.8070  1.2376 -0.9532
27849SOL    HW288395   8.445   0.809   2.667 -0.3895 -0.8408 -0.4985
27850SOL     OW88396   8.008   9.764   1.532  0.5205  0.2070 -0.0744
27850SOL    HW188397   7.976   9.754   1.443  0.6894  0.3592 -0.1501
27850SOL    HW288398   7.928   9.778   1.584  0.5449  1.6359 -0.4075
27851SOL     OW88399   8.140   9.003   2.929  0.3035  0.3449 -0.5364
27851SOL    HW188400   8.223   9.051   2.925  0.8856 -0.6322 -0.4245
27851SOL    HW288401   8.083   9.048   2.866  0.4036  1.9787  0.5097
27852SOL     OW88402   8.182   0.660   1.033  0.3445  0.1002 -0.5241
27852SOL    HW188403   8.103   0.664   1.087  0.1398 -0.8113 -0.7396
27852SOL    HW288404   8.246   0.613   1.087  0.4469  0.0306 -0.7045
27853SOL     OW88405   8.626   9.877   9.896 -0.4585  0.2178 -0.0633
27853SOL    HW188406   8.596   9.915   9.979 -2.0338 -0.3239 -0.3707
27853SOL    HW288407   8.546   9.854   9.850  0.4363 -2.5410 -0.3173
27854SOL     OW88408   8.404   0.214   9.739  0.1900 -0.2917  0.2789
27854SOL    HW188409   8.414   0.169   9.823  2.1915 -1.0527 -0.3328
27854SOL    HW288410   8.385   0.143   9.677  0.8687  0.0034 -0.2686
27855SOL     OW88411   8.055   9.230   1.245  0.2951  0.0168  0.3240
27855SOL    HW188412   8.003   9.302   1.280 -1.3826 -1.3226  0.5919
27855SOL    HW288413   8.108   9.271   1.176 -2.0884  1.1367 -0.8881
27856SOL     OW88414   9.178   0.003   9.617 -0.4315 -0.0892 -0.1495
27856SOL    HW188415   9.111   0.016   9.550 -1.4956  2.3028  1.3171
27856SOL    HW288416   9.243  -0.052   9.575 -0.1638  2.7948 -3.8070
27857SOL     OW88417   0.250   0.041   9.557 -0.6178  0.1021 -0.5381
27857SOL    HW188418   0.233   0.131   9.584 -0.4436  0.0551 -0.2683
27857SOL    HW288419   0.268  -0.005   9.639 -1.0754 -0.2569 -0.6369
27858SOL     OW88420   7.777   9.860   1.669  0.2153 -0.3050 -0.0532
27858SOL    HW188421   7.708   9.832   1.609  0.4030  0.4576 -0.6287
27858SOL    HW288422   7.731   9.916   1.733  0.1598 -0.4493  0.0342
27859SOL     OW88423   7.426   0.688   1.068 -0.2457 -0.0431 -0.3969
27859SOL    HW188424   7.450   0.628   1.139  2.2951  1.0983 -0.2081
27859SOL    HW288425   7.510   0.716   1.032 -1.4683  1.0831 -2.4339
27860SOL     OW88426   9.537   8.875   9.803  0.1139 -0.0814  0.6680
27860SOL    HW188427   9.588   8.857   9.882  3.9266 -0.5603 -1.7676
27860SOL    HW288428   9.522   8.969   9.805  2.0768  0.2502  0.9331
27861SOL     OW88429   8.766   9.285   9.970 -0.0768  0.3718 -0.1477
27861SOL    HW188430   8.682   9.242   9.984 -0.3506  1.2578  0.9425
27861SOL    HW288431   8.744   9.368   9.928  0.2063  0.8911  0.7304
27862SOL     OW88432   8.007   0.716   1.236 -0.1961 -0.0348  0.6305
27862SOL    HW188433   8.044   0.645   1.289  1.3956  0.7875  0.6700
27862SOL    HW288434   7.981   0.782   1.301  1.7233  0.9584  0.4194
27863SOL     OW88435   8.408   0.281   2.521  0.0572  0.2350  0.3805
27863SOL    HW188436   8.492   0.288   2.565 -0.4003  0.5094  1.2173
27863SOL    HW288437   8.418   0.208   2.461  0.4266 -0.6529  1.5153
27864SOL     OW88438   9.537   9.977   1.713 -0.1310  0.1762 -0.2372
27864SOL    HW188439   9.476   9.968   1.640 -0.5628  1.0735  0.0130
27864SOL    HW288440   9.563  10.069   1.713 -0.0403  0.1597  0.6673
27865SOL     OW88441   7.149   1.484   1.190  0.2508 -0.6002  0.5444
27865SOL    HW188442   7.153   1.459   1.098 -1.3867 -0.3706  0.3862
27865SOL    HW288443   7.239   1.508   1.213 -0.1394  4.3014 -2.3743
27866SOL     OW88444   8.612   0.427   8.719 -0.4268 -0.2528 -0.2412
27866SOL    HW188445   8.576   0.498   8.772 -1.4795 -1.4883  0.7411
27866SOL    HW288446   8.651   0.470   8.643  1.3838  1.5932  1.6660
27867SOL     OW88447   9.001   8.009   1.016  0.1983 -0.3642  0.1067
27867SOL    HW188448   9.054   7.929   1.021  1.0732 -0.0229 -2.8976
27867SOL    HW288449   9.054   8.070   0.965 -3.0614 -0.0632 -3.1040
27868SOL     OW88450   8.205   9.893   1.362 -0.4480  0.4389  0.2777
27868SOL    HW188451   8.197   9.798   1.351 -0.6738  0.4898 -0.0024
27868SOL    HW288452   8.286   9.915   1.316 -0.3560  0.3725  0.4074
27869SOL     OW88453   5.936   9.114   1.148 -0.0815  0.3842  0.1333
27869SOL    HW188454   6.016   9.081   1.188  0.0108 -1.2992 -1.3780
27869SOL    HW288455   5.961   9.198   1.108  0.9093 -0.0998 -0.2670
27870SOL     OW88456   9.536   8.934   1.293 -0.3759 -0.0903 -0.1876
27870SOL    HW188457   9.604   8.867   1.291 -0.1493  0.1371 -0.0013
27870SOL    HW288458   9.538   8.973   1.205 -0.7810 -0.6064 -0.4262
27871SOL     OW88459   9.720   9.342   2.203 -0.6332  0.5169 -0.3481
27871SOL    HW188460   9.682   9.270   2.254 -1.7945  1.1544 -0.3114
27871SOL    HW288461   9.809   9.312   2.184 -0.4415 -0.0955  1.3522
27872SOL     OW88462   7.942   9.225   1.607 -0.1841 -0.1576  0.2357
27872SOL    HW188463   7.957   9.255   1.517 -0.9986  1.9910  0.7858
27872SOL    HW288464   7.848   9.213   1.613 -0.3627  1.6164  1.3521
27873SOL     OW88465   8.213   9.601   0.118 -0.6106  0.1834  0.1046
27873SOL    HW188466   8.168   9.520   0.142  0.5914 -0.3956  0.4290
27873SOL    HW288467   8.194   9.661   0.190 -0.6766 -0.1172  0.3373
27874SOL     OW88468   7.238   9.706   0.823 -0.8689  0.0284 -0.2532
27874SOL    HW188469   7.200   9.619   0.810  0.2011 -0.3783 -0.7257
27874SOL    HW288470   7.328   9.698   0.793  0.1138  0.5276  2.4051
27875SOL     OW88471   7.694   9.160   0.863 -0.3463 -0.8357 -0.4013
27875SOL    HW188472   7.645   9.221   0.918  0.8672  1.4615 -1.7851
27875SOL    HW288473   7.703   9.081   0.916 -0.1725  0.9228  2.2721
27876SOL     OW88474   7.703   8.712   9.321  0.6209  0.4713  0.2308
27876SOL    HW188475   7.791   8.718   9.286  1.3244  1.8724  2.1535
27876SOL    HW288476   7.661   8.794   9.297  0.5132  0.6698  1.0760
27877SOL     OW88477   0.161   8.774   2.476  0.4452  0.6186 -0.6961
27877SOL    HW188478   0.082   8.815   2.510  0.5594  0.6369 -0.4528
27877SOL    HW288479   0.159   8.685   2.510 -0.4918  0.0008 -2.3277
27878SOL     OW88480   8.379   0.477   9.780  0.1720 -0.1992  0.2022
27878SOL    HW188481   8.388   0.501   9.872  0.6577  1.0432 -0.1680
27878SOL    HW288482   8.409   0.385   9.777 -0.2956 -0.3988  1.3532
27879SOL     OW88483   0.022   9.154   1.874  0.1904  0.2468 -0.4532
27879SOL    HW188484  -0.005   9.193   1.791 -0.3693  0.5233 -0.1443
27879SOL    HW288485   0.117   9.166   1.877  0.1875  0.4035 -0.9653
27880SOL     OW88486   8.502   0.545   0.971 -0.0350 -0.1180  0.5465
27880SOL    HW188487   8.463   0.517   1.054 -0.0538 -0.6113  0.3728
27880SOL    HW288488   8.456   0.495   0.904  0.9319 -0.7691  0.3459
27881SOL     OW88489   8.678   8.878   1.298  0.1968 -0.5483 -0.4870
27881SOL    HW188490   8.641   8.943   1.238 -0.8614  1.7556  2.5113
27881SOL    HW288491   8.602   8.834   1.335  0.6285  0.3274  1.5311
27882SOL     OW88492   8.858   8.397   9.685  0.1692 -0.5857 -0.1830
27882SOL    HW188493   8.825   8.329   9.744  0.0817  0.3092  0.8263
27882SOL    HW288494   8.926   8.441   9.736  0.2184  0.0786 -0.8236
27883SOL     OW88495   9.556   8.060   1.629 -0.2795 -0.3805 -0.3832
27883SOL    HW188496   9.530   8.116   1.702 -0.5601  0.2536 -0.9673
27883SOL    HW288497   9.513   8.098   1.553  1.5411  0.0887 -1.2015
27884SOL     OW88498   9.585   0.717   8.173 -0.0136  0.2294  0.5727
27884SOL    HW188499   9.599   0.629   8.208  1.9152 -0.2185 -1.2617
27884SOL    HW288500   9.663   0.766   8.197 -0.5951  1.1467  0.6381
27885SOL     OW88501   7.439   1.725   1.413 -0.2640  0.0830  0.4136
27885SOL    HW188502   7.350   1.758   1.402 -0.6036 -1.5633 -2.0865
27885SOL    HW288503   7.435   1.633   1.386  1.2900 -1.3063  4.3957
27886SOL     OW88504   9.011   0.215   2.779  0.4529  0.1606 -0.2582
27886SOL    HW188505   8.940   0.261   2.825  0.9073 -0.5804  1.2047
27886SOL    HW288506   9.030   0.139   2.834  1.6783 -0.2056 -1.1753
27887SOL     OW88507   7.802   9.964   3.008  0.4839  0.1358 -0.0881
27887SOL    HW188508   7.808  10.006   2.923  1.7702 -1.0104 -0.5865
27887SOL    HW288509   7.772   9.875   2.990  2.1433 -0.5646  0.4863
27888SOL     OW88510   8.421   8.444   4.803 -0.3089  0.4304 -0.3426
27888SOL    HW188511   8.411   8.391   4.725 -0.5806  1.1080 -0.7753
27888SOL    HW288512   8.474   8.391   4.862  1.9432  0.8600 -1.9168
27889SOL     OW88513   9.125   8.951   2.740  0.4415 -0.0611 -0.4598
27889SOL    HW188514   9.149   8.869   2.782 -0.0599 -1.1385 -2.2320
27889SOL    HW288515   9.197   9.011   2.760  0.5734 -0.7753  1.2432
27890SOL     OW88516   8.816   8.071   3.488  0.4594 -0.7375  0.0381
27890SOL    HW188517   8.899   8.118   3.476  0.1582 -0.1207  0.3373
27890SOL    HW288518   8.791   8.045   3.400  0.7518 -0.5397 -0.1055
27891SOL     OW88519   7.529   9.893   2.850 -0.4095 -0.5009  0.4336
27891SOL    HW188520   7.613   9.855   2.876 -0.4702 -0.5411  0.5755
27891SOL    HW288521   7.521   9.873   2.757  0.5736  1.0614 -0.0078
27892SOL     OW88522   8.487   9.460   2.810 -0.2619 -1.0707  0.5652
27892SOL    HW188523   8.512   9.498   2.726  0.8560 -2.5763  0.2116
27892SOL    HW288524   8.392   9.470   2.813 -0.2110 -0.1728 -0.4598
27893SOL     OW88525   9.593   9.976   2.922  0.3134  0.6510 -0.3866
27893SOL    HW188526   9.653  10.012   2.856 -0.5502  1.5282 -0.7060
27893SOL    HW288527   9.638   9.991   3.005  0.3068  1.8263 -0.5786
27894SOL     OW88528   8.637   8.568   3.688  0.4254  0.0187  0.3782
27894SOL    HW188529   8.665   8.522   3.609 -0.5561  0.4817 -0.2428
27894SOL    HW288530   8.657   8.507   3.759  2.0017 -0.1091 -0.1394
27895SOL     OW88531   8.831   8.971   3.583  0.5868  0.2626  0.3758
27895SOL    HW188532   8.903   9.030   3.602 -1.9452  2.9435  2.0312
27895SOL    HW288533   8.847   8.894   3.638  2.9381  0.1550 -0.4275
27896SOL     OW88534   9.200   0.627   0.724  0.1740 -0.5829  0.1699
27896SOL    HW188535   9.158   0.618   0.638 -0.3658  0.3633  0.3248
27896SOL    HW288536   9.244   0.544   0.738 -0.3876 -1.0300 -0.6833
27897SOL     OW88537   7.365   9.467   0.179  0.2414  0.2901 -0.2095
27897SOL    HW188538   7.292   9.431   0.129 -0.0433  1.6520 -0.8008
27897SOL    HW288539   7.437   9.405   0.165 -0.2624 -0.0979 -1.1389
27898SOL     OW88540   7.970   8.677   4.055  0.3711 -0.6087 -0.1787
27898SOL    HW188541   8.045   8.630   4.019  0.6170  1.3256 -2.2599
27898SOL    HW288542   8.006   8.728   4.128  0.8249 -0.6722 -0.3618
27899SOL     OW88543   7.507   1.028   1.830 -0.6796  0.0260 -0.0381
27899SOL    HW188544   7.517   1.123   1.835 -2.0369  0.1255  1.1418
27899SOL    HW288545   7.481   1.002   1.919 -2.3035 -1.1817 -0.8398
27900SOL     OW88546   6.747   1.050   3.308  0.0086  0.0929 -0.3165
27900SOL    HW188547   6.819   1.000   3.346  0.1681  1.1986  0.8905
27900SOL    HW288548   6.693   0.985   3.262  0.5599 -1.0662  0.6610
27901SOL     OW88549   9.281   9.960   0.661  0.1409 -0.0459 -0.1444
27901SOL    HW188550   9.197   9.999   0.686  0.6408  1.0044 -0.0860
27901SOL    HW288551   9.269   9.866   0.676 -0.4158  0.2814  1.5928
27902SOL     OW88552   9.662   0.271   4.584 -0.4212  0.1419 -0.1801
27902SOL    HW188553   9.755   0.248   4.576 -0.8804 -1.8371 -0.0715
27902SOL    HW288554   9.633   0.283   4.493 -0.8490 -2.6232 -0.4555
27903SOL     OW88555   7.995   0.614   1.800  0.4407  0.1297  0.1458
27903SOL    HW188556   7.994   0.601   1.705 -2.9031 -2.0848  0.4130
27903SOL    HW288557   8.027   0.531   1.836  1.7592  0.9779  0.9753
27904SOL     OW88558   8.335   9.803   3.359  0.0803 -0.0691  0.2832
27904SOL    HW188559   8.367   9.891   3.378  1.0670 -0.4222  0.3091
27904SOL    HW288560   8.332   9.798   3.263  0.9724 -0.3314  0.2645
27905SOL     OW88561   8.965   8.407   4.205  0.5500 -0.4806 -0.1549
27905SOL    HW188562   8.963   8.312   4.195 -0.9950 -0.5851  0.9431
27905SOL    HW288563   9.057   8.428   4.222  1.0406 -1.6670 -1.2698
27906SOL     OW88564   7.998   8.187   1.296  0.2743 -0.0394  0.8310
27906SOL    HW188565   8.082   8.178   1.340  0.2890  1.3933  1.1277
27906SOL    HW288566   7.974   8.098   1.271  2.0714 -0.4199  0.3737
27907SOL     OW88567   9.130   9.445   1.938  0.4570 -0.0899 -0.4730
27907SOL    HW188568   9.122   9.470   1.846  3.9585  0.5050 -0.7020
27907SOL    HW288569   9.115   9.351   1.939 -0.4980  0.0372 -1.4989
27908SOL     OW88570   8.640   7.751   2.231  0.7553 -0.0647  0.4509
27908SOL    HW188571   8.723   7.750   2.184  0.6872 -1.3886  0.3425
27908SOL    HW288572   8.650   7.821   2.296  0.7730  1.9357 -1.6388
27909SOL     OW88573   9.308   8.829   1.378  0.4779  0.1875 -0.3838
27909SOL    HW188574   9.339   8.819   1.468  0.4946 -2.1681 -0.6233
27909SOL    HW288575   9.373   8.886   1.337  1.0198  0.4647  0.8258
27910SOL     OW88576   8.580   0.237   4.452  0.3776 -0.8471  0.0363
27910SOL    HW188577   8.595   0.193   4.536  0.8170  0.1618  0.4868
27910SOL    HW288578   8.560   0.327   4.475 -0.1935 -0.7248 -0.9099
27911SOL     OW88579   9.421   1.391   2.364 -0.0588  0.3560  0.1301
27911SOL    HW188580   9.407   1.433   2.449 -0.2208 -0.6417  0.6008
27911SOL    HW288581   9.338   1.349   2.344  0.1217  0.2074 -0.3247
27912SOL     OW88582   8.157   1.356   2.487  0.0399  0.7881 -0.5438
27912SOL    HW188583   8.074   1.357   2.535  0.2412 -0.2492 -0.1762
27912SOL    HW288584   8.142   1.414   2.412 -1.5312 -0.6447 -1.3503
27913SOL     OW88585   7.352   9.433   2.936  0.4379  0.1341  0.5593
27913SOL    HW188586   7.434   9.414   2.981  0.0698 -0.2597  1.0772
27913SOL    HW288587   7.285   9.423   3.004 -0.2160 -1.3143 -0.2676
27914SOL     OW88588   8.589   1.038   2.027 -0.1815 -0.5173  0.3068
27914SOL    HW188589   8.507   0.996   2.053  0.5260 -1.1491  1.5373
27914SOL    HW288590   8.564   1.129   2.009 -0.8491 -0.2127  2.5424
27915SOL     OW88591   8.254   9.489   2.988  0.1227 -0.0357  0.4762
27915SOL    HW188592   8.332   9.472   3.041 -0.4481 -0.2758  1.2409
27915SOL    HW288593   8.212   9.564   3.030 -0.4051 -0.3088  0.4384
27916SOL     OW88594   8.701   9.981   3.381 -0.2493  0.2508  0.0467
27916SOL    HW188595   8.754  10.060   3.395  0.0314  0.1414 -0.4120
27916SOL    HW288596   8.611  10.009   3.399 -0.0849  0.5379  0.4193
27917SOL     OW88597   8.387   7.838   0.523  0.1912  0.2866  0.5390
27917SOL    HW188598   8.356   7.929   0.522  0.8371  0.5129  0.7313
27917SOL    HW288599   8.481   7.845   0.540  0.1965 -0.4311  0.8195
27918SOL     OW88600   7.632   0.469   0.876  0.3413  0.5948 -0.5145
27918SOL    HW188601   7.718   0.434   0.853  0.2294 -1.0112  1.3365
27918SOL    HW288602   7.645   0.563   0.885  1.9389  0.3454 -0.1380
27919SOL     OW88603   8.961   9.508   3.971  0.1109 -0.0210 -0.3140
27919SOL    HW188604   8.920   9.589   3.939  3.0896  1.5598 -0.3036
27919SOL    HW288605   9.055   9.521   3.955  0.8803 -2.4504  1.9676
27920SOL     OW88606   8.759   1.207   2.423  0.3756 -0.0137  0.1511
27920SOL    HW188607   8.720   1.136   2.372  0.0816  1.1978 -1.3372
27920SOL    HW288608   8.703   1.283   2.405  0.6435  0.5941  1.7855
27921SOL     OW88609   7.712   0.098   2.224 -0.3343  0.7361 -0.2002
27921SOL    HW188610   7.656   0.020   2.224 -1.7872  1.7224  1.5612
27921SOL    HW288611   7.767   0.087   2.302  0.7274  0.5979 -0.9685
27922SOL     OW88612   7.987   7.798   5.124  0.4432 -0.4647 -0.0728
27922SOL    HW188613   7.987   7.742   5.047  2.3457 -0.4364 -0.1302
27922SOL    HW288614   7.899   7.836   5.127 -0.1504 -1.7289 -1.2880
27923SOL     OW88615   7.918   9.970   2.388  0.5280  0.5541 -0.1547
27923SOL    HW188616   8.013   9.969   2.397  0.6798  2.6403 -1.2744
27923SOL    HW288617   7.899   9.899   2.326  1.0530 -1.8102  2.3086
27924SOL     OW88618   7.093   1.110   1.841 -0.1937 -0.0062  0.1364
27924SOL    HW188619   7.156   1.130   1.910 -2.7709 -0.1846  2.5886
27924SOL    HW288620   7.099   1.015   1.831  0.7842  0.1095 -0.5397
27925SOL     OW88621   7.679   9.706   2.979  0.4410 -0.1111  0.0177
27925SOL    HW188622   7.729   9.636   2.937 -0.0546 -1.3878  1.4902
27925SOL    HW288623   7.682   9.685   3.072 -0.0239  1.6445  0.4426
27926SOL     OW88624   7.795   0.454   2.745  0.0983  0.1727  0.3830
27926SOL    HW188625   7.813   0.424   2.656  0.7304 -0.1583  0.6146
27926SOL    HW288626   7.725   0.518   2.736  0.4830  0.4913 -0.4073
27927SOL     OW88627   9.400   9.250   2.496 -0.2843 -0.0121 -0.1645
27927SOL    HW188628   9.357   9.335   2.497  1.3733  0.8370 -0.0206
27927SOL    HW288629   9.373   9.208   2.577 -0.8709  0.4973 -0.0945
27928SOL     OW88630   8.318   9.208   0.206  0.0976  0.5350 -0.0154
27928SOL    HW188631   8.232   9.196   0.164  0.8317 -0.3201 -1.3143
27928SOL    HW288632   8.348   9.293   0.176 -0.6264  1.1924  1.0728
27929SOL     OW88633   8.349   2.177   3.835 -0.5589  0.2894 -0.0656
27929SOL    HW188634   8.262   2.182   3.795  0.0301  0.1038 -1.4128
27929SOL    HW288635   8.379   2.268   3.839 -0.4953  0.2835 -0.3520
27930SOL     OW88636   8.198   9.877   1.724  0.2389 -0.1567 -0.0448
27930SOL    HW188637   8.238   9.934   1.657  0.7242  1.3245  1.4820
27930SOL    HW288638   8.119   9.843   1.682  1.4961 -0.7114 -2.0406
27931SOL     OW88639   7.933   0.051   4.590  0.3870 -0.1126  0.0997
27931SOL    HW188640   7.916   0.103   4.668 -3.0604 -1.3951  0.2800
27931SOL    HW288641   7.906   0.108   4.517 -1.7240 -0.9296  0.2034
27932SOL     OW88642   8.789   9.848   3.123 -0.7422 -0.1831  0.1170
27932SOL    HW188643   8.733   9.892   3.187  0.3264  0.6266  0.5096
27932SOL    HW288644   8.876   9.847   3.164 -0.5264 -1.6848 -0.3609
27933SOL     OW88645   7.519   0.452   3.396  0.3696 -0.2140 -0.0957
27933SOL    HW188646   7.589   0.389   3.378  0.3217 -0.4518  0.5073
27933SOL    HW288647   7.563   0.537   3.396  0.4357 -0.2451 -0.9075
27934SOL     OW88648   8.854   9.906   4.205 -0.1802 -0.3145 -1.3801
27934SOL    HW188649   8.949   9.910   4.216 -0.2630 -0.7057 -0.5478
27934SOL    HW288650   8.820   9.974   4.263 -0.6674 -3.0068  1.6344
27935SOL     OW88651   9.313   8.895   0.846 -0.2440 -0.0707 -0.0494
27935SOL    HW188652   9.219   8.912   0.837 -0.0930  0.8201  0.0093
27935SOL    HW288653   9.355   8.964   0.794  0.4566  1.3419  2.2773
27936SOL     OW88654   9.487   8.884   2.992  0.4485 -0.2290 -0.1529
27936SOL    HW188655   9.486   8.938   2.913  1.6606 -0.3958 -0.2902
27936SOL    HW288656   9.477   8.794   2.959 -0.2337 -0.2050 -0.0226
27937SOL     OW88657   9.199   9.994   1.176 -0.6464  0.6689 -0.1740
27937SOL    HW188658   9.253   9.948   1.111 -1.6029 -1.2321  0.3532
27937SOL    HW288659   9.263  10.030   1.238  0.2242  1.8034 -1.6926
27938SOL     OW88660   0.074   0.279   1.700 -0.5570  0.1649 -0.3728
27938SOL    HW188661  -0.008   0.323   1.676 -0.2240  0.2956 -1.2492
27938SOL    HW288662   0.129   0.286   1.623  0.8459  1.3650  0.7216
27939SOL     OW88663   8.087   9.002   4.561 -0.0627 -0.0869  0.0192
27939SOL    HW188664   8.138   9.019   4.641 -2.6660 -1.0085  1.9589
27939SOL    HW288665   8.122   8.918   4.529  0.6558  0.0283  0.4852
27940SOL     OW88666   6.341   9.508   3.328  0.7982  0.5283 -0.1196
27940SOL    HW188667   6.331   9.413   3.329  0.0873  0.5798  2.7629
27940SOL    HW288668   6.323   9.533   3.238  0.3778 -2.0035 -0.7827
27941SOL     OW88669   8.811   9.480   2.485 -0.3767  0.0563  0.2123
27941SOL    HW188670   8.730   9.500   2.533 -1.4641  1.2260 -2.0499
27941SOL    HW288671   8.834   9.562   2.442 -0.3252 -1.3644 -2.5629
27942SOL     OW88672   9.966   0.589   3.436  0.2153 -0.1700 -0.3370
27942SOL    HW188673  10.026   0.523   3.470 -2.1721 -1.3865  1.6623
27942SOL    HW288674   9.923   0.547   3.361  0.1871 -0.1231 -0.3479
27943SOL     OW88675   7.732   9.912   4.058  0.0106  0.2470  0.2963
27943SOL    HW188676   7.774   9.873   3.981 -1.2561  0.7879 -0.6811
27943SOL    HW288677   7.727   9.840   4.121  2.8081  0.2696  0.6401
27944SOL     OW88678   8.028   9.839   3.738  0.0893  0.1796 -0.0715
27944SOL    HW188679   7.957   9.791   3.780  0.4443 -0.2617  0.0314
27944SOL    HW288680   7.989   9.875   3.658 -0.0217 -0.8169 -0.4784
27945SOL     OW88681   8.822   9.527   2.932 -0.4806  0.9562  0.0007
27945SOL    HW188682   8.868   9.605   2.964 -2.0977  1.6262  0.7665
27945SOL    HW288683   8.799   9.549   2.841 -0.2882  1.0855 -0.0174
27946SOL     OW88684   9.127   9.915   3.945  0.2152  0.1605  0.0657
27946SOL    HW188685   9.197   9.895   4.008  1.9431  1.1624 -1.4745
27946SOL    HW288686   9.154   9.869   3.865 -0.6725  0.9208 -0.6789
27947SOL     OW88687   8.746   0.049   1.450  0.0785 -0.1635  0.0868
27947SOL    HW188688   8.821   0.029   1.394  0.3421  0.7074  0.1215
27947SOL    HW288689   8.727   0.141   1.432 -1.8702 -0.7380 -0.9690
27948SOL     OW88690   7.893   9.105   4.156 -0.1060  0.4244 -0.6404
27948SOL    HW188691   7.939   9.022   4.167  0.5158  0.8485 -0.0188
27948SOL    HW288692   7.945   9.152   4.091  0.1600  0.7693 -0.1818
27949SOL     OW88693   6.933   8.905   2.083  0.2799 -0.2798  0.2241
27949SOL    HW188694   6.994   8.874   2.150  2.8693  0.2333 -1.7809
27949SOL    HW288695   6.982   8.897   2.001 -2.1480  0.7935 -1.3917
27950SOL     OW88696   7.246   9.574   3.187  0.0981 -0.2634 -0.1789
27950SOL    HW188697   7.285   9.647   3.139  0.4848 -0.5208 -0.2604
27950SOL    HW288698   7.287   9.578   3.273  0.7818 -0.9121 -0.4661
27951SOL     OW88699   9.022   0.445   3.773 -0.1100 -0.0379  0.1093
27951SOL    HW188700   9.047   0.353   3.778  1.1299  0.3542  1.3942
27951SOL    HW288701   9.028   0.467   3.680  1.7340 -0.6841  0.0662
27952SOL     OW88702   8.338   9.195   3.123  0.0345  0.3727 -0.0019
27952SOL    HW188703   8.346   9.169   3.032 -0.0655 -0.8497  0.3317
27952SOL    HW288704   8.343   9.113   3.173 -1.2264  0.8724  0.9996
27953SOL     OW88705   9.113   9.363   1.369 -0.3832  0.5974  0.0171
27953SOL    HW188706   9.153   9.404   1.292 -0.3413 -0.9985 -0.8387
27953SOL    HW288707   9.159   9.280   1.379 -0.2604  0.8683  1.9079
27954SOL     OW88708   9.223   0.339   2.915 -0.2736  0.0309 -0.3012
27954SOL    HW188709   9.289   0.285   2.872 -1.4135 -0.1596 -1.8762
27954SOL    HW288710   9.143   0.324   2.863 -1.6767 -0.1286  1.8474
27955SOL     OW88711   8.584   8.926   1.965 -0.3027  0.6766 -0.5272
27955SOL    HW188712   8.560   8.841   1.929 -1.5109  0.6990  0.2135
27955SOL    HW288713   8.513   8.949   2.025  0.9899  1.2940  0.8115
27956SOL     OW88714   7.495   8.572   3.947  0.1528 -0.4131  0.2200
27956SOL    HW188715   7.570   8.567   3.888  1.4600  0.7785  1.7169
27956SOL    HW288716   7.436   8.635   3.907  1.8514  1.7483  1.0517
27957SOL     OW88717   7.857   0.906   5.313  0.0287  0.0530 -0.2713
27957SOL    HW188718   7.917   0.851   5.364  0.3615 -0.0645 -0.7865
27957SOL    HW288719   7.872   0.995   5.346 -1.8347 -0.3829  1.8604
27958SOL     OW88720   7.905   0.271   5.905  0.1671  0.4903  0.4334
27958SOL    HW188721   7.947   0.355   5.923 -0.0079  0.5929  0.3669
27958SOL    HW288722   7.822   0.274   5.952  0.2852  0.2410  0.6575
27959SOL     OW88723   9.328   9.925   4.921  0.1475  0.1737  0.0631
27959SOL    HW188724   9.420   9.949   4.929  0.5713 -1.3976 -0.0396
27959SOL    HW288725   9.304   9.893   5.008 -0.5594  1.4266  0.3446
27960SOL     OW88726   9.135   8.677   5.747 -0.0695  0.1293 -0.2200
27960SOL    HW188727   9.186   8.673   5.829  0.0970  0.7515 -0.2909
27960SOL    HW288728   9.102   8.588   5.735  0.5485 -0.1496  0.1188
27961SOL     OW88729   6.968   0.359   4.266 -0.0282  0.7534 -0.4775
27961SOL    HW188730   6.918   0.440   4.276 -1.8015 -0.3418 -0.1096
27961SOL    HW288731   7.058   0.383   4.287 -0.6694  2.4617  0.4273
27962SOL     OW88732   8.591   9.275   5.559  0.0699 -0.4723 -0.2317
27962SOL    HW188733   8.623   9.195   5.518 -0.1760 -0.9485  0.4881
27962SOL    HW288734   8.593   9.340   5.490  2.3552 -0.5446 -0.2596
27963SOL     OW88735   8.129   1.048   6.227  0.0475 -0.6991  0.1988
27963SOL    HW188736   8.198   0.985   6.250  0.5685 -0.6985 -1.3342
27963SOL    HW288737   8.176   1.130   6.212 -0.2168 -0.8274 -1.3891
27964SOL     OW88738   9.476   9.034   5.562 -0.4393  0.3418  0.0072
27964SOL    HW188739   9.489   9.086   5.641  1.9761  1.1376 -0.8819
27964SOL    HW288740   9.493   8.944   5.589 -2.8131  0.1722  1.1103
27965SOL     OW88741   7.518   0.396   4.316  0.2823  0.4810 -0.4970
27965SOL    HW188742   7.585   0.448   4.359  1.4712 -0.0676 -1.6257
27965SOL    HW288743   7.499   0.443   4.235 -0.6574  0.6021 -0.2098
27966SOL     OW88744   8.369   9.860   5.372 -0.2715 -0.1007  0.4182
27966SOL    HW188745   8.415   9.775   5.378  0.6641  0.2554 -1.3796
27966SOL    HW288746   8.291   9.841   5.321 -0.7727 -0.1556  1.2021
27967SOL     OW88747   8.243   0.461   2.758  0.0058 -0.4265 -0.1033
27967SOL    HW188748   8.316   0.484   2.700 -0.5646  1.3709 -0.1367
27967SOL    HW288749   8.270   0.496   2.844  0.8903 -3.1418  0.7760
27968SOL     OW88750   8.113   9.786   5.284 -0.5463  0.0694  0.0553
27968SOL    HW188751   8.038   9.801   5.226 -1.1412 -0.0431  0.7784
27968SOL    HW288752   8.093   9.704   5.328 -1.2698  1.3611  2.1929
27969SOL     OW88753   8.775   8.828   5.064 -0.1634 -0.3886 -0.0398
27969SOL    HW188754   8.856   8.778   5.057  0.2565  0.2626  0.1489
27969SOL    HW288755   8.762   8.865   4.976 -0.4758 -0.8299 -0.1793
27970SOL     OW88756   9.743   1.995   5.463  0.8594 -0.2422  0.2789
27970SOL    HW188757   9.689   1.946   5.524 -1.1692 -1.1169 -2.1106
27970SOL    HW288758   9.765   2.076   5.509 -0.3936 -0.9849  2.2327
27971SOL     OW88759   8.880   9.744   6.314 -0.0948  0.0924  0.1448
27971SOL    HW188760   8.900   9.760   6.406 -2.3237  1.4637  0.4054
27971SOL    HW288761   8.859   9.830   6.277 -0.7695 -0.6499 -1.2646
27972SOL     OW88762   8.755   1.192   4.435  0.2272 -0.4329 -0.3507
27972SOL    HW188763   8.814   1.238   4.375  1.0362 -1.4244 -0.3157
27972SOL    HW288764   8.733   1.111   4.390 -0.5739 -0.3801 -0.0629
27973SOL     OW88765   7.954   9.684   4.804  0.2262  1.1599  0.5570
27973SOL    HW188766   8.024   9.667   4.741 -0.6015  0.1078 -0.1026
27973SOL    HW288767   7.880   9.713   4.750 -0.9895 -1.2622  0.8474
27974SOL     OW88768   8.497   9.799   4.713  0.2181  0.2714  0.9530
27974SOL    HW188769   8.508   9.844   4.797 -3.9101  0.7360  1.3767
27974SOL    HW288770   8.460   9.714   4.738 -1.0184  0.4112 -0.3657
27975SOL     OW88771   8.594   9.212   4.015 -0.0830 -0.3028 -0.1572
27975SOL    HW188772   8.663   9.153   4.045  0.5602 -0.5819 -2.1218
27975SOL    HW288773   8.611   9.294   4.060  0.3795 -0.9328  0.8352
27976SOL     OW88774   7.368   8.425   2.821  0.3185 -0.3627  0.5001
27976SOL    HW188775   7.354   8.331   2.818  0.1146 -0.2873 -0.9693
27976SOL    HW288776   7.330   8.452   2.905 -0.1239 -1.4880  0.6674
27977SOL     OW88777   9.882   0.208   5.366  0.5281 -0.1661  0.0115
27977SOL    HW188778   9.876   0.164   5.281  0.5836  1.1774 -0.7158
27977SOL    HW288779   9.914   0.142   5.426 -0.4891 -1.4265 -0.8043
27978SOL     OW88780   8.044   0.490   4.409 -0.1077  0.2266 -0.3989
27978SOL    HW188781   8.074   0.490   4.318  0.2965 -1.8394 -0.2900
27978SOL    HW288782   8.121   0.467   4.460 -0.8813 -0.9773  0.2508
27979SOL     OW88783   7.889   0.225   5.101 -0.4264 -0.7708  0.5378
27979SOL    HW188784   7.850   0.144   5.136 -0.4136 -0.8887  0.2778
27979SOL    HW288785   7.970   0.197   5.060  0.4376 -0.3836  1.9531
27980SOL     OW88786   8.774   0.354   5.395 -0.4057  0.2100 -0.3320
27980SOL    HW188787   8.855   0.378   5.350 -1.8052  0.2035 -2.9528
27980SOL    HW288788   8.717   0.431   5.384 -1.0245 -0.0773  0.8139
27981SOL     OW88789   7.593   0.121   4.325 -0.5714 -0.0110  0.3385
27981SOL    HW188790   7.668   0.116   4.266  1.0586 -0.8131  2.4294
27981SOL    HW288791   7.536   0.187   4.286  0.0481 -1.1420 -2.5881
27982SOL     OW88792   8.492   8.985   4.475  0.2015  0.0444  0.4785
27982SOL    HW188793   8.478   9.070   4.433  0.2733  0.6669  1.6841
27982SOL    HW288794   8.438   8.988   4.553 -2.1223 -2.2115 -0.9736
27983SOL     OW88795   8.570   9.854   3.937  0.0009  0.4491 -0.4521
27983SOL    HW188796   8.546   9.944   3.959 -0.6737  0.8293 -2.6613
27983SOL    HW288797   8.576   9.810   4.022 -1.0319  2.2329  0.5855
27984SOL     OW88798   7.130   9.325   3.327  0.0475 -0.2950  0.1241
27984SOL    HW188799   7.172   9.410   3.312 -0.2983 -0.1144  0.1565
27984SOL    HW288800   7.036   9.343   3.316 -0.2156 -0.1797  2.3896
27985SOL     OW88801   7.656   1.009   5.956 -0.9977 -0.4279  0.0815
27985SOL    HW188802   7.662   0.956   5.877 -0.2915  0.4638 -0.4747
27985SOL    HW288803   7.641   1.098   5.924 -0.1395  0.0316  0.9126
27986SOL     OW88804   0.178   9.861   5.527 -0.1760 -0.6186 -0.5104
27986SOL    HW188805   0.181   9.924   5.598 -0.0450 -1.4173  0.2010
27986SOL    HW288806   0.269   9.846   5.503 -0.1808 -0.9008 -0.3536
27987SOL     OW88807   8.886   9.794   5.659 -0.8834  0.1779  0.0566
27987SOL    HW188808   8.859   9.752   5.741 -1.7704 -1.7393 -1.1800
27987SOL    HW288809   8.807   9.839   5.628 -1.2305 -1.0967 -0.9378
27988SOL     OW88810   7.554   1.290   3.886  0.2890 -0.5775 -0.0661
27988SOL    HW188811   7.464   1.312   3.864  0.7535  1.3558 -0.1357
27988SOL    HW288812   7.561   1.308   3.980  1.1375  1.3247 -0.4558
27989SOL     OW88813   9.001   8.640   6.044  0.3306  0.0018 -0.1542
27989SOL    HW188814   8.938   8.712   6.041 -1.0306 -1.0282  2.6714
27989SOL    HW288815   9.084   8.679   6.015 -1.3084  1.6243 -2.8952
27990SOL     OW88816   7.976   0.518   2.560 -0.2535 -1.0019  0.2502
27990SOL    HW188817   7.933   0.440   2.524 -0.6354 -0.4619 -0.4662
27990SOL    HW288818   8.024   0.555   2.485 -0.4844 -0.2615  0.4695
27991SOL     OW88819   6.399   0.203   5.215 -0.0742  0.3399  0.4355
27991SOL    HW188820   6.330   0.233   5.274  2.7580 -0.9665  4.6172
27991SOL    HW288821   6.477   0.251   5.242  1.4083 -0.4697 -2.1556
27992SOL     OW88822   8.833   9.670   5.944  0.0049 -0.0735 -0.4034
27992SOL    HW188823   8.872   9.712   6.020 -1.0239  1.0991 -0.5052
27992SOL    HW288824   8.818   9.580   5.972  0.4104  0.1254  0.4890
27993SOL     OW88825   8.182   9.490   3.893 -0.4420  0.0935 -0.2874
27993SOL    HW188826   8.215   9.400   3.890 -0.6802 -0.0343  0.7232
27993SOL    HW288827   8.261   9.544   3.897 -0.3186 -0.2238  2.3711
27994SOL     OW88828   8.959   0.158   2.516  0.4691 -0.3284 -0.2321
27994SOL    HW188829   8.982   0.189   2.603  1.0260 -0.7343 -0.2280
27994SOL    HW288830   9.041   0.164   2.466  0.1340 -0.0211 -0.7461
27995SOL     OW88831   7.591   9.160   4.543  0.1840 -0.0282 -0.2659
27995SOL    HW188832   7.675   9.156   4.590  0.4848 -0.1745 -0.8127
27995SOL    HW288833   7.564   9.069   4.535 -0.0108  0.0170 -0.1286
27996SOL     OW88834   8.054   8.523   3.479  0.1772 -0.3837  0.0872
27996SOL    HW188835   8.027   8.591   3.418 -1.3525  0.5234  1.6994
27996SOL    HW288836   8.147   8.540   3.494  0.2904  0.0779 -1.1068
27997SOL     OW88837   9.013   0.383   5.242 -0.2905  0.0632 -0.4429
27997SOL    HW188838   9.017   0.294   5.207  0.0900  0.5953 -1.7775
27997SOL    HW288839   9.099   0.398   5.281  0.5337  0.7289 -2.4531
27998SOL     OW88840   8.618   9.998   6.405  0.1924 -0.0316 -0.1107
27998SOL    HW188841   8.653  10.038   6.325  1.2102 -2.4752 -0.9337
27998SOL    HW288842   8.660  10.046   6.476 -0.0321  1.5737 -1.0383
27999SOL     OW88843   8.310   1.084   3.904 -0.0022  0.3630 -0.1007
27999SOL    HW188844   8.262   1.110   3.826 -0.9114  2.4314  1.1029
27999SOL    HW288845   8.401   1.112   3.888  0.1908 -0.8586 -1.1511
28000SOL     OW88846   1.553   8.532   6.181 -0.0678  0.2236 -0.4664
28000SOL    HW188847   1.601   8.555   6.261 -2.6059  1.5968  0.7168
28000SOL    HW288848   1.523   8.616   6.146 -1.4706 -0.5923 -1.2647
28001SOL     OW88849   8.110   9.619   3.195  0.0036 -0.4299  0.2851
28001SOL    HW188850   8.182   9.646   3.252 -0.5545  0.1541  0.7186
28001SOL    HW288851   8.049   9.693   3.196 -0.6413 -0.9464 -0.0167
28002SOL     OW88852   9.341   9.751   5.155 -0.3850  0.3801 -0.1914
28002SOL    HW188853   9.400   9.776   5.227 -1.0696 -0.1047  0.5488
28002SOL    HW288854   9.333   9.656   5.162 -2.0821  0.5403  0.3846
28003SOL     OW88855   7.592   8.499   6.938  0.4303  0.6056 -0.2890
28003SOL    HW188856   7.602   8.446   6.858  2.3529  1.9922 -1.0281
28003SOL    HW288857   7.528   8.566   6.915 -0.3360 -0.0404 -0.0742
28004SOL     OW88858   6.837   9.536   4.311 -0.0596  0.1024 -0.0276
28004SOL    HW188859   6.878   9.493   4.386  0.0280  0.7696  0.3075
28004SOL    HW288860   6.848   9.629   4.327  0.8653  0.2459 -1.3764
28005SOL     OW88861   1.062   8.153   5.671  0.1996 -0.0137  1.1831
28005SOL    HW188862   1.129   8.222   5.679 -0.2133  0.3746  1.3244
28005SOL    HW288863   1.037   8.133   5.761 -0.7358  0.6952  1.0933
28006SOL     OW88864   8.555   1.118   4.699  0.0113  0.4818 -0.1708
28006SOL    HW188865   8.530   1.123   4.607  0.7009  0.6284 -0.3448
28006SOL    HW288866   8.502   1.046   4.734 -0.5558  0.6946 -0.5786
28007SOL     OW88867   6.462   9.245   4.732  0.1913  0.4235 -0.4231
28007SOL    HW188868   6.525   9.283   4.671  1.4121 -1.2982 -0.2605
28007SOL    HW288869   6.490   9.277   4.818 -0.9140  1.9993 -0.6096
28008SOL     OW88870   6.549   0.659   3.832  0.3235 -0.3306 -0.1740
28008SOL    HW188871   6.522   0.635   3.920  0.5616 -0.2287 -0.0737
28008SOL    HW288872   6.506   0.743   3.816  2.6293  1.0938  0.9563
28009SOL     OW88873   6.677   8.403   3.974  0.1074  0.6679 -0.1716
28009SOL    HW188874   6.710   8.340   4.038 -1.8191 -0.8549 -0.6220
28009SOL    HW288875   6.756   8.446   3.941  1.2974  0.0113  1.6976
28010SOL     OW88876   8.439   8.760   5.790 -0.2803  0.2077  0.6203
28010SOL    HW188877   8.357   8.744   5.836 -0.9955  0.2129 -0.6234
28010SOL    HW288878   8.445   8.856   5.783 -1.0840  0.1646 -0.8708
28011SOL     OW88879   8.728   0.542   5.848  0.0285 -0.1927  0.2971
28011SOL    HW188880   8.824   0.540   5.854  0.0891  1.5416  0.1551
28011SOL    HW288881   8.700   0.588   5.928 -0.5936  0.5956 -0.3682
28012SOL     OW88882   0.425   0.868   5.448 -0.2559  0.2570 -0.4421
28012SOL    HW188883   0.430   0.885   5.542 -2.9873  2.1336 -0.5867
28012SOL    HW288884   0.464   0.945   5.407 -1.3725  0.6046 -0.8742
28013SOL     OW88885   7.647   9.463   3.447 -0.3293 -0.1930  0.4606
28013SOL    HW188886   7.594   9.405   3.501  0.8896 -1.1531  0.6437
28013SOL    HW288887   7.737   9.437   3.465  0.3613  3.1866  2.1941
28014SOL     OW88888   9.020   0.330   4.152 -0.0815  0.4592 -0.0426
28014SOL    HW188889   9.116   0.324   4.149 -0.0826  0.5274 -0.1898
28014SOL    HW288890   8.992   0.245   4.186 -0.0217  0.0675 -0.9745
28015SOL     OW88891   7.652   1.242   2.016 -0.5255 -0.2039 -0.0377
28015SOL    HW188892   7.582   1.221   2.078 -1.0910 -4.2164 -1.8273
28015SOL    HW288893   7.732   1.240   2.069 -1.4869  2.0515  1.5723
28016SOL     OW88894   8.681   9.245   5.833 -0.3011 -0.1489 -0.0663
28016SOL    HW188895   8.733   9.168   5.811  2.3565  0.8389  2.3154
28016SOL    HW288896   8.641   9.273   5.750 -0.6867 -3.5699 -1.0988
28017SOL     OW88897   7.919   7.399   6.153 -0.1349 -0.4097  0.0914
28017SOL    HW188898   7.951   7.331   6.093  0.8722  0.0761  0.0590
28017SOL    HW288899   7.856   7.354   6.209  1.5335 -1.7323  0.9779
28018SOL     OW88900   8.730   8.892   5.537  0.1416  0.7352 -0.1728
28018SOL    HW188901   8.753   8.922   5.624 -0.9224  1.7112 -0.2055
28018SOL    HW288902   8.643   8.929   5.521 -2.5154 -4.5732  0.8497
28019SOL     OW88903   8.286   0.524   3.018  0.2703 -0.8819 -0.1657
28019SOL    HW188904   8.227   0.510   3.092  0.4391  0.0047  0.1342
28019SOL    HW288905   8.372   0.499   3.051  0.4689  0.2216  0.1766
28020SOL     OW88906   8.006   1.487   1.966 -0.1060  0.2495  0.3258
28020SOL    HW188907   8.049   1.408   1.931  0.2898  0.7877 -0.4167
28020SOL    HW288908   8.075   1.552   1.970 -0.7573  1.0082 -0.5080
28021SOL     OW88909   7.848   8.244   4.487  0.6643 -0.1217  0.9077
28021SOL    HW188910   7.784   8.218   4.421 -0.8404  2.1160  1.4226
28021SOL    HW288911   7.921   8.280   4.437  0.3302 -0.1310  0.4102
28022SOL     OW88912   8.147   9.515   6.612 -0.2279 -0.3241 -0.2419
28022SOL    HW188913   8.133   9.431   6.655 -0.1586 -0.1893  0.0525
28022SOL    HW288914   8.231   9.546   6.647 -1.5740  1.1613  1.8160
28023SOL     OW88915   7.477   0.046   5.547 -0.5066 -0.1283 -0.1307
28023SOL    HW188916   7.466  -0.048   5.555 -1.5071 -0.0099 -0.0987
28023SOL    HW288917   7.425   0.070   5.470 -1.5103  0.6053  0.7491
28024SOL     OW88918   9.279   9.293   5.697  0.1515  0.3055  0.5074
28024SOL    HW188919   9.362   9.258   5.731 -0.5134 -0.6893  1.1352
28024SOL    HW288920   9.212   9.242   5.742 -0.7817  0.1991 -1.0013
28025SOL     OW88921   7.875   0.174   6.311  0.4254  0.4240  0.2905
28025SOL    HW188922   7.790   0.186   6.267  0.5515  1.2916  0.2672
28025SOL    HW288923   7.853   0.130   6.393 -0.1023  1.0319  0.4838
28026SOL     OW88924   9.788   8.937   6.054 -0.1465 -0.3300 -0.8384
28026SOL    HW188925   9.761   8.907   5.967  0.4719  0.5850 -1.3459
28026SOL    HW288926   9.708   8.971   6.093 -0.1394  0.5491 -1.5850
28027SOL     OW88927   8.445   0.909   6.611 -0.8652 -0.0759 -0.0363
28027SOL    HW188928   8.478   0.913   6.521 -0.4476  1.9862  0.1686
28027SOL    HW288929   8.431   0.816   6.628 -1.3007 -0.4636 -2.3562
28028SOL     OW88930   8.627   0.563   5.323 -0.6192 -0.1522 -0.0125
28028SOL    HW188931   8.671   0.605   5.398  2.5823  1.3059 -2.5814
28028SOL    HW288932   8.558   0.625   5.299 -0.2809  0.4004  0.4146
28029SOL     OW88933   7.905   8.533   6.374 -0.9464 -0.5700 -0.2091
28029SOL    HW188934   7.900   8.627   6.388  0.5050 -0.4960 -0.1182
28029SOL    HW288935   7.901   8.523   6.279 -1.4316 -0.4396 -0.2022
28030SOL     OW88936   6.969   0.796   6.940  0.9990  0.2352 -0.1393
28030SOL    HW188937   6.930   0.712   6.917  1.7017  0.0344 -0.6115
28030SOL    HW288938   6.895   0.850   6.966  0.8680 -1.5075  3.3143
28031SOL     OW88939   9.086   8.921   6.579 -0.0048  0.2345 -0.2058
28031SOL    HW188940   9.075   9.011   6.547  0.1955  0.4818  0.4179
28031SOL    HW288941   9.120   8.931   6.668  1.4836 -0.4788 -0.6798
28032SOL     OW88942   7.014   9.305   7.165 -0.1883 -0.2525  0.1539
28032SOL    HW188943   7.052   9.353   7.091 -0.1193 -0.3629  0.1183
28032SOL    HW288944   6.936   9.355   7.188  0.2877  0.3023  0.5970
28033SOL     OW88945   0.644   9.118   7.814  0.5176 -0.1118 -0.3314
28033SOL    HW188946   0.649   9.055   7.742  1.8469 -0.6678  0.2228
28033SOL    HW288947   0.585   9.186   7.783  1.8025  0.1306 -2.3404
28034SOL     OW88948   8.997   1.214   6.301 -0.2003  0.1383 -0.2342
28034SOL    HW188949   8.958   1.148   6.243  2.8136  0.8369 -3.1705
28034SOL    HW288950   9.046   1.163   6.365  0.5113 -0.5432 -1.3074
28035SOL     OW88951   9.121   0.498   4.692 -0.3064 -0.0007 -0.1677
28035SOL    HW188952   9.027   0.481   4.686 -0.5998  2.2144 -2.8299
28035SOL    HW288953   9.139   0.498   4.786 -2.7511 -1.4769  0.3532
28036SOL     OW88954   8.876   8.955   4.018  0.2213  0.4104  0.5155
28036SOL    HW188955   8.944   9.022   4.028  0.2428  0.6599 -1.0666
28036SOL    HW288956   8.852   8.959   3.925 -1.1704 -0.4424  0.8220
28037SOL     OW88957   9.740   7.712   6.855 -0.2623 -0.0830  0.4904
28037SOL    HW188958   9.788   7.784   6.814 -0.5569  0.4726  1.1269
28037SOL    HW288959   9.785   7.633   6.824 -0.4517  0.3258 -0.8690
28038SOL     OW88960   7.491   8.032   6.515  0.5053 -0.3609 -0.0953
28038SOL    HW188961   7.548   8.027   6.438 -0.2468  1.7399 -0.8225
28038SOL    HW288962   7.549   8.058   6.586  1.1288 -1.9072 -0.0188
28039SOL     OW88963   8.808   0.608   7.084 -0.3202 -0.8611  0.3129
28039SOL    HW188964   8.769   0.606   6.997 -1.7067 -2.1738  0.9204
28039SOL    HW288965   8.736   0.634   7.142  0.8096  0.9139  0.9820
28040SOL     OW88966   8.756   9.620   6.781 -0.1731 -0.4028  0.0148
28040SOL    HW188967   8.792   9.553   6.840 -0.4063  0.2343  0.9038
28040SOL    HW288968   8.720   9.571   6.708  1.7427 -1.1085 -0.4911
28041SOL     OW88969   8.533   0.997   4.449 -0.1544  0.3784 -0.7569
28041SOL    HW188970   8.451   0.948   4.441  0.7280 -1.3035  0.2040
28041SOL    HW288971   8.601   0.930   4.454  1.0203  1.6506  1.4076
28042SOL     OW88972   0.575   9.177   5.736 -0.2611  0.0993  0.0948
28042SOL    HW188973   0.588   9.243   5.668 -0.5830 -1.3484 -1.3961
28042SOL    HW288974   0.480   9.170   5.745 -0.2441 -0.5651 -0.1739
28043SOL     OW88975   8.500   8.998   4.821  0.5672 -0.2185  0.1293
28043SOL    HW188976   8.565   8.944   4.776  1.3609 -0.0001  0.9853
28043SOL    HW288977   8.552   9.056   4.876 -0.2979  1.1230 -0.4582
28044SOL     OW88978   8.360   0.509   5.610 -0.6932  0.1977 -0.1748
28044SOL    HW188979   8.367   0.604   5.615  1.5354  0.1471 -1.4514
28044SOL    HW288980   8.430   0.476   5.667 -1.4555 -0.6922  0.2740
28045SOL     OW88981   7.690   0.394   7.753 -0.1369 -0.1099  0.0435
28045SOL    HW188982   7.696   0.482   7.791 -0.0416 -0.1182  0.0478
28045SOL    HW288983   7.721   0.336   7.823  1.3325 -0.0158 -0.5043
28046SOL     OW88984   6.929   8.625   7.099 -0.1552 -0.4407 -0.4377
28046SOL    HW188985   6.983   8.590   7.028  0.9463 -1.5524  0.9245
28046SOL    HW288986   6.991   8.643   7.170 -1.1473  1.3245  0.0160
28047SOL     OW88987   8.659   0.070   7.284 -0.2612 -0.6219 -0.3141
28047SOL    HW188988   8.580   0.100   7.239 -0.5721  1.3260  1.4803
28047SOL    HW288989   8.727   0.071   7.216 -0.7513  2.0861 -0.8101
28048SOL     OW88990   7.402   0.630   7.479 -0.5649  0.6862  0.2992
28048SOL    HW188991   7.393   0.636   7.574  0.1295  0.7334  0.3667
28048SOL    HW288992   7.467   0.560   7.466  0.8926  2.0905 -0.0735
28049SOL     OW88993   9.406   9.820   8.067  0.3937 -0.2773  0.2911
28049SOL    HW188994   9.313   9.803   8.084  0.1761  1.6464  1.2329
28049SOL    HW288995   9.452   9.758   8.123 -0.3496 -0.1107  1.1151
28050SOL     OW88996   9.582   0.938   5.779  0.5654  0.1955 -0.6346
28050SOL    HW188997   9.588   0.888   5.698 -0.1817 -0.6172 -0.1935
28050SOL    HW288998   9.505   0.994   5.767 -0.6801 -1.2796  0.2371
28051SOL     OW88999   6.349   9.898   7.296 -0.0839  0.4074  0.1141
28051SOL    HW189000   6.417   9.848   7.340 -1.2504 -0.0286  1.4694
28051SOL    HW289001   6.274   9.839   7.292 -1.0374  1.5595  0.5022
28052SOL     OW89002   9.039   0.171   7.326 -0.1483 -0.4757  0.4929
28052SOL    HW189003   8.968   0.131   7.274  0.7342 -1.0038 -0.3250
28052SOL    HW289004   8.997   0.243   7.373 -0.4505  1.7633 -3.0553
28053SOL     OW89005   8.455   9.379   5.080  0.2523  0.5496  0.2972
28053SOL    HW189006   8.547   9.353   5.074  0.7983  2.7451 -1.8284
28053SOL    HW289007   8.445   9.413   5.169  2.0629  2.1380 -0.0767
28054SOL     OW89008   8.270   7.809   6.630  0.3970 -0.0155 -0.0385
28054SOL    HW189009   8.284   7.786   6.722 -0.0391  0.2414  0.0897
28054SOL    HW289010   8.350   7.854   6.604  0.5129 -0.0709  0.2204
28055SOL     OW89011   8.811   1.024   7.288  0.6981 -0.0356 -0.2046
28055SOL    HW189012   8.762   1.028   7.206 -0.2108 -0.4685  0.3099
28055SOL    HW289013   8.798   1.109   7.329  1.0465  0.1362 -0.4561
28056SOL     OW89014   8.202   8.974   6.999  0.0326  0.3313  0.1804
28056SOL    HW189015   8.289   8.933   7.004 -0.4276 -0.5538  1.1978
28056SOL    HW289016   8.220   9.067   6.986  1.1058 -0.1489 -2.1648
28057SOL     OW89017   9.768   0.665   7.077 -0.3732  0.0357 -0.5609
28057SOL    HW189018   9.835   0.640   7.140  0.1563  0.5989 -0.8935
28057SOL    HW289019   9.812   0.724   7.016 -0.8537 -0.5388 -1.4986
28058SOL     OW89020   7.300   1.103   6.922 -0.3273  0.3666 -0.1152
28058SOL    HW189021   7.308   1.009   6.938 -1.6556  0.5922  1.9751
28058SOL    HW289022   7.317   1.113   6.828  1.3396 -1.7651 -0.0778
28059SOL     OW89023   8.372   0.568   6.850  0.1586  0.1383  0.7141
28059SOL    HW189024   8.314   0.635   6.885 -1.6863 -0.9495 -0.1920
28059SOL    HW289025   8.343   0.555   6.759  2.1042 -0.1133  0.0992
28060SOL     OW89026   7.485   7.811   8.206 -0.3512 -0.6375  0.2059
28060SOL    HW189027   7.535   7.870   8.262  2.8937 -1.6373 -1.4739
28060SOL    HW289028   7.423   7.868   8.160  0.0584  0.8459  1.4496
28061SOL     OW89029   7.919   9.928   5.578  0.6845  0.1979  0.3922
28061SOL    HW189030   7.843   9.871   5.584  0.8736 -0.4599 -2.5977
28061SOL    HW289031   7.992   9.869   5.557  1.0263  1.3943 -1.9879
28062SOL     OW89032   7.731   0.047   6.539 -0.6230  0.1032  0.2798
28062SOL    HW189033   7.741   0.074   6.630  0.5571 -0.2310  0.2529
28062SOL    HW289034   7.788  -0.029   6.530 -2.2886 -1.1286 -0.2124
28063SOL     OW89035   8.471   9.844   5.852  0.2355  0.5188  0.1193
28063SOL    HW189036   8.423   9.926   5.835 -0.4146 -0.0240 -0.6978
28063SOL    HW289037   8.562   9.872   5.862  0.2003  1.2264 -1.2978
28064SOL     OW89038   8.283   0.312   4.584 -0.2768 -0.0090 -0.3571
28064SOL    HW189039   8.342   0.374   4.542 -2.1689  2.1833  0.0699
28064SOL    HW289040   8.338   0.238   4.608  2.1360  1.6593 -0.5963
28065SOL     OW89041   0.435   8.830   5.859  0.4682  0.0659 -0.3270
28065SOL    HW189042   0.420   8.924   5.856  0.7171  0.0601 -2.0392
28065SOL    HW289043   0.365   8.793   5.805  1.8725 -0.5399 -1.7758
28066SOL     OW89044   7.802   9.909   6.144 -0.6705 -0.4139  0.5048
28066SOL    HW189045   7.724   9.953   6.176 -0.6424 -1.7732  2.4739
28066SOL    HW289046   7.799   9.821   6.182  2.2809 -0.1928  1.3839
28067SOL     OW89047   6.934   9.677   7.088  0.5713  0.0963  0.7237
28067SOL    HW189048   6.895   9.590   7.090 -0.7131  0.5999 -1.2987
28067SOL    HW289049   6.936   9.704   7.180 -1.5443 -0.9450  1.1062
28068SOL     OW89050   6.621   0.908   6.406 -0.5519  0.8905  0.6214
28068SOL    HW189051   6.625   0.922   6.311  0.1996 -0.0332  0.5098
28068SOL    HW289052   6.543   0.854   6.419  0.0278 -0.0046  0.3982
28069SOL     OW89053   8.274   9.666   8.286 -0.2778  0.4196  0.0471
28069SOL    HW189054   8.287   9.571   8.287 -2.0382  0.1673  0.0117
28069SOL    HW289055   8.233   9.684   8.201 -0.3964  1.1544  0.2581
28070SOL     OW89056   9.215   9.635   6.447 -0.7875  0.0846  0.0703
28070SOL    HW189057   9.149   9.609   6.512  0.8704  0.7281  2.0789
28070SOL    HW289058   9.247   9.552   6.411  1.2782 -0.5928  3.2143
28071SOL     OW89059   8.112   9.838   6.177  0.1855  0.4691 -0.8049
28071SOL    HW189060   8.086   9.781   6.249  1.6004 -1.7136 -1.9735
28071SOL    HW289061   8.205   9.856   6.192  0.8919 -1.2584 -2.8673
28072SOL     OW89062   6.951   9.091   9.031  0.2299 -0.0061 -0.3203
28072SOL    HW189063   7.016   9.062   9.095 -1.3249 -0.8838  0.9059
28072SOL    HW289064   6.942   9.185   9.047  3.9087  0.9452 -3.0468
28073SOL     OW89065   8.058   0.467   5.055 -0.2532 -0.1607 -0.5145
28073SOL    HW189066   8.068   0.502   4.967  0.3608 -1.2579 -0.8916
28073SOL    HW289067   8.073   0.373   5.046  1.5147 -0.0681  1.0220
28074SOL     OW89068   7.385   9.489   6.267  0.1302  0.3713 -0.0665
28074SOL    HW189069   7.372   9.456   6.356  0.2171 -1.2762 -0.6449
28074SOL    HW289070   7.458   9.550   6.274  0.7915 -0.5123  0.8143
28075SOL     OW89071   5.966   9.543   5.874  0.8178  0.1733  0.1223
28075SOL    HW189072   5.997   9.453   5.874  1.6158  0.4294 -1.2521
28075SOL    HW289073   5.870   9.536   5.873  0.8854 -0.6812 -1.5512
28076SOL     OW89074   9.400   0.381   6.252 -0.2030  0.6124 -0.0123
28076SOL    HW189075   9.426   0.457   6.200 -1.3160  1.6306  0.8825
28076SOL    HW289076   9.473   0.367   6.312  0.3734  0.4483 -0.7453
28077SOL     OW89077   0.398   0.147   8.041  0.4882  0.7499  0.2016
28077SOL    HW189078   0.434   0.126   8.127  0.1839 -0.0560  0.1328
28077SOL    HW289079   0.374   0.240   8.047  0.6797  0.7539  0.9085
28078SOL     OW89080   7.553   9.055   7.000 -0.3363 -0.3250  0.3751
28078SOL    HW189081   7.629   9.111   7.014  0.0601 -0.3571 -1.5687
28078SOL    HW289082   7.518   9.040   7.088  0.4801  1.6608  1.0630
28079SOL     OW89083   8.525   1.400   8.292 -1.0060  0.1881  0.6407
28079SOL    HW189084   8.515   1.494   8.303  0.4218  0.4204  0.1096
28079SOL    HW289085   8.617   1.388   8.268 -0.6137 -1.5377  2.8171
28080SOL     OW89086   0.381   8.599   6.150 -0.1250  0.0891  0.6842
28080SOL    HW189087   0.418   8.574   6.234 -2.1895  1.5970  2.0789
28080SOL    HW289088   0.396   8.693   6.144 -1.0991  0.2041 -0.0748
28081SOL     OW89089   7.411   9.820   5.960  0.5832  0.5015  0.0034
28081SOL    HW189090   7.457   9.772   5.892  0.9865  0.4408  0.3163
28081SOL    HW289091   7.318   9.803   5.944  0.6928  0.2368 -0.3395
28082SOL     OW89092   7.475   0.025   6.443 -0.0295 -0.2714 -0.1160
28082SOL    HW189093   7.464   0.104   6.390  0.5279  0.2169  0.4894
28082SOL    HW289094   7.569   0.021   6.461  0.0161 -1.3273 -0.5198
28083SOL     OW89095   6.791   1.294   6.972 -0.0191 -0.1305 -0.3882
28083SOL    HW189096   6.789   1.377   7.020 -0.0777  0.7623 -1.8983
28083SOL    HW289097   6.881   1.263   6.982 -0.5842 -1.0951  2.1470
28084SOL     OW89098   9.263   9.614   6.023  0.4947 -0.6660 -0.5935
28084SOL    HW189099   9.211   9.559   5.964 -1.6858 -0.6778  1.2442
28084SOL    HW289100   9.272   9.561   6.103  0.2920  0.7520  0.3841
28085SOL     OW89101   7.730   1.175   8.461 -0.4986  0.0167  0.4093
28085SOL    HW189102   7.781   1.198   8.539  0.9506 -1.1222 -0.1743
28085SOL    HW289103   7.731   1.079   8.460 -0.2542  0.0358 -1.1691
28086SOL     OW89104   8.689   9.682   4.921 -0.2754  0.4884  0.4462
28086SOL    HW189105   8.597   9.657   4.919 -0.3341  0.7242 -1.7105
28086SOL    HW289106   8.734   9.615   4.869  0.5754  1.0728  0.4068
28087SOL     OW89107   9.275   9.478   7.123 -0.1056 -0.0822  0.6981
28087SOL    HW189108   9.367   9.460   7.105 -0.0139  0.0916  0.9801
28087SOL    HW289109   9.272   9.572   7.140 -0.0836 -0.3436  2.1972
28088SOL     OW89110   9.728   1.800   5.247  0.2027 -0.5089  0.1907
28088SOL    HW189111   9.676   1.833   5.174  0.5527  0.4096  0.3462
28088SOL    HW289112   9.719   1.867   5.315  0.5774 -0.9395  0.6753
28089SOL     OW89113   8.669   0.001   6.955  0.2856  0.1480 -0.4122
28089SOL    HW189114   8.723   0.068   6.996  1.4124  0.9556 -3.0762
28089SOL    HW289115   8.678   0.017   6.861 -2.4426 -1.3993 -1.0161
28090SOL     OW89116   0.640   8.645   5.840 -0.1159 -0.6561 -0.3965
28090SOL    HW189117   0.607   8.728   5.874  1.4877 -0.8242  1.6934
28090SOL    HW289118   0.640   8.656   5.745 -0.3003  1.5764 -0.1591
28091SOL     OW89119   9.591   8.800   7.236  0.5907  0.2041 -0.5172
28091SOL    HW189120   9.570   8.889   7.263 -0.6674 -0.4398  0.7118
28091SOL    HW289121   9.607   8.806   7.142 -0.8196  1.5068 -0.6915
28092SOL     OW89122   9.756   9.708   5.822 -0.0947 -0.3733  0.1569
28092SOL    HW189123   9.672   9.752   5.825  0.1797  0.1196  0.9348
28092SOL    HW289124   9.818   9.776   5.795  0.3035 -0.3026  1.2002
28093SOL     OW89125   8.556   9.038   6.030  0.3563  0.5624  0.0428
28093SOL    HW189126   8.513   9.122   6.043  1.3276  1.2819 -1.2612
28093SOL    HW289127   8.523   9.006   5.946  0.3467 -0.1478  0.3073
28094SOL     OW89128   9.367   8.992   5.978  0.0989  0.2127 -0.3460
28094SOL    HW189129   9.434   9.030   5.921  0.2096 -0.6188 -0.7926
28094SOL    HW289130   9.382   9.032   6.063 -0.4663  1.9604 -1.0345
28095SOL     OW89131   7.042   9.336   8.070 -0.2636  0.2593  0.1363
28095SOL    HW189132   6.986   9.400   8.026  1.3775  0.2253 -2.0975
28095SOL    HW289133   7.088   9.387   8.136 -1.9659  0.5380  1.1344
28096SOL     OW89134   7.144   9.671   9.483  0.3381  0.2644 -0.3771
28096SOL    HW189135   7.215   9.608   9.488  0.7495  0.7585  0.0281
28096SOL    HW289136   7.131   9.685   9.389 -0.7970 -1.5831 -0.5159
28097SOL     OW89137   9.806   0.248   8.229 -0.7622  0.0453 -0.5953
28097SOL    HW189138   9.758   0.177   8.273  0.1520  0.7772  1.6744
28097SOL    HW289139   9.767   0.328   8.263 -1.2283  0.6582 -2.5238
28098SOL     OW89140   8.047   9.418   8.404  0.2818  0.2894 -0.6009
28098SOL    HW189141   7.998   9.492   8.440 -0.3838 -0.5167  0.1694
28098SOL    HW289142   8.019   9.343   8.456  0.7088 -0.5668 -1.5938
28099SOL     OW89143   9.435   8.690   6.485  0.6005  0.4700  0.5703
28099SOL    HW189144   9.471   8.775   6.461  0.8203  0.7916  1.9999
28099SOL    HW289145   9.368   8.673   6.419  0.4119  1.8563  0.3965
28100SOL     OW89146   9.066   9.572   9.007  0.0667  0.3083  0.3912
28100SOL    HW189147   9.036   9.644   8.952 -1.6899 -0.4935  0.2505
28100SOL    HW289148   9.004   9.501   8.990  1.5893 -1.1495  0.7379
28101SOL     OW89149   7.849   9.721   6.598  1.2156  0.3193  0.1703
28101SOL    HW189150   7.932   9.726   6.549  0.7037  0.0450 -0.7444
28101SOL    HW289151   7.797   9.657   6.549 -0.2555  1.8714 -0.3507
28102SOL     OW89152   9.024   8.779   9.741 -0.4371 -0.1872  0.3346
28102SOL    HW189153   9.091   8.847   9.749  1.0187 -1.5709  0.1698
28102SOL    HW289154   8.975   8.802   9.662  0.8380 -0.0081 -0.4175
28103SOL     OW89155   9.505   1.361   6.914  0.3030 -0.4973  0.0363
28103SOL    HW189156   9.575   1.388   6.974  1.0226  0.4334 -1.1884
28103SOL    HW289157   9.425   1.368   6.966  0.5663  3.0741  0.1121
28104SOL     OW89158   8.004   0.311   8.118 -0.2081 -0.0509 -0.5837
28104SOL    HW189159   8.031   0.365   8.192  0.1165 -1.2887  0.2118
28104SOL    HW289160   7.909   0.323   8.113 -0.6263 -2.0648  1.7466
28105SOL     OW89161   9.538   9.845   0.517 -0.1550 -0.3830 -0.6167
28105SOL    HW189162   9.534   9.802   0.602 -2.1469 -0.1169 -0.5346
28105SOL    HW289163   9.595   9.789   0.464  2.2699  0.2277  1.2769
28106SOL     OW89164   7.723   0.204   7.345  0.2436 -0.1917 -0.5377
28106SOL    HW189165   7.730   0.146   7.421  0.5875 -1.4213 -1.4923
28106SOL    HW289166   7.672   0.279   7.377  0.7394 -0.4918  1.0119
28107SOL     OW89167   0.438   8.978   7.342 -0.3537 -0.2834  0.3052
28107SOL    HW189168   0.412   8.955   7.254  2.1051 -1.2498 -0.2119
28107SOL    HW289169   0.435   8.896   7.391  0.2669 -0.1472  0.5862
28108SOL     OW89170   7.684   9.998   8.814  0.1892 -0.3612  0.4239
28108SOL    HW189171   7.762  10.042   8.782  2.0359 -3.6027  0.2425
28108SOL    HW289172   7.614  10.026   8.755  1.8236  0.3638 -1.2037
28109SOL     OW89173   7.542   9.817   9.445 -0.1954  0.2149  0.2329
28109SOL    HW189174   7.535   9.904   9.407 -0.5371 -0.4380 -1.2274
28109SOL    HW289175   7.517   9.757   9.374 -0.3380 -1.0510  1.3257
28110SOL     OW89176   6.786   8.645   7.939  0.2196 -0.0279 -0.0581
28110SOL    HW189177   6.707   8.687   7.972 -0.4697 -1.1980 -0.1800
28110SOL    HW289178   6.774   8.641   7.845 -0.2440 -1.5191  0.0558
28111SOL     OW89179   7.998   9.487   7.890  0.3316 -0.3069 -0.1534
28111SOL    HW189180   8.015   9.511   7.799  1.4040  0.5407  0.2575
28111SOL    HW289181   8.037   9.558   7.941  1.4063 -1.7202  1.0286
28112SOL     OW89182   5.852   0.605   9.162 -0.5256 -0.3085  0.0437
28112SOL    HW189183   5.782   0.649   9.114 -0.7980 -0.8152 -0.0344
28112SOL    HW289184   5.907   0.676   9.196 -1.5543  0.1336  0.8154
28113SOL     OW89185   9.116   9.174   6.811  0.0392  1.0383  0.5490
28113SOL    HW189186   9.153   9.253   6.772  1.7334 -0.7158 -1.4143
28113SOL    HW289187   9.177   9.104   6.790 -2.0393 -1.0647  1.2098
28114SOL     OW89188   9.571   9.015   0.703  0.6553  0.0884 -0.0766
28114SOL    HW189189   9.618   9.089   0.741  0.3517 -0.2038  0.8639
28114SOL    HW289190   9.542   9.048   0.617  3.1088  0.0561 -0.9743
28115SOL     OW89191   9.512   9.975   7.499  0.4446  0.2836  0.1194
28115SOL    HW189192   9.432   9.932   7.468  0.9272  1.0497 -2.2939
28115SOL    HW289193   9.481  10.047   7.554 -0.4748 -0.3195  0.3972
28116SOL     OW89194   8.395   9.634   9.567 -0.5651 -0.2840 -1.1167
28116SOL    HW189195   8.401   9.690   9.644  0.4596  0.4509 -1.7222
28116SOL    HW289196   8.310   9.654   9.529 -1.2241 -0.8993  0.0033
28117SOL     OW89197   1.287   8.647   9.996  0.3825 -0.8789 -0.2752
28117SOL    HW189198   1.275   8.711  10.066  0.8721 -1.7708  0.6332
28117SOL    HW289199   1.223   8.672   9.929 -1.4307 -1.2058  1.3178
28118SOL     OW89200   9.748   1.646   7.510 -0.3509  0.2619  0.1208
28118SOL    HW189201   9.709   1.731   7.531  0.4579  0.2456  1.7890
28118SOL    HW289202   9.733   1.593   7.589 -0.1069 -0.8662 -0.5879
28119SOL     OW89203   7.867   8.037   9.813 -0.3300  0.0427  0.2267
28119SOL    HW189204   7.818   7.955   9.812  0.3408 -0.4300  2.4060
28119SOL    HW289205   7.828   8.087   9.885  1.7118  0.0514  1.3555
28120SOL     OW89206   6.233   1.991   6.858 -0.4320  0.4292 -0.4673
28120SOL    HW189207   6.287   1.929   6.906 -2.0657 -0.0756  0.7808
28120SOL    HW289208   6.262   2.077   6.889 -0.5807  0.1523  0.4610
28121SOL     OW89209   9.343   9.464   8.001 -0.4050  0.0840  0.6303
28121SOL    HW189210   9.438   9.466   8.009 -0.3346 -0.5977 -0.0545
28121SOL    HW289211   9.312   9.442   8.089  0.1398 -1.2083  0.5110
28122SOL     OW89212   8.660   8.891   0.042  0.7891  0.1743 -0.2864
28122SOL    HW189213   8.641   8.840  -0.036  0.7376 -1.1453  0.5792
28122SOL    HW289214   8.755   8.886   0.053  0.7691  0.1500 -0.1232
28123SOL     OW89215   9.282   9.793   8.968 -0.0793  0.3259 -0.1032
28123SOL    HW189216   9.199   9.818   8.927 -1.1292  0.6405  2.1881
28123SOL    HW289217   9.346   9.855   8.933 -0.9187  0.4806 -1.3792
28124SOL     OW89218   6.464   9.671   9.241 -0.4915 -0.2231 -0.0540
28124SOL    HW189219   6.520   9.659   9.317  0.7778 -2.0860 -1.2157
28124SOL    HW289220   6.375   9.659   9.274 -0.0819  0.7410  1.4316
28125SOL     OW89221   6.086   0.959   0.466  0.1427 -0.2395 -0.1296
28125SOL    HW189222   6.034   0.945   0.387  0.0607  0.8295 -0.2732
28125SOL    HW289223   6.074   1.052   0.486 -1.4412 -0.9151  2.2715
28126SOL     OW89224   8.976   8.444   9.170 -0.5376  0.3681 -0.0975
28126SOL    HW189225   8.889   8.407   9.158 -1.1116  1.0937  1.7041
28126SOL    HW289226   9.013   8.393   9.242 -0.1898  1.3102  0.3935
28127SOL     OW89227   7.907   0.045   8.456  0.1693  0.4151  0.3416
28127SOL    HW189228   7.888   0.051   8.550 -1.7064  0.9760 -0.0578
28127SOL    HW289229   7.877   0.128   8.420  1.9780  0.6746 -0.5804
28128SOL     OW89230   8.679   8.968   9.376  0.4848  0.2675 -0.2546
28128SOL    HW189231   8.692   8.911   9.301 -0.4080 -0.9199  0.4732
28128SOL    HW289232   8.744   9.037   9.365  1.7490 -1.0147 -1.0400
28129SOL     OW89233   8.374   0.177   8.645 -0.1114  0.4945  0.2894
28129SOL    HW189234   8.461   0.215   8.634  0.6500 -1.0164  0.8659
28129SOL    HW289235   8.360   0.127   8.565 -0.9873  1.7201 -0.3392
28130SOL     OW89236   7.990   8.995   9.274 -0.3296  0.3158  0.3433
28130SOL    HW189237   7.948   9.081   9.273  0.3467  0.6538  0.9234
28130SOL    HW289238   8.063   9.005   9.335  1.3070  0.0667 -1.5431
28131SOL     OW89239   0.200   9.310   8.835  0.2213  0.2373 -0.0915
28131SOL    HW189240   0.247   9.246   8.782  0.2809 -0.5829  0.9376
28131SOL    HW289241   0.111   9.274   8.843  0.7262 -0.6691  1.9933
28132SOL     OW89242   7.697   8.344   9.599  0.2580  0.4315  0.0323
28132SOL    HW189243   7.640   8.417   9.623 -0.5777 -0.4040  0.6775
28132SOL    HW289244   7.673   8.323   9.509 -0.6435 -0.0536  0.3691
28133SOL     OW89245   9.230   8.679   8.180  0.4096 -0.3515  0.3670
28133SOL    HW189246   9.283   8.752   8.148  0.8427  0.1124  2.0965
28133SOL    HW289247   9.140   8.703   8.158  0.7732 -0.5497 -1.4364
28134SOL     OW89248   0.900   9.234   7.826  0.3102 -0.1722  0.3008
28134SOL    HW189249   0.811   9.198   7.825  0.2233  0.0735 -0.5599
28134SOL    HW289250   0.898   9.299   7.897  0.3115 -1.4441  1.4958
28135SOL     OW89251   7.536   8.957   8.747 -0.3229 -0.6699 -0.3873
28135SOL    HW189252   7.575   8.915   8.824  0.5336  2.4906  0.9831
28135SOL    HW289253   7.593   8.932   8.675  0.0082 -2.0546  0.3325
28136SOL     OW89254   9.201   0.557   6.866 -0.3215  0.1367 -0.4497
28136SOL    HW189255   9.260   0.487   6.838 -0.3478  0.0673 -0.3349
28136SOL    HW289256   9.123   0.547   6.811 -0.2281  0.2229 -0.5956
28137SOL     OW89257   7.939   9.555   8.171  0.5628 -0.1111  0.0266
28137SOL    HW189258   7.977   9.514   8.248  1.4906  0.4772 -0.1129
28137SOL    HW289259   7.920   9.644   8.198 -0.2518 -0.2548 -0.0599
28138SOL     OW89260   9.114   8.522   9.490  0.8687 -0.8647  0.1486
28138SOL    HW189261   9.024   8.499   9.471  0.1288  1.4142  0.6722
28138SOL    HW289262   9.121   8.520   9.585  1.0681 -0.0236  0.1602
28139SOL     OW89263   8.520   0.748   9.066 -0.2930  0.2727  0.2789
28139SOL    HW189264   8.608   0.782   9.082 -0.4824  0.5447  0.7494
28139SOL    HW289265   8.510   0.675   9.128 -0.2064 -0.0915 -0.1316
28140SOL     OW89266   8.646   0.622   6.836  0.2128  0.0665 -0.2834
28140SOL    HW189267   8.654   0.668   6.752 -1.9519  1.2064  0.0774
28140SOL    HW289268   8.553   0.599   6.841  0.9176 -2.8896  0.3471
28141SOL     OW89269   7.964   1.729   7.738 -0.3930 -0.4344 -0.0238
28141SOL    HW189270   7.871   1.712   7.728 -0.4110 -0.0974 -0.4597
28141SOL    HW289271   7.985   1.698   7.826 -1.0020 -0.1139  0.2357
28142SOL     OW89272   7.926   0.749   7.888  0.3803 -0.2826 -0.4719
28142SOL    HW189273   7.932   0.764   7.983 -0.1507 -0.2082 -0.4489
28142SOL    HW289274   7.986   0.676   7.872  1.4300  0.5164 -0.2735
28143SOL     OW89275   7.546   9.256   7.577  0.3516 -0.1349  0.3341
28143SOL    HW189276   7.468   9.245   7.523  1.2088 -1.0024 -0.7626
28143SOL    HW289277   7.515   9.243   7.667 -1.1018  1.4003  0.0763
28144SOL     OW89278   0.247   8.732   0.559 -0.8056  0.2016 -0.4210
28144SOL    HW189279   0.320   8.788   0.533 -0.9980  0.7705  0.2418
28144SOL    HW289280   0.207   8.704   0.477  0.5922 -0.7034 -0.8145
28145SOL     OW89281   7.303   8.808   8.690 -0.1273 -0.0554 -0.2909
28145SOL    HW189282   7.256   8.824   8.609  0.8773 -0.1021 -0.8857
28145SOL    HW289283   7.374   8.872   8.691  0.6720 -0.9210 -0.0978
28146SOL     OW89284   8.165   9.740   8.680  0.0709  0.0251  0.1029
28146SOL    HW189285   8.123   9.676   8.623  0.5627 -0.6682  0.5116
28146SOL    HW289286   8.254   9.749   8.646  0.5240 -0.7616  1.0336
28147SOL     OW89287   7.095   7.701   1.335  0.0150 -0.1354  0.1466
28147SOL    HW189288   7.156   7.684   1.263 -0.2282  0.0244 -0.1003
28147SOL    HW289289   7.145   7.752   1.398 -0.2165  1.0578 -0.6151
28148SOL     OW89290   8.503   9.021   8.938  0.0810 -0.2111 -0.7260
28148SOL    HW189291   8.500   9.072   9.019  1.2174 -0.7118 -0.3531
28148SOL    HW289292   8.507   8.930   8.967 -0.4987 -0.4468 -1.3672
28149SOL     OW89293   9.715   9.806   8.613 -1.1987 -0.1653 -0.2712
28149SOL    HW189294   9.744   9.784   8.524  1.3024  3.1407 -0.3806
28149SOL    HW289295   9.648   9.873   8.601 -0.8029  0.3467  0.3209
28150SOL     OW89296   8.175   9.667   9.015 -0.0410 -0.0807  0.1696
28150SOL    HW189297   8.120   9.745   9.019 -0.4382 -0.3312 -0.3506
28150SOL    HW289298   8.113   9.594   9.014  0.1942 -0.3095 -2.7799
28151SOL     OW89299   8.109   9.525   7.572 -0.1537 -0.3967  0.3291
28151SOL    HW189300   8.049   9.494   7.504  0.6755 -1.9188  0.2707
28151SOL    HW289301   8.084   9.616   7.586 -0.4059 -0.0940 -1.9429
28152SOL     OW89302   9.544   0.138   7.813 -0.2326 -0.2939  0.0701
28152SOL    HW189303   9.636   0.128   7.840 -0.3086 -0.9204  0.1067
28152SOL    HW289304   9.494   0.096   7.884 -0.5851  0.7190  0.4238
28153SOL     OW89305   7.696   9.526   6.959 -0.4000  0.5061  0.4252
28153SOL    HW189306   7.615   9.477   6.959 -0.1219 -0.0194 -1.5469
28153SOL    HW289307   7.724   9.526   6.867  1.6839  0.8949  1.0236
28154SOL     OW89308   9.236   9.299   9.481  0.0717 -0.0077  0.1166
28154SOL    HW189309   9.214   9.273   9.392 -3.2095 -0.3754  0.9843
28154SOL    HW289310   9.212   9.392   9.486 -1.9787 -0.5780  1.2792
28155SOL     OW89311   7.794   0.003   9.408 -0.3610 -0.4029  0.1183
28155SOL    HW189312   7.836   0.073   9.457 -0.2315  0.6545 -1.4929
28155SOL    HW289313   7.822  -0.077   9.453 -0.8929  0.5720  2.2577
28156SOL     OW89314   9.867   8.186   8.292 -0.2180  0.5398  0.3320
28156SOL    HW189315   9.861   8.209   8.384  0.0911  0.6154  0.3338
28156SOL    HW289316   9.932   8.116   8.289 -1.2629 -0.4507  0.3460
28157SOL     OW89317   6.791   9.394   8.620 -0.1607  0.5197 -0.1560
28157SOL    HW189318   6.786   9.374   8.526  1.4773 -0.8149  0.0011
28157SOL    HW289319   6.702   9.379   8.653  0.1528 -3.2197 -0.7500
28158SOL     OW89320   5.612   0.384   9.273  0.0450  0.9197 -0.4350
28158SOL    HW189321   5.643   0.352   9.188  0.7473 -2.7540  1.0829
28158SOL    HW289322   5.688   0.427   9.311 -0.4733  3.2135 -1.9200
28159SOL     OW89323   7.925   1.132   8.247 -0.1885 -0.0306  0.1783
28159SOL    HW189324   7.881   1.054   8.212  0.9953  0.2055 -1.9197
28159SOL    HW289325   7.868   1.162   8.318 -0.5616 -2.9228  1.1758
28160SOL     OW89326   6.683   9.421   7.965 -0.0686  0.3504  0.1181
28160SOL    HW189327   6.670   9.483   8.036  0.2175 -0.1941  0.6465
28160SOL    HW289328   6.715   9.475   7.892 -2.4656  1.2449 -0.3018
28161SOL     OW89329   9.245   8.343   0.117 -0.1988  0.4113 -0.0525
28161SOL    HW189330   9.331   8.307   0.141  0.1018  1.0835 -0.1059
28161SOL    HW289331   9.227   8.408   0.185 -0.8757 -0.0555  0.2115
28162SOL     OW89332   7.891   0.342   7.533 -0.1810 -0.5025 -0.1269
28162SOL    HW189333   7.838   0.376   7.605 -0.6664 -0.6904 -0.3953
28162SOL    HW289334   7.981   0.346   7.566 -0.3813 -0.4163  0.4209
28163SOL     OW89335   9.130   8.700   9.242  0.2477 -0.1378  0.1457
28163SOL    HW189336   9.170   8.677   9.326 -1.1910 -1.0436  0.6124
28163SOL    HW289337   9.078   8.623   9.218  0.5363  0.1578 -1.5192
28164SOL     OW89338   5.712   1.252   7.650  0.0821 -0.8645  0.0314
28164SOL    HW189339   5.724   1.227   7.559 -0.0748  1.2034 -0.5693
28164SOL    HW289340   5.758   1.336   7.659 -2.3600  0.4315  1.1028
28165SOL     OW89341   7.278   9.835   8.162 -0.0483 -0.2449 -0.0343
28165SOL    HW189342   7.267   9.873   8.249  0.6679  0.7257 -0.3572
28165SOL    HW289343   7.372   9.844   8.143 -0.3036  0.1476 -1.1696
28166SOL     OW89344   0.046   9.195   9.528 -0.1663 -0.3029 -0.7360
28166SOL    HW189345   0.082   9.241   9.604 -0.4704 -0.2520 -0.6254
28166SOL    HW289346   0.111   9.211   9.459  0.1297 -0.3846 -0.4782
28167SOL     OW89347   5.572   8.819   9.267  0.1163  0.1399  0.2954
28167SOL    HW189348   5.548   8.849   9.355  1.6435  0.1798  0.7097
28167SOL    HW289349   5.489   8.816   9.219 -0.5559  1.3573  1.3584
28168SOL     OW89350   8.739   9.343   8.766  0.2229  0.5127  0.1837
28168SOL    HW189351   8.680   9.418   8.757 -1.2279 -0.7588 -1.2833
28168SOL    HW289352   8.801   9.369   8.835 -0.2970  3.0014 -0.2324
28169SOL     OW89353   0.742   8.356   9.922  0.0032 -0.1448 -0.0585
28169SOL    HW189354   0.705   8.439   9.891  0.6098  0.5228  0.9845
28169SOL    HW289355   0.773   8.313   9.842 -1.3210  0.1221 -0.7346
28170SOL     OW89356   9.311   9.189   7.260 -0.6907  0.4616 -0.1910
28170SOL    HW189357   9.384   9.252   7.253 -0.5998  0.2001 -1.7166
28170SOL    HW289358   9.344   9.121   7.318  0.7260 -0.2274 -1.7537
28171SOL     OW89359   0.178   8.617   8.977  0.4668 -0.4229 -0.5743
28171SOL    HW189360   0.266   8.592   8.949  0.3743 -2.0814  0.5213
28171SOL    HW289361   0.166   8.571   9.060 -1.5508 -0.4366 -0.8621
28172SOL     OW89362   7.043   8.665   1.126  0.3022 -0.4537  0.0817
28172SOL    HW189363   7.032   8.713   1.209  1.0412 -1.0320  0.5196
28172SOL    HW289364   7.007   8.724   1.060  0.3875  0.3342  0.7261
28173SOL     OW89365   8.132   8.717   1.345  0.3224  0.1755  0.5219
28173SOL    HW189366   8.101   8.627   1.335  0.5889 -0.1364  2.2688
28173SOL    HW289367   8.056   8.772   1.326  0.2442 -0.3931 -0.8733
28174SOL     OW89368   9.678   0.145   1.161 -0.1689  0.1036 -0.1023
28174SOL    HW189369   9.605   0.180   1.111  1.1948 -1.3193 -3.2298
28174SOL    HW289370   9.637   0.103   1.237 -2.3911  1.4142 -0.5433
28175SOL     OW89371   9.012   1.751   9.265 -0.4360  0.3058 -0.0067
28175SOL    HW189372   8.949   1.679   9.256  3.5775 -3.2255 -1.9220
28175SOL    HW289373   9.038   1.771   9.176  3.6245 -0.7687  0.8518
28176SOL     OW89374   8.503   8.784   9.040 -0.2091 -0.2359 -0.1554
28176SOL    HW189375   8.564   8.719   9.074 -1.7681 -1.5752  0.1670
28176SOL    HW289376   8.432   8.786   9.105 -1.1346  0.3316 -1.1689
28177SOL     OW89377   7.039   8.995   8.756  0.1926  0.2475 -0.2169
28177SOL    HW189378   7.128   9.028   8.769  0.7291 -0.3613 -2.2417
28177SOL    HW289379   6.992   9.022   8.835  2.0549  0.9492  0.6800
28178SOL     OW89380   9.031   8.758   7.990 -0.0651  0.6969 -0.1376
28178SOL    HW189381   9.071   8.842   7.968  2.5162 -0.7802 -1.3023
28178SOL    HW289382   9.005   8.721   7.905  1.4080 -0.9216  0.0987
28179SOL     OW89383   8.805   9.631   8.632  0.3363 -0.3642  0.1043
28179SOL    HW189384   8.835   9.672   8.713  0.9903 -0.6085 -0.0161
28179SOL    HW289385   8.851   9.677   8.563  1.1552 -1.3512 -0.0299
28180SOL     OW89386   8.468   0.175   7.461  0.1128 -0.2074 -0.1725
28180SOL    HW189387   8.512   0.260   7.448 -1.1983  0.9298  2.4317
28180SOL    HW289388   8.525   0.112   7.417  2.6091  1.6562  0.2429
28181SOL     OW89389   6.215   0.262   0.320 -0.3289  0.0140 -0.5378
28181SOL    HW189390   6.124   0.261   0.292 -0.0233  1.1092 -1.6587
28181SOL    HW289391   6.217   0.210   0.400 -2.4593  2.4272  1.1388
28182SOL     OW89392   9.944   0.086   0.184  0.6513  0.6416  0.3552
28182SOL    HW189393   9.863   0.060   0.140 -0.0843  0.7455  1.6311
28182SOL    HW289394   9.917   0.150   0.249  1.5803 -0.2057  1.6112
28183SOL     OW89395   8.880   2.464   0.368 -0.2817  0.2693 -0.1413
28183SOL    HW189396   8.901   2.395   0.430  1.4429  0.1746 -0.7873
28183SOL    HW289397   8.787   2.479   0.379 -0.1702 -0.3670  1.8190
28184SOL     OW89398   7.513   9.633   0.449 -0.1371 -1.3935  0.3967
28184SOL    HW189399   7.571   9.708   0.457 -0.5765 -1.1880  1.9707
28184SOL    HW289400   7.458   9.653   0.373 -1.6231  0.8751  1.9896
28185SOL     OW89401   8.433   9.151   1.736 -0.3519  0.2409 -0.3512
28185SOL    HW189402   8.424   9.243   1.712  3.1629  0.4982 -0.9279
28185SOL    HW289403   8.425   9.104   1.653 -0.9818  0.0781 -0.2067
28186SOL     OW89404   9.970   8.714   8.859  0.1295  0.1360  0.2367
28186SOL    HW189405  10.051   8.666   8.875 -1.4687 -2.3887  1.0376
28186SOL    HW289406   9.949   8.695   8.768  0.0953  0.2721  0.2169
28187SOL     OW89407   6.933   0.008   0.383 -0.5282  0.0441  0.0921
28187SOL    HW189408   7.018   0.033   0.347  0.7710  0.3455  3.2086
28187SOL    HW289409   6.880   0.086   0.374  0.2980  0.6447  0.3538
28188SOL     OW89410   8.583   0.150   8.167 -0.6763  0.2442  0.8071
28188SOL    HW189411   8.606   0.165   8.076 -2.1543  2.8850  0.8322
28188SOL    HW289412   8.603   0.232   8.211  0.5967 -1.2000  3.0164
28189SOL     OW89413   8.533   9.601   8.669  0.3256  0.1583  0.1200
28189SOL    HW189414   8.510   9.676   8.613  1.5215  0.4756  0.0323
28189SOL    HW289415   8.628   9.600   8.669  0.3316 -1.8722 -0.5415
28190SOL     OW89416   5.878   7.296   0.547 -0.3747 -0.1707  0.5328
28190SOL    HW189417   5.929   7.377   0.541  0.8382 -0.9157  0.7345
28190SOL    HW289418   5.790   7.322   0.519  0.1044  1.1201  0.1646
28191SOL     OW89419   8.040   8.796   0.345 -0.1044 -0.1887  0.2287
28191SOL    HW189420   8.072   8.732   0.282  1.7824  0.8247  0.1202
28191SOL    HW289421   7.997   8.744   0.413  1.1136 -1.5449 -0.0129
28192SOL     OW89422   9.348   9.336   8.634 -0.0616  0.4327 -0.3506
28192SOL    HW189423   9.414   9.312   8.569 -1.3403 -1.1842 -1.0776
28192SOL    HW289424   9.344   9.260   8.693 -0.1286  1.1942  0.6375
28193SOL     OW89425   8.093   0.307   0.270 -0.2097 -0.5688 -0.0395
28193SOL    HW189426   8.100   0.219   0.231 -0.5530 -1.1077  1.0853
28193SOL    HW289427   8.047   0.359   0.205  2.4754 -0.4599 -1.9373
28194SOL     OW89428   9.379   9.240   0.870 -0.2963  0.0524 -0.0850
28194SOL    HW189429   9.447   9.307   0.868  0.3154 -0.5145  1.0103
28194SOL    HW289430   9.300   9.285   0.840  0.4258  0.8727 -0.7885
28195SOL     OW89431   9.385   8.985   8.714  0.1973  0.5687 -0.4791
28195SOL    HW189432   9.446   9.046   8.756  0.9468 -1.6242  1.7102
28195SOL    HW289433   9.435   8.949   8.640  0.2396  1.5336 -0.9327
28196SOL     OW89434   8.873   0.098   0.497  0.3879  0.0686 -0.6158
28196SOL    HW189435   8.924   0.060   0.568  0.1821  2.4935  0.8763
28196SOL    HW289436   8.831   0.023   0.455  1.6619 -1.5321  0.8947
28197SOL     OW89437   0.099   9.216   1.609 -0.6623  0.3349  0.4318
28197SOL    HW189438   0.102   9.310   1.621  2.4008  0.3201  0.2741
28197SOL    HW289439   0.190   9.187   1.621 -1.5339 -2.5893  0.5437
28198SOL     OW89440   8.562   9.749   0.180  0.0140 -0.0525 -0.2999
28198SOL    HW189441   8.597   9.836   0.195 -2.1418  0.5489  1.5926
28198SOL    HW289442   8.524   9.753   0.092 -1.3258  1.3823  0.3264
28199SOL     OW89443   1.607   1.347   1.613 -0.0813 -0.2714  0.4074
28199SOL    HW189444   1.682   1.357   1.673 -0.4126 -1.1129  0.9766
28199SOL    HW289445   1.559   1.272   1.648 -1.4060  0.4961  0.2711
28200SOL     OW89446   1.656   0.937   9.555 -0.1549 -0.3331 -0.1401
28200SOL    HW189447   1.679   0.999   9.625  1.0937 -0.6503 -0.2413
28200SOL    HW289448   1.622   0.861   9.601  1.5542 -0.9221  0.2158
28201SOL     OW89449   0.918   1.086   1.123  0.4596 -0.4434 -0.0525
28201SOL    HW189450   0.929   1.082   1.028 -0.0404 -0.3791 -0.1152
28201SOL    HW289451   0.931   0.996   1.152 -0.6393 -0.7039 -0.3285
28202SOL     OW89452   0.942   1.298   0.903  0.4043  0.3059 -0.3403
28202SOL    HW189453   0.964   1.389   0.920  0.2517  0.1019  1.0237
28202SOL    HW289454   0.859   1.285   0.949 -0.4049 -0.0801 -1.8758
28203SOL     OW89455   0.091   2.172   1.376 -0.3269  0.1329  0.0290
28203SOL    HW189456   0.091   2.139   1.287 -1.4229  0.4854 -0.1075
28203SOL    HW289457   0.030   2.116   1.423 -0.1315  0.2625  0.4458
28204SOL     OW89458   0.670   1.213   2.078 -0.6998  0.3098  0.6216
28204SOL    HW189459   0.606   1.147   2.053  0.2455 -0.3938 -0.0003
28204SOL    HW289460   0.750   1.188   2.030 -0.3673  1.9615  0.2929
28205SOL     OW89461   1.348   0.966   1.987 -0.3801  0.2102 -0.2609
28205SOL    HW189462   1.383   0.942   1.901 -0.1016  1.8179 -0.6197
28205SOL    HW289463   1.312   0.884   2.022  1.6471 -0.9937 -0.8803
28206SOL     OW89464   9.620   2.616   1.642  0.1947 -0.3979  0.2553
28206SOL    HW189465   9.646   2.706   1.620  0.8489 -0.6932 -0.2216
28206SOL    HW289466   9.700   2.565   1.626  0.6197 -0.6784  3.0589
28207SOL     OW89467   1.559   1.832   0.405  0.3823 -0.6457  0.1492
28207SOL    HW189468   1.614   1.830   0.483  0.1557  0.5705  0.3455
28207SOL    HW289469   1.476   1.870   0.434  0.3132 -0.1273 -0.6950
28208SOL     OW89470   9.596   2.112   1.027  0.0307 -0.3039  0.1904
28208SOL    HW189471   9.652   2.038   1.004  0.1861 -0.3963  0.8576
28208SOL    HW289472   9.657   2.184   1.043 -0.1636  0.2113 -1.3095
28209SOL     OW89473   9.862   0.555   2.854  0.1714 -0.2995 -0.7231
28209SOL    HW189474   9.951   0.581   2.879  0.1264 -1.8972  1.2626
28209SOL    HW289475   9.873   0.480   2.796  0.1423  0.2259 -1.4118
28210SOL     OW89476   9.788   9.152   1.356 -0.5668 -0.8588  0.5865
28210SOL    HW189477   9.703   9.183   1.324  0.5507  0.5868 -1.1092
28210SOL    HW289478   9.852   9.201   1.305  1.3060 -2.3703  1.4032
28211SOL     OW89479   1.934   9.724   1.120  0.2135 -0.7529  0.2668
28211SOL    HW189480   1.865   9.728   1.187 -0.4763 -0.2379 -0.4639
28211SOL    HW289481   1.960   9.815   1.106 -0.8389 -0.6876 -1.3724
28212SOL     OW89482   9.450   0.594   9.751 -0.5975  0.1133 -0.6451
28212SOL    HW189483   9.405   0.656   9.807 -1.1344 -1.5251  0.7775
28212SOL    HW289484   9.385   0.569   9.685 -0.5956  0.5288 -0.8062
28213SOL     OW89485   9.155   0.234   1.010 -0.0889 -0.6597 -0.1458
28213SOL    HW189486   9.246   0.249   1.035  0.4864 -0.7884 -2.0858
28213SOL    HW289487   9.121   0.176   1.078  1.2309 -0.5076  0.6693
28214SOL     OW89488   9.852   1.345   2.263 -0.3086 -0.3150  0.1241
28214SOL    HW189489   9.924   1.282   2.268 -0.8859 -1.0844 -1.0721
28214SOL    HW289490   9.807   1.337   2.347 -1.3250 -2.6720 -0.5879
28215SOL     OW89491   8.682   0.749   1.037  0.3855  0.1582  0.4502
28215SOL    HW189492   8.744   0.775   0.968  1.6419 -1.3012  1.0059
28215SOL    HW289493   8.616   0.697   0.991 -0.5020  1.7772 -0.1581
28216SOL     OW89494   0.673   3.016   1.069  0.0480 -0.3994 -0.0689
28216SOL    HW189495   0.600   3.067   1.104  0.1693 -1.3424  1.6134
28216SOL    HW289496   0.637   2.928   1.057  0.7308 -0.7078  0.1436
28217SOL     OW89497   0.727   0.808   9.928  0.1328 -0.1483  0.1985
28217SOL    HW189498   0.789   0.795   9.856  1.3709 -0.5228  1.3175
28217SOL    HW289499   0.645   0.833   9.885  1.2290  1.0264 -1.2702
28218SOL     OW89500   9.271   2.207   0.264  0.0999  0.9310  0.1916
28218SOL    HW189501   9.333   2.211   0.337  0.1918 -0.9268  0.2542
28218SOL    HW289502   9.327   2.197   0.187 -0.0932 -0.3915  0.2124
28219SOL     OW89503   0.735   0.161   1.425 -0.0044 -0.2552  0.0475
28219SOL    HW189504   0.651   0.115   1.434 -0.1808  0.2425  0.9520
28219SOL    HW289505   0.710   0.253   1.415  0.2857 -0.4495 -2.9327
28220SOL     OW89506   8.047   0.109   2.172 -0.4872 -0.3841  0.0820
28220SOL    HW189507   8.105   0.125   2.097  0.3054  1.0598  0.9888
28220SOL    HW289508   7.978   0.053   2.137  0.4800 -0.6469 -1.4603
28221SOL     OW89509   8.583   0.033   0.130  0.5103  0.5993  0.0588
28221SOL    HW189510   8.497   0.049   0.091 -0.8399  1.0798  3.0636
28221SOL    HW289511   8.623   0.120   0.137 -0.2578  0.8343  1.8672
28222SOL     OW89512   9.327   0.845   1.159  0.6416 -0.4397  0.0401
28222SOL    HW189513   9.383   0.920   1.140  2.0581 -1.2309  1.0373
28222SOL    HW289514   9.385   0.769   1.151 -0.2462 -1.2573  1.2379
28223SOL     OW89515   0.832   1.890   0.883 -0.4228  0.2506 -0.1093
28223SOL    HW189516   0.841   1.797   0.904  0.8068 -0.1174 -2.0703
28223SOL    HW289517   0.785   1.891   0.799 -2.1479  1.4943  0.8481
28224SOL     OW89518   8.535   8.033   1.459  0.4832  0.2466 -0.1204
28224SOL    HW189519   8.578   7.948   1.468  0.2712  0.2015  0.4538
28224SOL    HW289520   8.560   8.081   1.538  0.3092  0.5892 -0.2741
28225SOL     OW89521   9.427   0.350   1.545 -0.8261  0.0952 -0.8005
28225SOL    HW189522   9.503   0.315   1.592 -0.3646 -0.7943 -2.1840
28225SOL    HW289523   9.353   0.300   1.578 -0.5182 -0.4488 -0.9245
28226SOL     OW89524   8.496   9.013   8.204  0.0848 -0.2483 -0.0331
28226SOL    HW189525   8.563   9.079   8.190  0.1963 -0.1790  0.7632
28226SOL    HW289526   8.443   9.013   8.125 -0.3118  1.2495  0.2271
28227SOL     OW89527   9.251   0.573   1.285 -0.6353 -0.2902 -0.2387
28227SOL    HW189528   9.257   0.586   1.379 -0.5328  1.2834 -0.4563
28227SOL    HW289529   9.326   0.518   1.264 -0.2956 -0.1172  0.5035
28228SOL     OW89530   1.413   0.350   0.470 -0.0066  0.3132 -0.0871
28228SOL    HW189531   1.408   0.399   0.551  0.8929 -0.8982  0.7363
28228SOL    HW289532   1.352   0.277   0.482 -0.0988  0.3031 -0.6155
28229SOL     OW89533   0.123   1.463   0.938 -0.5999 -0.2199  0.4006
28229SOL    HW189534   0.103   1.551   0.906  1.6874  0.1897 -0.0140
28229SOL    HW289535   0.145   1.476   1.031 -0.1035 -0.3257  0.2995
28230SOL     OW89536   8.792   1.128   1.555 -0.0483 -0.1582  0.2258
28230SOL    HW189537   8.830   1.199   1.503  2.8496 -1.0629  1.0448
28230SOL    HW289538   8.770   1.061   1.490  0.4244  0.0799 -0.1839
28231SOL     OW89539   0.223   0.821   2.984  0.3446  0.0505  0.0533
28231SOL    HW189540   0.191   0.736   2.955  0.1759  0.1778 -0.1333
28231SOL    HW289541   0.196   0.827   3.076  0.4348 -0.1348  0.0927
28232SOL     OW89542   1.406   1.382   2.368 -0.3237  0.1705 -0.0798
28232SOL    HW189543   1.344   1.361   2.298 -0.3482  0.2558 -0.0831
28232SOL    HW289544   1.457   1.456   2.335  0.0746 -0.1763 -0.2538
28233SOL     OW89545   8.607   1.699   1.269  0.4874 -0.5516 -0.6903
28233SOL    HW189546   8.667   1.713   1.342  0.5053  1.1857 -1.0005
28233SOL    HW289547   8.523   1.734   1.300  0.1424 -1.1039 -0.9899
28234SOL     OW89548   9.827   9.168   1.629  0.2621 -0.3673  0.2510
28234SOL    HW189549   9.800   9.180   1.538  0.1768 -1.1276  0.1690
28234SOL    HW289550   9.923   9.168   1.626  0.2689 -1.5773 -0.0183
28235SOL     OW89551   7.192   0.811   1.125 -0.3644  0.0855 -0.0885
28235SOL    HW189552   7.277   0.775   1.100 -0.6863 -0.3018 -0.6335
28235SOL    HW289553   7.168   0.763   1.205 -0.5364 -0.5285 -0.5034
28236SOL     OW89554   9.570   1.239   0.686  0.2890 -0.1722  0.4277
28236SOL    HW189555   9.570   1.145   0.702 -0.2654 -0.0560  1.1431
28236SOL    HW289556   9.561   1.247   0.591  2.5350 -0.8619  0.1301
28237SOL     OW89557   8.901   9.467   0.284  0.0755  0.4888  0.0250
28237SOL    HW189558   8.985   9.454   0.240  1.2637 -1.2593  2.7009
28237SOL    HW289559   8.894   9.394   0.346 -2.6927  1.4627  0.9367
28238SOL     OW89560   8.677   1.858   0.414 -0.2026  0.7794  0.1464
28238SOL    HW189561   8.621   1.792   0.455 -0.6061  1.3814  0.5764
28238SOL    HW289562   8.647   1.941   0.451  1.7289  1.0165  1.2544
28239SOL     OW89563   9.566   2.490   0.758 -0.2588 -0.2974  0.4168
28239SOL    HW189564   9.588   2.469   0.849  1.9762  3.6042  0.8646
28239SOL    HW289565   9.475   2.461   0.749 -0.3071 -1.3812  3.6695
28240SOL     OW89566   8.844   9.648   0.515 -0.1712  0.1443  0.1414
28240SOL    HW189567   8.875   9.730   0.478  1.1930 -0.5469 -0.2566
28240SOL    HW289568   8.848   9.585   0.443 -2.1599 -0.0647  0.1635
28241SOL     OW89569   0.538   1.432   1.956  0.2208  0.1554 -0.1415
28241SOL    HW189570   0.463   1.464   2.006  0.0745 -0.1713 -0.1533
28241SOL    HW289571   0.560   1.348   1.995 -1.4333 -1.2740 -2.1622
28242SOL     OW89572   8.100   9.556   2.662  0.3770 -0.5125  0.0359
28242SOL    HW189573   8.051   9.532   2.583 -0.9787 -0.4623  0.8408
28242SOL    HW289574   8.125   9.472   2.701  0.0704 -0.5599  0.1376
28243SOL     OW89575   0.807   1.828   0.210 -0.0939 -0.2549 -0.2140
28243SOL    HW189576   0.739   1.813   0.145 -0.2664 -1.2997  0.2090
28243SOL    HW289577   0.873   1.762   0.192  2.2008  2.4946 -2.4398
28244SOL     OW89578   8.365   0.485   2.106 -0.4964 -0.2201  0.4600
28244SOL    HW189579   8.454   0.510   2.081  0.2332 -5.5564 -3.1380
28244SOL    HW289580   8.371   0.462   2.199  1.9471 -0.7112  0.2071
28245SOL     OW89581   9.154   1.682   1.596  0.3044 -0.2584  0.0498
28245SOL    HW189582   9.154   1.609   1.659  0.4302 -0.0993  0.2348
28245SOL    HW289583   9.161   1.760   1.651 -0.2140 -0.0865 -0.1311
28246SOL     OW89584   9.532   0.416   1.298 -0.4874 -0.0237  0.3758
28246SOL    HW189585   9.485   0.383   1.375 -1.5926  2.1154  0.6466
28246SOL    HW289586   9.625   0.411   1.324 -0.7750 -0.5265  1.3509
28247SOL     OW89587   8.845   3.211   1.389  0.5140 -0.4144  0.0167
28247SOL    HW189588   8.861   3.227   1.296  0.6089  1.4048  0.3302
28247SOL    HW289589   8.914   3.259   1.433 -0.6137  0.2245  1.0952
28248SOL     OW89590   0.342   2.457   1.507  0.1063  0.6667 -0.3648
28248SOL    HW189591   0.411   2.392   1.488 -0.4934  0.2821 -1.2986
28248SOL    HW289592   0.297   2.423   1.584  0.2289  0.3235 -0.4436
28249SOL     OW89593   9.293   3.223   4.310  0.5089  0.2713 -0.0441
28249SOL    HW189594   9.228   3.249   4.245 -0.0077 -0.4966  0.1672
28249SOL    HW289595   9.328   3.306   4.343  1.2028  0.6746 -1.7204
28250SOL     OW89596   8.847   9.331   9.035  0.2732  1.2467 -0.4775
28250SOL    HW189597   8.752   9.332   9.034  0.2225 -1.0660  0.1251
28250SOL    HW289598   8.870   9.320   9.127  1.1363  1.6794 -0.6302
28251SOL     OW89599   9.917   2.379   2.115  0.4983  0.3221 -0.0329
28251SOL    HW189600   9.994   2.390   2.171  0.1639 -0.0658  0.5103
28251SOL    HW289601   9.897   2.286   2.119  0.9204  0.1664 -1.4140
28252SOL     OW89602   8.924   0.811   0.542 -0.2355 -0.1335  0.0099
28252SOL    HW189603   8.942   0.900   0.509  0.3485  0.9360  3.0481
28252SOL    HW289604   8.882   0.767   0.469 -0.6967  2.7104 -1.5275
28253SOL     OW89605   2.019   1.029   0.979 -0.2385  0.2748 -0.0465
28253SOL    HW189606   2.044   1.086   0.907  2.7721 -1.3697 -0.3783
28253SOL    HW289607   2.083   1.047   1.048 -1.3577 -0.2044  1.1438
28254SOL     OW89608   0.847   3.203   1.206  0.5149  0.7107  0.2670
28254SOL    HW189609   0.788   3.260   1.255  0.4006 -2.5764  4.1586
28254SOL    HW289610   0.791   3.134   1.172  1.4998 -0.1132  0.3115
28255SOL     OW89611   9.820   0.532   1.039 -0.1698  0.6893 -0.7721
28255SOL    HW189612   9.899   0.553   0.989 -0.1598  2.5431 -0.0148
28255SOL    HW289613   9.842   0.554   1.130 -0.6521 -1.3407 -0.1386
28256SOL     OW89614   8.726   0.322   1.418 -0.1708 -0.1513  0.4860
28256SOL    HW189615   8.658   0.350   1.478 -0.1316  1.0169 -0.0130
28256SOL    HW289616   8.733   0.392   1.354  1.9489  0.0704  0.8989
28257SOL     OW89617   9.540   1.059   9.801 -0.6559 -0.0152 -0.7451
28257SOL    HW189618   9.535   1.136   9.858  1.0115 -0.8762  0.6136
28257SOL    HW289619   9.627   1.022   9.819 -0.1525 -0.4137 -3.6990
28258SOL     OW89620   9.355   1.395   1.183  0.2444  0.2533 -0.5133
28258SOL    HW189621   9.331   1.333   1.115  1.1139  0.7904 -1.3091
28258SOL    HW289622   9.401   1.465   1.137  1.7206  0.1366  0.7388
28259SOL     OW89623   8.647   9.777   1.192  0.0278  0.0420  0.2996
28259SOL    HW189624   8.591   9.792   1.268 -0.0794 -0.3973  0.3068
28259SOL    HW289625   8.669   9.865   1.161  1.6598  0.2760  1.9915
28260SOL     OW89626   8.642   9.889   9.210 -0.0995 -0.0312 -0.0698
28260SOL    HW189627   8.621   9.884   9.303  1.9625  1.9572  0.5371
28260SOL    HW289628   8.602   9.810   9.172 -4.1463  1.0003  1.8130
28261SOL     OW89629   9.505   9.908   9.896  0.4347 -0.4315 -0.2318
28261SOL    HW189630   9.475   9.821   9.924 -0.9119 -0.0668 -0.5009
28261SOL    HW289631   9.448   9.969   9.944  0.0883  0.2615 -1.5113
28262SOL     OW89632   9.144   1.525   2.527  0.7006 -0.2999 -0.5130
28262SOL    HW189633   9.055   1.500   2.502  1.1056 -2.1244 -0.1387
28262SOL    HW289634   9.196   1.446   2.516  1.7402  0.0032  1.8960
28263SOL     OW89635   9.192   9.977   3.427  0.0765 -0.5200  0.1593
28263SOL    HW189636   9.143   9.975   3.509  0.7815 -3.4530  0.5992
28263SOL    HW289637   9.278  10.013   3.452 -0.1561 -0.1651  0.4479
28264SOL     OW89638   9.746   1.024   0.515 -0.4315  0.1571  0.4442
28264SOL    HW189639   9.734   0.930   0.499 -0.6242  0.3012 -0.2638
28264SOL    HW289640   9.661   1.063   0.497 -0.5882  0.3588  1.6040
28265SOL     OW89641   9.688   0.010   3.547 -0.0248 -0.1291 -0.2933
28265SOL    HW189642   9.622   0.071   3.581  0.1405 -0.0771 -0.0604
28265SOL    HW289643   9.756   0.067   3.512  0.3239 -0.1779  0.3016
28266SOL     OW89644   9.427   2.669   2.101 -0.2701 -0.5758 -0.2267
28266SOL    HW189645   9.425   2.613   2.024 -0.3260 -1.8223  0.6788
28266SOL    HW289646   9.507   2.644   2.147 -1.4821 -1.5567  1.3876
28267SOL     OW89647   9.428   0.107   3.633 -0.1125 -0.2223  0.4535
28267SOL    HW189648   9.370   0.181   3.647  0.8323  0.5073  0.6084
28267SOL    HW289649   9.486   0.107   3.709 -1.1197 -2.1001  1.2441
28268SOL     OW89650   9.387   1.073   2.408 -0.6534  0.0043 -0.0809
28268SOL    HW189651   9.439   1.114   2.478 -1.2817  0.6208  0.0293
28268SOL    HW289652   9.414   1.119   2.329  0.7326 -1.3135 -0.3989
28269SOL     OW89653   9.971   0.684   3.138 -0.5837 -0.3084 -0.1858
28269SOL    HW189654  10.045   0.718   3.188  0.1556  0.5248 -1.8067
28269SOL    HW289655   9.985   0.589   3.136  1.9116  0.0432 -2.6668
28270SOL     OW89656   0.301   0.408   2.428  0.2736  0.8478  0.3719
28270SOL    HW189657   0.375   0.374   2.478  0.5944 -0.2753 -0.8413
28270SOL    HW289658   0.292   0.348   2.354 -1.7464  1.0731  0.4078
28271SOL     OW89659   8.749   0.781   2.100 -0.3667 -0.1455  0.2607
28271SOL    HW189660   8.832   0.762   2.056 -0.1330  2.9850 -0.7591
28271SOL    HW289661   8.744   0.876   2.102 -4.0453 -0.2684  0.1123
28272SOL     OW89662   9.245   0.871   1.438 -0.6731 -0.5763 -1.0385
28272SOL    HW189663   9.237   0.860   1.343  0.0766  0.8983 -1.2957
28272SOL    HW289664   9.265   0.784   1.471 -0.3286 -0.9916 -2.3031
28273SOL     OW89665   0.234   1.920   3.596 -0.3489  0.5201  0.0206
28273SOL    HW189666   0.215   1.865   3.672 -0.3575  0.2729 -0.1617
28273SOL    HW289667   0.290   1.990   3.632 -0.0425  0.1967  0.1838
28274SOL     OW89668   1.269   8.383   3.383  0.9229  0.2695 -0.0116
28274SOL    HW189669   1.294   8.291   3.391  0.9249  0.2691 -0.0282
28274SOL    HW289670   1.253   8.395   3.289 -0.7729 -0.1461  0.2009
28275SOL     OW89671   9.495   9.673   3.246 -0.0757 -0.5454 -0.5231
28275SOL    HW189672   9.473   9.580   3.235 -0.3766 -0.2719 -2.3445
28275SOL    HW289673   9.535   9.698   3.163  0.7474  0.7630  0.2553
28276SOL     OW89674   9.223   2.502   3.120 -0.6526 -0.5502 -0.3311
28276SOL    HW189675   9.142   2.456   3.142 -0.4218 -0.4305  0.7786
28276SOL    HW289676   9.276   2.498   3.199  0.9899 -1.7801 -1.4632
28277SOL     OW89677   9.115   9.727   1.252  0.1678 -0.2655 -0.2490
28277SOL    HW189678   9.116   9.695   1.162  0.3786 -0.5244 -0.1556
28277SOL    HW289679   9.206   9.750   1.270  0.0839  0.0250 -0.1838
28278SOL     OW89680   9.632   2.305   3.498  0.2612 -0.1221 -0.2943
28278SOL    HW189681   9.711   2.257   3.472  1.2490  0.3193  1.8273
28278SOL    HW289682   9.580   2.241   3.547  0.3672  0.2583  0.3075
28279SOL     OW89683   9.823   2.551   1.441  0.2993 -0.0621  0.2107
28279SOL    HW189684   9.873   2.518   1.516 -1.0501 -1.3044  0.5900
28279SOL    HW289685   9.882   2.539   1.366  1.0005 -0.4609  0.8159
28280SOL     OW89686   9.083   1.578   3.610 -0.4768  0.5812  0.4785
28280SOL    HW189687   9.052   1.493   3.643 -1.1768  0.8694  0.5641
28280SOL    HW289688   9.163   1.556   3.562 -0.6104 -0.1226  0.5619
28281SOL     OW89689   9.580   0.836   2.098 -0.7012  0.6422  0.0365
28281SOL    HW189690   9.637   0.822   2.022 -1.4175  0.9074 -0.5629
28281SOL    HW289691   9.511   0.895   2.065 -0.2909  1.8134  1.2505
28282SOL     OW89692   8.915   0.704   1.719  0.5625  0.2365  0.4904
28282SOL    HW189693   8.948   0.732   1.804  1.3284 -0.2379  0.3551
28282SOL    HW289694   8.820   0.701   1.730  0.6343  0.4950  1.2252
28283SOL     OW89695   8.387   0.334   1.791 -0.4045  0.1286  0.3129
28283SOL    HW189696   8.398   0.389   1.869  0.0829 -1.0141  1.0550
28283SOL    HW289697   8.439   0.378   1.724  2.7236 -1.1432  1.7706
28284SOL     OW89698   9.628   0.633   1.663 -0.1245  0.3461  0.3650
28284SOL    HW189699   9.666   0.545   1.660 -0.8088  0.0526  0.3061
28284SOL    HW289700   9.666   0.672   1.742  0.3051  0.0604  0.3033
28285SOL     OW89701   1.161   0.637   2.521  0.3483  0.8535  0.4780
28285SOL    HW189702   1.100   0.673   2.457  1.0268  1.9650  0.4522
28285SOL    HW289703   1.209   0.713   2.554 -0.5181  0.3956  2.8674
28286SOL     OW89704   0.367   0.476   1.408 -0.1074 -0.4318 -0.5452
28286SOL    HW189705   0.319   0.486   1.490  0.4577  1.5794 -0.4332
28286SOL    HW289706   0.337   0.393   1.373 -1.6384 -0.5043  0.8581
28287SOL     OW89707   8.688   0.052   2.212  0.2138 -0.0070  0.3901
28287SOL    HW189708   8.614   0.110   2.233 -0.5625 -1.1852  0.9409
28287SOL    HW289709   8.761   0.088   2.262 -0.8234 -0.8297  2.5730
28288SOL     OW89710   9.464   1.988   1.739 -0.2395 -0.6606 -0.0349
28288SOL    HW189711   9.471   1.898   1.768 -0.2576 -0.6169  0.1063
28288SOL    HW289712   9.375   2.014   1.764  0.1251 -0.2736  0.8651
28289SOL     OW89713   1.152   3.084   4.200 -0.5448 -0.3483  0.1422
28289SOL    HW189714   1.195   3.161   4.162 -1.5344  2.3132  4.1491
28289SOL    HW289715   1.071   3.074   4.149 -0.1599  0.9353 -0.7347
28290SOL     OW89716   9.922   1.090   1.693  0.7300 -0.2125  0.5134
28290SOL    HW189717   9.862   1.017   1.678  0.1027  0.5360 -0.6996
28290SOL    HW289718   9.866   1.162   1.721  1.2400  0.0693  0.8108
28291SOL     OW89719   0.713   0.326   2.505 -0.3593 -0.0962  0.2236
28291SOL    HW189720   0.780   0.276   2.552  0.3801  1.2949  0.6996
28291SOL    HW289721   0.677   0.265   2.441  1.5312 -0.8209 -0.1880
28292SOL     OW89722   0.479   2.763   2.657  0.1466 -0.1471 -0.2855
28292SOL    HW189723   0.520   2.677   2.653  0.5227  0.0415 -0.6088
28292SOL    HW289724   0.453   2.774   2.748  1.2194 -0.0943  0.0188
28293SOL     OW89725   8.593   0.561   1.954  0.3747  0.3010 -0.4069
28293SOL    HW189726   8.683   0.531   1.967  0.4997  0.7077 -0.3244
28293SOL    HW289727   8.596   0.610   1.871  0.1374 -0.0580 -0.6250
28294SOL     OW89728   8.541   0.675   2.939  0.6460 -0.4767 -0.0962
28294SOL    HW189729   8.592   0.755   2.925  1.5497 -1.0330 -0.0244
28294SOL    HW289730   8.523   0.642   2.851 -2.4277  1.4680 -0.2464
28295SOL     OW89731   9.972   9.526   2.638 -0.0234  0.1360  0.2074
28295SOL    HW189732  10.063   9.552   2.656  0.0849 -1.0830  1.4804
28295SOL    HW289733   9.975   9.431   2.633 -1.0892  0.1458 -0.5944
28296SOL     OW89734   9.206   8.887   3.007  0.1296 -0.4308 -0.9357
28296SOL    HW189735   9.301   8.891   3.000  0.2028 -1.6404 -0.7130
28296SOL    HW289736   9.181   8.809   2.957 -0.5581 -1.2591  0.6601
28297SOL     OW89737   0.134   9.795   3.356  0.3629  0.0924 -0.1575
28297SOL    HW189738   0.097   9.783   3.268  0.4271 -2.1723  0.0910
28297SOL    HW289739   0.070   9.755   3.414  1.7836 -1.1723  0.5520
28298SOL     OW89740   0.144   0.559   4.497 -0.3095  0.1660 -0.5140
28298SOL    HW189741   0.228   0.587   4.462  1.0334  0.1715  2.5847
28298SOL    HW289742   0.135   0.468   4.467 -0.3760  0.9169 -2.8675
28299SOL     OW89743   0.226   0.572   2.642 -0.1885 -0.3986  0.5533
28299SOL    HW189744   0.156   0.618   2.595  0.4397 -0.2440 -0.2364
28299SOL    HW289745   0.245   0.496   2.587 -0.1574 -0.7719  1.0790
28300SOL     OW89746   8.393   0.866   2.123 -0.4976 -0.0072  0.0404
28300SOL    HW189747   8.357   0.815   2.051 -0.6740 -2.1524  1.5849
28300SOL    HW289748   8.324   0.865   2.190 -0.1970  1.6274  0.3847
28301SOL     OW89749   9.289   2.461   0.851  0.2295  0.3888  0.1044
28301SOL    HW189750   9.232   2.407   0.796  1.6163 -0.5502 -0.4553
28301SOL    HW289751   9.232   2.531   0.883 -0.9423  0.1500 -1.3784
28302SOL     OW89752   0.308   1.050   1.874  0.7358 -0.0747  0.0208
28302SOL    HW189753   0.369   1.041   1.801 -0.2192 -0.9778 -0.6877
28302SOL    HW289754   0.318   0.969   1.924 -0.4472 -0.5847 -0.5500
28303SOL     OW89755   9.210   0.916   3.809 -0.0619  0.6191  0.7810
28303SOL    HW189756   9.138   0.966   3.847 -0.6842  0.8946 -0.7204
28303SOL    HW289757   9.170   0.835   3.779  0.1441  0.9717 -0.4892
28304SOL     OW89758   9.128   0.614   2.334 -0.2584 -0.0182 -0.2729
28304SOL    HW189759   9.104   0.707   2.329  0.1178  0.0192 -1.4411
28304SOL    HW289760   9.052   0.572   2.375 -0.3067  0.8420  0.5511
28305SOL     OW89761   9.027   1.061   3.938 -0.2950  0.4169 -0.4453
28305SOL    HW189762   8.976   1.082   4.016  0.4316 -1.3367  0.5223
28305SOL    HW289763   8.961   1.040   3.872 -0.8766  0.3510  0.1507
28306SOL     OW89764   9.195   1.169   2.980 -1.0628 -0.0739  0.2168
28306SOL    HW189765   9.281   1.186   3.018 -0.8918 -0.9314  0.2160
28306SOL    HW289766   9.137   1.232   3.023 -0.4579  0.4387  0.2927
28307SOL     OW89767   0.566   1.786   2.726 -0.3805  0.1542  0.1273
28307SOL    HW189768   0.582   1.692   2.735 -1.0466 -0.1765 -1.8272
28307SOL    HW289769   0.651   1.826   2.744  0.7602 -1.0651 -2.2409
28308SOL     OW89770   0.434   2.875   2.282  0.5235 -0.2969 -0.1409
28308SOL    HW189771   0.355   2.928   2.290  0.2894 -0.8425  1.3259
28308SOL    HW289772   0.463   2.888   2.191 -2.0064 -1.1714 -1.1102
28309SOL     OW89773   0.463   2.380   4.776  0.4175 -0.2156 -0.4244
28309SOL    HW189774   0.393   2.328   4.735  0.9136 -1.4172  0.2271
28309SOL    HW289775   0.515   2.316   4.824  2.4052  0.5785 -1.4843
28310SOL     OW89776   8.787   9.383   3.185  0.6225 -0.2315  0.2186
28310SOL    HW189777   8.880   9.405   3.184  0.4463  0.5221  0.6046
28310SOL    HW289778   8.747   9.447   3.244 -0.2913  0.0303 -0.6662
28311SOL     OW89779   0.003   1.715   2.351  0.5761 -0.1076  0.3883
28311SOL    HW189780  -0.011   1.662   2.272 -0.7397  2.2316 -1.0129
28311SOL    HW289781  -0.018   1.656   2.424  0.3593 -1.8720 -1.0631
28312SOL     OW89782   0.752   0.281   1.977  0.3823  0.5233  0.2341
28312SOL    HW189783   0.817   0.211   1.980 -0.6096 -0.3605  1.6971
28312SOL    HW289784   0.668   0.236   1.980 -0.2769  1.7555  0.7378
28313SOL     OW89785   0.477   0.727   2.568  0.5473  0.0756 -0.7366
28313SOL    HW189786   0.386   0.696   2.578  0.8180 -0.6833 -0.6175
28313SOL    HW289787   0.469   0.809   2.520 -0.2625  0.3415 -0.1568
28314SOL     OW89788   9.120   0.607   3.975  0.3021 -0.0713  0.1876
28314SOL    HW189789   9.102   0.561   3.893 -0.5508  2.0970 -0.9125
28314SOL    HW289790   9.170   0.546   4.027  1.1737 -1.3841 -2.1108
28315SOL     OW89791   9.395   0.433   3.914 -0.1041 -0.1626 -0.2594
28315SOL    HW189792   9.376   0.469   3.828 -1.0945 -1.8919 -0.7834
28315SOL    HW289793   9.444   0.352   3.897  2.2841  0.9751  0.9032
28316SOL     OW89794   9.457   0.362   1.868 -0.1340  0.0600 -0.0640
28316SOL    HW189795   9.542   0.359   1.914  0.4368  0.4970 -1.0744
28316SOL    HW289796   9.477   0.333   1.779 -0.7131  1.8273 -0.7913
28317SOL     OW89797   9.389   0.134   1.341 -0.2143 -0.5027  0.4790
28317SOL    HW189798   9.327   0.123   1.413  1.3781 -2.8926  1.5703
28317SOL    HW289799   9.475   0.120   1.382  0.6684 -2.8233 -1.9900
28318SOL     OW89800   0.700   1.234   4.493 -0.2845 -0.5249 -0.5209
28318SOL    HW189801   0.638   1.307   4.497  0.5504  0.1402  0.7549
28318SOL    HW289802   0.714   1.210   4.585  3.1019  0.8607 -0.5769
28319SOL     OW89803   9.157   1.098   4.285 -0.3422 -0.2968 -0.7663
28319SOL    HW189804   9.217   1.078   4.357 -3.3948  0.1239  1.9897
28319SOL    HW289805   9.101   1.020   4.278 -1.4841  0.5470 -1.2087
28320SOL     OW89806   9.897   0.848   2.917 -0.1249  0.0187  0.3532
28320SOL    HW189807   9.924   0.795   2.993 -0.4165  0.9891  1.1388
28320SOL    HW289808   9.822   0.801   2.882  0.7469 -1.0867 -0.0615
28321SOL     OW89809   8.328   9.087   4.094  0.3157 -0.7531 -0.0770
28321SOL    HW189810   8.358   9.042   4.173  0.1825  2.1814  1.7344
28321SOL    HW289811   8.406   9.094   4.039  1.1430 -0.1094  1.1520
28322SOL     OW89812   7.835   1.868   3.250  0.2900 -0.0549 -0.3860
28322SOL    HW189813   7.887   1.792   3.276  0.3810 -0.4516 -1.7386
28322SOL    HW289814   7.859   1.885   3.159  0.2294  1.5677 -0.1148
28323SOL     OW89815   8.813   0.605   3.391  0.0733  0.1936  0.0379
28323SOL    HW189816   8.807   0.581   3.484 -0.2805  2.0720  0.5259
28323SOL    HW289817   8.899   0.575   3.364  0.1969 -0.3371  0.9983
28324SOL     OW89818   9.771   2.791   2.945 -0.2341 -0.0904 -0.5226
28324SOL    HW189819   9.844   2.852   2.947 -0.6931  0.4672  2.6353
28324SOL    HW289820   9.695   2.845   2.972 -1.3791 -1.1517 -1.5837
28325SOL     OW89821   9.683   0.301   3.374 -0.2328 -0.6516  0.1381
28325SOL    HW189822   9.648   0.331   3.458 -0.1237  0.3730 -0.1802
28325SOL    HW289823   9.766   0.259   3.395  1.4152  2.5105  0.1896
28326SOL     OW89824   8.976   1.646   0.728  0.2367  0.6782 -0.0459
28326SOL    HW189825   8.954   1.722   0.674  1.0154 -0.7539 -2.4317
28326SOL    HW289826   8.950   1.570   0.676 -1.1583 -0.7220  2.5849
28327SOL     OW89827   9.695   0.688   3.975  0.1812 -0.0079  0.0788
28327SOL    HW189828   9.738   0.661   3.894 -2.4975 -1.9271 -0.7522
28327SOL    HW289829   9.629   0.751   3.947 -1.1311 -1.1015  0.6724
28328SOL     OW89830   0.762   9.878   4.065  0.0130 -0.2832  0.2499
28328SOL    HW189831   0.739   9.968   4.087  0.6520  0.2289 -1.0780
28328SOL    HW289832   0.678   9.832   4.059 -0.2741  0.0518  1.6176
28329SOL     OW89833   9.285   0.141   4.326  0.3002  0.5548  0.0564
28329SOL    HW189834   9.344   0.181   4.262 -0.9788  0.3498 -1.2793
28329SOL    HW289835   9.324   0.161   4.411  2.7422 -0.2918 -0.8141
28330SOL     OW89836   0.930   0.072   4.838  0.3638 -0.0223 -0.2597
28330SOL    HW189837   1.019   0.038   4.849  1.4528  1.7173 -3.1359
28330SOL    HW289838   0.932   0.159   4.878  0.0630  0.1454 -0.5975
28331SOL     OW89839   9.151   1.196   5.594 -0.3541  0.4733 -0.7752
28331SOL    HW189840   9.240   1.215   5.625 -0.5239  1.0262 -0.6207
28331SOL    HW289841   9.104   1.166   5.672 -0.6911  1.5482 -0.5525
28332SOL     OW89842   9.690   0.773   4.973 -0.7316 -0.1002  0.7143
28332SOL    HW189843   9.624   0.784   4.904  0.7101 -1.0092 -0.8403
28332SOL    HW289844   9.704   0.861   5.007 -0.0064  0.7018 -1.5429
28333SOL     OW89845   9.272   9.409   6.254 -0.2680 -0.1122 -0.3989
28333SOL    HW189846   9.177   9.394   6.252 -0.2620  0.0038 -1.6141
28333SOL    HW289847   9.308   9.341   6.198  0.3640 -0.0518 -0.0666
28334SOL     OW89848   9.634   1.802   4.422  0.5122 -0.2635  0.7167
28334SOL    HW189849   9.591   1.803   4.508 -0.5525  0.1963  0.1849
28334SOL    HW289850   9.693   1.878   4.425 -1.4489  1.3368  0.0994
28335SOL     OW89851   9.539   1.805   5.637  0.2608 -0.3421  0.5762
28335SOL    HW189852   9.487   1.866   5.584  1.4619 -1.6929 -2.2405
28335SOL    HW289853   9.491   1.723   5.632 -0.0991 -0.2611  2.4057
28336SOL     OW89854   8.714   0.770   4.460  0.6591  0.4940 -0.1666
28336SOL    HW189855   8.796   0.749   4.415  0.9461  1.5523 -0.1564
28336SOL    HW289856   8.742   0.798   4.547  0.2856  0.9091 -0.1833
28337SOL     OW89857   0.485   2.854   5.040  0.5097  0.1267 -0.3911
28337SOL    HW189858   0.421   2.849   4.970 -1.4808  0.9173  1.3166
28337SOL    HW289859   0.487   2.767   5.079  2.4707 -0.6375 -2.1176
28338SOL     OW89860   9.439   2.661   3.270 -0.4426  0.1259  0.0167
28338SOL    HW189861   9.369   2.721   3.244 -0.0482 -1.0127 -3.9565
28338SOL    HW289862   9.395   2.577   3.283 -0.4114  0.3621  1.7977
28339SOL     OW89863   9.733   0.957   4.699 -0.3986 -0.3409 -0.4346
28339SOL    HW189864   9.768   1.024   4.757 -0.3887 -1.2657  0.6340
28339SOL    HW289865   9.796   0.951   4.628  0.7987 -0.8407  0.6537
28340SOL     OW89866   9.671   1.303   4.754  0.3634 -0.1817 -0.1545
28340SOL    HW189867   9.625   1.295   4.670  0.2927  0.0196 -0.1350
28340SOL    HW289868   9.744   1.241   4.747  0.2888 -0.2531 -0.3176
28341SOL     OW89869   0.267   0.975   5.159 -0.5626 -0.3814 -0.0403
28341SOL    HW189870   0.263   0.962   5.064 -1.6988  1.3240 -0.2427
28341SOL    HW289871   0.357   0.953   5.182 -0.1137 -0.2514 -1.5920
28342SOL     OW89872   9.964   1.395   4.922 -0.0134  0.6008  0.2006
28342SOL    HW189873   9.910   1.458   4.969  1.8278 -0.0335  3.2603
28342SOL    HW289874  10.031   1.448   4.879 -0.6883  1.0350 -0.3248
28343SOL     OW89875   0.299   0.021   4.522  0.3748  0.3004 -0.2115
28343SOL    HW189876   0.349  -0.032   4.584 -0.3905  0.0366  0.1887
28343SOL    HW289877   0.325  -0.012   4.436 -0.6517 -1.2527  0.0528
28344SOL     OW89878   0.985   1.748   5.099 -0.0170  0.3108  0.2777
28344SOL    HW189879   1.012   1.731   5.009  1.1632  2.1251  0.2613
28344SOL    HW289880   0.943   1.835   5.096 -1.6183 -0.4066  1.1603
28345SOL     OW89881   8.393   0.392   3.306 -0.0775  0.2006 -0.1865
28345SOL    HW189882   8.362   0.341   3.380 -0.0389 -1.0878 -1.0508
28345SOL    HW289883   8.484   0.365   3.294  0.1635  0.9940 -0.2071
28346SOL     OW89884   8.570   1.930   5.626 -0.2995 -0.3679 -0.2372
28346SOL    HW189885   8.551   1.883   5.544 -1.3170 -2.2069  1.0093
28346SOL    HW289886   8.490   1.978   5.645  0.6565  1.7340 -1.3753
28347SOL     OW89887   8.706   9.836   5.159 -0.4556 -0.3550  0.1415
28347SOL    HW189888   8.697   9.790   5.075  0.2915  0.8093 -0.5895
28347SOL    HW289889   8.633   9.898   5.160 -0.2115 -0.0660  0.1464
28348SOL     OW89890   8.890   9.796   3.951  0.0787 -0.3408  0.0316
28348SOL    HW189891   8.853   9.830   4.032 -0.7868  0.3858 -0.6632
28348SOL    HW289892   8.984   9.804   3.963 -0.0831  1.4521  0.2438
28349SOL     OW89893   0.161   0.718   5.464 -0.3043  0.1301  0.6662
28349SOL    HW189894   0.205   0.786   5.515  0.5355  0.1814 -0.1070
28349SOL    HW289895   0.073   0.752   5.448  0.5420  1.6466 -0.8882
28350SOL     OW89896   0.073   9.449   3.530  0.4124 -0.0597 -0.1663
28350SOL    HW189897   0.019   9.373   3.552  0.9635 -0.0884  1.1218
28350SOL    HW289898   0.044   9.475   3.443 -1.0714 -0.6067  0.1632
28351SOL     OW89899   9.337   9.745   4.413 -0.0425  0.4661  0.0919
28351SOL    HW189900   9.410   9.803   4.437  0.8889 -0.5527 -0.2049
28351SOL    HW289901   9.342   9.740   4.317 -0.2897  0.1164  0.0998
28352SOL     OW89902   9.291   1.596   5.043 -0.2065  0.2030  0.6917
28352SOL    HW189903   9.237   1.629   5.114  0.2145  0.0305  1.0940
28352SOL    HW289904   9.380   1.620   5.068 -0.0740  0.2800  0.1448
28353SOL     OW89905   0.437   0.298   4.502 -0.2979  0.6842 -1.2762
28353SOL    HW189906   0.388   0.257   4.573  3.1693  1.3294  1.6253
28353SOL    HW289907   0.371   0.344   4.451 -2.6637  2.1645  2.8905
28354SOL     OW89908   9.794   0.489   4.916 -0.0737 -0.5888  0.1862
28354SOL    HW189909   9.818   0.581   4.925 -1.1328 -0.2370 -0.3960
28354SOL    HW289910   9.872   0.447   4.881  0.9665 -0.2415  2.0653
28355SOL     OW89911   8.851   0.989   3.756 -0.4156 -0.4459 -0.3411
28355SOL    HW189912   8.770   1.031   3.727  0.4068  0.3081 -1.5809
28355SOL    HW289913   8.823   0.906   3.794 -1.6790 -0.7425 -1.8713
28356SOL     OW89914   9.473   1.348   5.055 -0.2439  0.5614  0.8505
28356SOL    HW189915   9.544   1.411   5.072  0.2611  0.5452 -1.1592
28356SOL    HW289916   9.424   1.386   4.982 -2.6586  0.8217  2.5248
28357SOL     OW89917   0.070   9.500   4.202  0.1449  0.3498  0.5536
28357SOL    HW189918   0.081   9.411   4.237 -2.3145 -1.0674 -2.0611
28357SOL    HW289919   0.148   9.514   4.148  0.5762 -0.1707  1.0298
28358SOL     OW89920   0.043   0.310   4.821 -0.7837  0.0248  0.5430
28358SOL    HW189921   0.130   0.301   4.782 -1.8134 -1.2717 -1.4778
28358SOL    HW289922   0.060   0.349   4.907  1.6620  1.2464 -0.4465
28359SOL     OW89923   9.665   0.422   6.352  0.5631 -0.3028  0.6456
28359SOL    HW189924   9.631   0.469   6.428  2.4450 -0.2610  1.4983
28359SOL    HW289925   9.756   0.401   6.376  0.0789 -3.5013 -0.0940
28360SOL     OW89926   8.915   1.766   4.307 -0.2331  0.1296  0.0158
28360SOL    HW189927   8.920   1.858   4.332  0.7480  0.3471 -0.8950
28360SOL    HW289928   8.837   1.761   4.251  0.1772  0.5843 -0.6059
28361SOL     OW89929   0.178   1.825   5.420 -0.5949 -0.2541 -0.0789
28361SOL    HW189930   0.225   1.872   5.490 -0.1409 -2.0704  0.8736
28361SOL    HW289931   0.131   1.893   5.373  1.4257  1.3886  0.1828
28362SOL     OW89932   0.749   0.236   4.682 -0.0858  0.3361  0.4160
28362SOL    HW189933   0.764   0.198   4.596  2.5632  2.5060 -0.1616
28362SOL    HW289934   0.721   0.162   4.736 -1.8616 -1.0453 -2.2949
28363SOL     OW89935   9.120   2.494   5.081 -0.2148 -0.1934  0.0666
28363SOL    HW189936   9.090   2.405   5.065 -1.3030 -0.5553  3.6047
28363SOL    HW289937   9.060   2.550   5.031 -1.2820 -1.3183  0.0730
28364SOL     OW89938   0.370   1.035   4.745 -0.4102  0.1845  0.0370
28364SOL    HW189939   0.355   1.075   4.659 -1.2047  2.2898  1.1035
28364SOL    HW289940   0.456   0.995   4.738 -0.4509  0.3547 -1.7348
28365SOL     OW89941   0.442   0.466   2.912 -0.6619 -0.0248 -0.6028
28365SOL    HW189942   0.452   0.465   3.007 -0.5033 -0.0528 -0.6198
28365SOL    HW289943   0.369   0.527   2.896 -1.4900 -0.9532 -0.4001
28366SOL     OW89944   1.030   2.430   3.999  0.3742  0.4014 -0.8065
28366SOL    HW189945   0.937   2.454   4.004  0.1864 -0.2366 -1.1826
28366SOL    HW289946   1.034   2.340   4.030  1.3595  1.5020  2.4078
28367SOL     OW89947   9.618   0.560   5.110 -0.5018 -0.3204  0.1169
28367SOL    HW189948   9.665   0.505   5.047 -1.1958  0.3587 -1.0179
28367SOL    HW289949   9.642   0.649   5.086 -0.5710 -0.0604  0.9955
28368SOL     OW89950   0.064   0.877   4.283 -0.3267  0.1142 -0.1251
28368SOL    HW189951  -0.010   0.875   4.223 -0.1742 -0.5109 -0.3011
28368SOL    HW289952   0.028   0.909   4.366 -0.6749  0.3400 -0.3643
28369SOL     OW89953   8.557   1.865   5.340  0.3254  0.0363  0.4721
28369SOL    HW189954   8.499   1.789   5.348 -0.1519  0.4377  0.8519
28369SOL    HW289955   8.615   1.843   5.267 -1.4012  0.3460 -1.0182
28370SOL     OW89956   8.776   0.568   4.119 -0.0765 -0.5588 -0.2594
28370SOL    HW189957   8.828   0.491   4.142 -0.8036 -0.2413  2.7470
28370SOL    HW289958   8.826   0.642   4.152 -0.8348 -0.0046 -0.3325
28371SOL     OW89959   0.149   0.553   4.068 -0.1240  0.4561  0.4696
28371SOL    HW189960   0.180   0.506   4.145  0.5574  0.7859  0.4051
28371SOL    HW289961   0.163   0.493   3.995 -1.8924 -0.3255  0.7424
28372SOL     OW89962   9.133   0.969   4.750  0.4829  0.3350 -0.5844
28372SOL    HW189963   9.168   0.907   4.686  3.1573  0.9824  0.1851
28372SOL    HW289964   9.194   1.043   4.748  0.2004  0.7028  2.1267
28373SOL     OW89965   9.932   0.736   4.512 -0.1189 -0.0064 -0.0279
28373SOL    HW189966   9.941   0.826   4.542 -1.3687 -0.6690  2.4803
28373SOL    HW289967  10.017   0.695   4.531  0.1473  0.3938 -0.3474
28374SOL     OW89968   9.783   1.113   4.354 -0.1060 -0.4928 -0.0077
28374SOL    HW189969   9.732   1.172   4.410 -0.6769 -1.9735  1.0656
28374SOL    HW289970   9.717   1.056   4.314  0.6321 -1.9896  0.8745
28375SOL     OW89971   0.940   0.819   4.445 -0.1070 -0.0211  0.2816
28375SOL    HW189972   0.928   0.839   4.538 -0.7179  0.4317  0.1068
28375SOL    HW289973   0.878   0.749   4.428  0.6878 -0.7763  0.4389
28376SOL     OW89974   8.243   2.002   5.425 -0.2806 -0.4820 -0.1968
28376SOL    HW189975   8.177   2.064   5.393  0.6077 -0.0279 -1.1359
28376SOL    HW289976   8.316   2.057   5.452 -0.1812 -1.0092  0.6187
28377SOL     OW89977   9.116   9.925   4.277 -0.1049 -0.7567  0.4861
28377SOL    HW189978   9.181   9.864   4.243  0.3994 -0.5528  1.0629
28377SOL    HW289979   9.165  10.006   4.291 -0.9189  0.0108 -0.9773
28378SOL     OW89980   0.075   0.448   5.057  0.0192  0.4886 -0.9137
28378SOL    HW189981   0.154   0.502   5.067 -0.2729  0.9686 -1.1967
28378SOL    HW289982   0.017   0.477   5.127 -0.2921  0.8110 -1.3044
28379SOL     OW89983   0.097   1.592   5.314 -0.0090  0.6141  0.2850
28379SOL    HW189984   0.125   1.676   5.349  0.1239  0.4624  0.5388
28379SOL    HW289985   0.124   1.594   5.222 -0.2423  0.9547  0.2225
28380SOL     OW89986   9.233   2.518   4.538  0.4763 -0.2832  0.2898
28380SOL    HW189987   9.198   2.441   4.584 -0.7561  0.5790  0.8364
28380SOL    HW289988   9.208   2.592   4.594  0.6264  0.6115 -0.8123
28381SOL     OW89989   8.691   8.663   5.727 -0.4399 -0.8643 -0.2238
28381SOL    HW189990   8.667   8.625   5.642  1.0305  0.0490 -1.0685
28381SOL    HW289991   8.611   8.708   5.756 -0.3873  0.5385 -2.1053
28382SOL     OW89992   9.683   2.037   6.030  0.8274  0.4082  0.1022
28382SOL    HW189993   9.650   1.980   6.099 -0.7460 -1.0195 -1.7624
28382SOL    HW289994   9.777   2.015   6.025  0.5777 -0.8273  0.5305
28383SOL     OW89995   1.197   1.292   6.018  0.5373  0.1565 -0.0355
28383SOL    HW189996   1.199   1.210   5.969  3.0009 -0.8267  1.6173
28383SOL    HW289997   1.148   1.271   6.098 -0.1805  0.7198 -0.3256
28384SOL     OW89998   9.249   2.140   4.147 -0.2457  0.2711  0.1661
28384SOL    HW189999   9.282   2.210   4.203  2.7424  0.2664 -1.4459
28384SOL    HW290000   9.325   2.112   4.096 -1.9624 -2.3776 -1.1093
28385SOL     OW90001   8.888   1.096   4.703 -0.0376 -0.2282 -0.3384
28385SOL    HW190002   8.835   1.018   4.720  0.1386 -0.9824 -2.9897
28385SOL    HW290003   8.977   1.062   4.693  0.0293  0.2831 -1.5586
28386SOL     OW90004   1.142   1.401   5.606  0.2082  0.0296  0.0367
28386SOL    HW190005   1.128   1.484   5.559 -2.5621 -0.9497 -0.9438
28386SOL    HW290006   1.114   1.420   5.696  1.2551  0.6180  0.2579
28387SOL     OW90007   7.501   0.133   4.934  0.3407  0.4711 -1.2174
28387SOL    HW190008   7.524   0.209   4.987 -1.0501 -0.4677  0.8313
28387SOL    HW290009   7.572   0.071   4.949 -0.3519 -0.0391  0.1516
28388SOL     OW90010   9.124   1.321   4.856 -0.0725 -0.3211  0.4152
28388SOL    HW190011   9.216   1.320   4.829  0.1070  0.0896  0.9835
28388SOL    HW290012   9.075   1.327   4.775  0.4283  0.1145  0.1376
28389SOL     OW90013   8.581   0.738   6.364  0.8160 -0.0097 -0.1541
28389SOL    HW190014   8.582   0.820   6.315 -1.1653  0.5502  0.6759
28389SOL    HW290015   8.533   0.677   6.307 -0.1807  0.2180  0.4315
28390SOL     OW90016   0.013   0.253   7.012 -0.2517 -0.4165  0.1094
28390SOL    HW190017   0.090   0.296   7.051 -0.2094 -0.1902 -0.2208
28390SOL    HW290018   0.046   0.168   6.982 -0.2793 -0.5845  0.5448
28391SOL     OW90019   8.845   1.769   6.837 -0.2474 -0.7426 -0.2924
28391SOL    HW190020   8.877   1.778   6.747  1.5787 -1.2951  0.2992
28391SOL    HW290021   8.871   1.681   6.864 -3.7676 -1.8986 -0.3593
28392SOL     OW90022   9.923   1.160   6.967  0.1736  0.2319  0.5956
28392SOL    HW190023   9.828   1.144   6.970  0.6207 -2.8171 -0.2275
28392SOL    HW290024   9.956   1.119   7.047  1.3476 -2.9171 -1.4518
28393SOL     OW90025   0.329   0.471   9.047  0.1666 -0.0230  0.5859
28393SOL    HW190026   0.244   0.453   9.006 -0.2802  0.5116  1.2590
28393SOL    HW290027   0.320   0.438   9.136  1.0006 -0.8349  0.3740
28394SOL     OW90028   0.286   1.557   5.953  0.2377 -0.0132 -0.4358
28394SOL    HW190029   0.223   1.603   6.008 -1.1408 -1.0236 -1.1454
28394SOL    HW290030   0.355   1.530   6.013 -0.7930 -0.2873  0.6364
28395SOL     OW90031   0.293   8.936   5.161  0.2618 -0.4629  0.2515
28395SOL    HW190032   0.319   8.929   5.253  0.0297 -0.2627  0.3326
28395SOL    HW290033   0.292   9.030   5.144  0.3847 -0.5048  0.0198
28396SOL     OW90034   0.146   1.229   5.181 -0.0226 -1.1650  0.1674
28396SOL    HW190035   0.168   1.142   5.213  1.6948 -1.2413 -1.1062
28396SOL    HW290036   0.198   1.238   5.101 -0.1021  1.0705  0.3495
28397SOL     OW90037   8.406   0.994   5.142  0.2165  0.2618 -0.4699
28397SOL    HW190038   8.458   1.019   5.066 -0.5062  0.6708 -0.8299
28397SOL    HW290039   8.355   1.072   5.163 -0.1875 -0.1083 -0.0603
28398SOL     OW90040   9.985   1.627   5.640 -0.5199  0.0950 -0.9865
28398SOL    HW190041   9.959   1.636   5.548 -0.1307  0.2329 -1.0871
28398SOL    HW290042   9.949   1.704   5.683  0.2028  0.5809 -1.2365
28399SOL     OW90043   9.357   0.124   6.360  0.4336  0.1900  0.1758
28399SOL    HW190044   9.270   0.102   6.327  1.0653  0.1536 -1.5306
28399SOL    HW290045   9.378   0.208   6.318  1.7840 -0.4864 -0.5288
28400SOL     OW90046   8.191   9.994   4.525  0.0554 -0.3902  0.2884
28400SOL    HW190047   8.102  10.015   4.555 -0.0267 -2.7748  1.8500
28400SOL    HW290048   8.178   9.935   4.451  0.3481  0.1714 -0.2185
28401SOL     OW90049   0.069   1.091   7.594 -0.2490 -0.0166  1.1469
28401SOL    HW190050   0.079   1.150   7.519 -1.2369 -0.8747  0.3228
28401SOL    HW290051   0.018   1.018   7.560  0.8396 -1.2899  2.1946
28402SOL     OW90052   1.345   0.777   7.515  0.3790  0.9669 -0.5341
28402SOL    HW190053   1.328   0.707   7.578  0.1283  1.5803  0.1009
28402SOL    HW290054   1.274   0.840   7.530  1.1653  1.8395 -0.3653
28403SOL     OW90055   8.653   0.432   6.325  0.0760  0.3244 -0.0795
28403SOL    HW190056   8.696   0.457   6.243  1.9956  1.4219  1.2315
28403SOL    HW290057   8.568   0.475   6.322 -0.1364 -0.1602 -1.7676
28404SOL     OW90058   7.858   8.405   9.107  0.1338 -0.1954 -0.3981
28404SOL    HW190059   7.881   8.334   9.167 -0.1692  0.2092  0.1996
28404SOL    HW290060   7.804   8.464   9.159 -0.4080 -0.0102 -1.1585
28405SOL     OW90061   0.046   9.729   5.956  0.5317 -0.0261 -0.0821
28405SOL    HW190062   0.073   9.820   5.946 -0.1866  0.1692 -0.3254
28405SOL    HW290063  -0.026   9.719   5.893  1.4076 -1.0930 -0.9302
28406SOL     OW90064   0.591   1.199   5.452  1.0847  0.3124  0.0209
28406SOL    HW190065   0.497   1.192   5.436  1.4260  1.2750 -2.8531
28406SOL    HW290066   0.609   1.138   5.523 -1.2675 -2.0194 -1.3228
28407SOL     OW90067   0.721   3.142   6.834  0.2335 -0.6129 -0.6783
28407SOL    HW190068   0.693   3.067   6.783 -0.2407 -2.3169  2.0122
28407SOL    HW290069   0.808   3.163   6.799 -0.4407 -1.1224 -2.7653
28408SOL     OW90070   0.879   9.592   6.120 -0.4242 -0.1418  0.3568
28408SOL    HW190071   0.854   9.505   6.090 -1.1582  0.3349 -0.4230
28408SOL    HW290072   0.952   9.617   6.064 -0.2303 -0.2362  0.5633
28409SOL     OW90073   8.878   0.029   5.395 -0.7654  0.2628  0.2738
28409SOL    HW190074   8.870   0.018   5.301 -2.2672  0.7400  0.3324
28409SOL    HW290075   8.895   0.122   5.408  3.4857 -0.4248  0.2743
28410SOL     OW90076   7.457   0.734   7.721  0.0549  0.4450  0.0562
28410SOL    HW190077   7.433   0.825   7.737 -1.2589  0.7230 -3.0505
28410SOL    HW290078   7.552   0.732   7.732 -0.0681  1.8592  1.5194
28411SOL     OW90079   0.198   2.323   4.679 -0.0731 -0.4855  0.2146
28411SOL    HW190080   0.229   2.300   4.592  0.8490 -0.7945  0.6167
28411SOL    HW290081   0.144   2.248   4.706 -0.8399 -0.1264 -0.3245
28412SOL     OW90082   8.927   0.990   6.084 -0.2965  0.0195 -0.1825
28412SOL    HW190083   8.993   0.984   6.015  0.6622  0.3037  0.6981
28412SOL    HW290084   8.924   0.902   6.123  0.1223  0.2042  0.2776
28413SOL     OW90085   9.709   8.835   6.641  0.3530  0.1102  0.2047
28413SOL    HW190086   9.626   8.828   6.687  0.0700 -0.1035 -0.3432
28413SOL    HW290087   9.766   8.882   6.702 -0.2608  0.5448  0.4395
28414SOL     OW90088   8.852   1.621   6.579  0.2357  0.5040  0.0655
28414SOL    HW190089   8.793   1.592   6.649  0.9426 -0.0842  0.4231
28414SOL    HW290090   8.929   1.566   6.588 -0.1922 -0.4996 -2.0239
28415SOL     OW90091   9.355   0.641   5.136  0.2566  0.3207 -0.6678
28415SOL    HW190092   9.447   0.620   5.120  0.9346  1.1575  1.8710
28415SOL    HW290093   9.348   0.734   5.116 -0.4396 -0.1001 -2.4398
28416SOL     OW90094   0.962   8.847   5.918 -0.0397  0.0035  0.4304
28416SOL    HW190095   0.975   8.842   6.013 -4.0211 -0.4052  1.0154
28416SOL    HW290096   0.962   8.756   5.889  0.7590  0.1100  0.0797
28417SOL     OW90097   9.006   9.249   5.493 -0.4459 -0.5624 -0.7529
28417SOL    HW190098   9.050   9.164   5.485 -0.2385 -0.5195 -0.1544
28417SOL    HW290099   8.939   9.248   5.425 -0.2831 -1.1082 -0.9115
28418SOL     OW90100   9.372   2.524   4.926  0.1931  0.5692  0.3340
28418SOL    HW190101   9.416   2.441   4.911  1.3587  1.2384  0.0137
28418SOL    HW290102   9.305   2.504   4.992  0.2141 -0.6922 -0.0201
28419SOL     OW90103   8.447   1.789   7.591  0.0766  0.2323  0.5495
28419SOL    HW190104   8.487   1.720   7.538  2.0884  2.2127 -0.6143
28419SOL    HW290105   8.353   1.773   7.584  0.3939 -0.7741 -1.9327
28420SOL     OW90106   9.265   1.449   6.437 -0.4527 -0.4043 -0.0958
28420SOL    HW190107   9.252   1.401   6.355 -1.7004 -0.3027  0.0281
28420SOL    HW290108   9.360   1.463   6.442 -0.2155 -1.7163 -0.7755
28421SOL     OW90109   8.946   0.675   4.838  0.5314 -0.0488 -0.5932
28421SOL    HW190110   9.007   0.602   4.843  0.8467  0.2250 -0.4002
28421SOL    HW290111   8.952   0.717   4.924 -1.2091 -1.0490  0.0458
28422SOL     OW90112   9.374   1.905   5.336 -0.8561  0.2487 -0.1786
28422SOL    HW190113   9.421   1.966   5.280 -1.1775 -0.0137 -0.7342
28422SOL    HW290114   9.374   1.948   5.422 -0.5425  0.7452 -0.4193
28423SOL     OW90115   9.260   3.200   7.573  0.4619 -0.8012  0.3397
28423SOL    HW190116   9.296   3.208   7.484  0.9378  0.4920  0.6459
28423SOL    HW290117   9.316   3.136   7.616  1.3084 -0.1391  0.2431
28424SOL     OW90118   0.176   0.970   5.600  0.4203  0.7738 -0.3231
28424SOL    HW190119   0.083   0.983   5.621  0.0382  0.2290 -1.6135
28424SOL    HW290120   0.205   0.905   5.664 -0.3233  0.2821 -0.4750
28425SOL     OW90121   0.032   1.975   6.004 -0.6512  0.0126  0.1541
28425SOL    HW190122   0.093   2.044   5.979 -0.8856  0.1790  0.0411
28425SOL    HW290123   0.081   1.894   5.991 -1.5857 -0.0839 -3.2940
28426SOL     OW90124   9.865   0.854   6.899 -0.3881 -0.7987 -0.0555
28426SOL    HW190125   9.824   0.931   6.860  1.1667  0.0055 -0.1637
28426SOL    HW290126   9.959   0.868   6.887 -0.0661 -2.6510  0.0454
28427SOL     OW90127   9.374   0.354   7.319 -0.3283 -0.1141  1.0485
28427SOL    HW190128   9.454   0.359   7.372  0.5055  1.9226 -0.3251
28427SOL    HW290129   9.322   0.429   7.346 -1.3799 -0.9257  1.2952
28428SOL     OW90130   0.163   3.094   5.781  0.0922  0.3594 -0.2157
28428SOL    HW190131   0.152   2.999   5.787 -1.8693  0.6451  1.3194
28428SOL    HW290132   0.233   3.114   5.842 -1.3154  0.1669  1.5068
28429SOL     OW90133   9.346   9.747   7.085  0.4600 -0.3964  0.3913
28429SOL    HW190134   9.339   9.724   6.993  0.0268  1.1187  0.0316
28429SOL    HW290135   9.386   9.835   7.085  0.3831 -0.3500  1.6276
28430SOL     OW90136   8.312   9.973   7.308  0.0973  0.1484  0.2464
28430SOL    HW190137   8.290   9.982   7.215  1.6220 -0.4978 -0.1936
28430SOL    HW290138   8.351  10.057   7.331 -1.9244  0.9710  0.7959
28431SOL     OW90139   8.836   0.848   5.551  0.1904  0.5226 -0.2125
28431SOL    HW190140   8.915   0.815   5.508  0.1873  0.5574 -0.2440
28431SOL    HW290141   8.801   0.773   5.598 -0.6369  0.1118 -1.4740
28432SOL     OW90142   0.405   0.930   6.701 -0.0000 -0.0908  0.1732
28432SOL    HW190143   0.423   0.890   6.616  1.5079  0.6577  0.1364
28432SOL    HW290144   0.399   1.024   6.684  2.2249  0.2678  1.1810
28433SOL     OW90145   9.201   9.536   4.485 -0.3732 -0.4612  0.0196
28433SOL    HW190146   9.238   9.625   4.483  1.0320 -0.9709  1.7281
28433SOL    HW290147   9.248   9.489   4.417  0.6497 -0.5371  0.7658
28434SOL     OW90148   7.735   2.463   7.583  0.1673 -0.0032  0.0295
28434SOL    HW190149   7.793   2.398   7.544  0.9153  0.3968  0.4647
28434SOL    HW290150   7.792   2.536   7.606 -0.4387  0.2250  0.8521
28435SOL     OW90151   9.613   3.149   7.840 -0.2364  0.1167  0.2573
28435SOL    HW190152   9.619   3.133   7.935  1.0753 -1.5753 -0.0744
28435SOL    HW290153   9.538   3.096   7.812 -0.0304 -0.1426  0.1974
28436SOL     OW90154   8.965   9.984   7.796 -0.2037 -0.3480 -0.0837
28436SOL    HW190155   9.031  10.020   7.855 -0.6955  0.2654  0.0952
28436SOL    HW290156   8.992  10.014   7.709 -0.1986 -0.1783 -0.0228
28437SOL     OW90157   8.872   8.819   8.640 -0.5261  0.1298 -0.3235
28437SOL    HW190158   8.842   8.802   8.551 -0.0451  1.0492 -0.6612
28437SOL    HW290159   8.795   8.853   8.685 -0.7292 -0.1922 -0.4237
28438SOL     OW90160   0.320   1.192   5.745 -0.4511 -0.3126  0.6877
28438SOL    HW190161   0.397   1.206   5.690  0.4810  0.4631  2.1627
28438SOL    HW290162   0.251   1.169   5.684  0.5002  0.8019 -0.8317
28439SOL     OW90163   8.956   1.812   8.972  0.0690  0.4165  0.2204
28439SOL    HW190164   9.024   1.783   8.911 -1.2720 -0.8146 -0.7130
28439SOL    HW290165   8.883   1.839   8.916 -0.0584  2.1887  1.1950
28440SOL     OW90166   0.217   9.446   5.414 -0.1266 -0.3510  0.0021
28440SOL    HW190167   0.287   9.385   5.392  3.0951  2.5334  1.7453
28440SOL    HW290168   0.211   9.444   5.509 -0.4434  1.4768  0.0489
28441SOL     OW90169   0.051   1.924   6.850  0.5918  0.5633 -0.2764
28441SOL    HW190170   0.032   1.868   6.925  1.8790 -0.9397 -1.0328
28441SOL    HW290171  -0.027   1.919   6.795 -0.1192  1.2025  0.6611
28442SOL     OW90172   9.162   2.322   6.413  0.7955 -0.0911  0.4868
28442SOL    HW190173   9.143   2.228   6.414 -0.7259  0.1909  1.5275
28442SOL    HW290174   9.249   2.330   6.452  1.0869 -1.1022  0.0465
28443SOL     OW90175   8.335   0.077   5.784  0.2957  0.0198 -0.1037
28443SOL    HW190176   8.349   0.088   5.690  0.9367  0.9999  0.1006
28443SOL    HW290177   8.327   0.166   5.818  1.4674 -0.2704  0.9730
28444SOL     OW90178   9.716   1.706   6.903 -0.0693  0.1325 -0.5389
28444SOL    HW190179   9.718   1.672   6.813 -1.4047  1.0290 -0.9335
28444SOL    HW290180   9.739   1.798   6.893 -1.0450  0.4347 -0.0820
28445SOL     OW90181   7.717   0.136   7.083 -0.1145  0.3308 -0.2663
28445SOL    HW190182   7.760   0.221   7.073  1.0057 -0.3100 -0.9213
28445SOL    HW290183   7.700   0.129   7.177 -0.0093  1.1792 -0.1784
28446SOL     OW90184   9.062   9.669   7.042 -0.5561 -0.0301 -0.1460
28446SOL    HW190185   9.099   9.584   7.067  0.6282  0.5745  0.1948
28446SOL    HW290186   8.970   9.650   7.024 -0.0564 -1.5989 -1.1699
28447SOL     OW90187   9.232   2.214   5.427 -0.3932  0.0089 -0.1686
28447SOL    HW190188   9.303   2.175   5.479 -0.2067  0.4645 -0.0721
28447SOL    HW290189   9.198   2.284   5.483  0.3465  1.0384 -0.9798
28448SOL     OW90190   0.838   2.356   5.467  0.0038 -0.8746 -0.3166
28448SOL    HW190191   0.867   2.396   5.550  1.0135 -1.7649 -0.2319
28448SOL    HW290192   0.869   2.416   5.400 -0.9897 -0.0436 -0.0494
28449SOL     OW90193   0.167   9.968   8.073  0.1942  0.2446 -0.3781
28449SOL    HW190194   0.126   9.953   7.988  0.2209  1.0042 -0.5270
28449SOL    HW290195   0.210   9.885   8.093 -1.8040 -0.7318  0.0015
28450SOL     OW90196   8.814   9.021   5.797 -0.1346 -0.4037  0.0223
28450SOL    HW190197   8.806   8.982   5.884  0.7292 -0.7858 -0.0595
28450SOL    HW290198   8.902   8.996   5.768 -0.2300  0.1432 -0.7520
28451SOL     OW90199   8.723   0.771   6.598 -0.8019 -0.0747  0.0422
28451SOL    HW190200   8.672   0.743   6.522  0.9582 -1.3969 -0.6803
28451SOL    HW290201   8.755   0.859   6.574  0.4390 -0.8282 -1.1145
28452SOL     OW90202   0.244   9.155   7.528 -0.0876 -0.3564  0.1707
28452SOL    HW190203   0.231   9.169   7.622 -0.8815  0.0249  0.0053
28452SOL    HW290204   0.239   9.060   7.517 -0.8189 -0.3444  0.3930
28453SOL     OW90205   1.090   1.362   6.965  0.2674  0.3198  0.0234
28453SOL    HW190206   1.094   1.451   6.999 -2.6238  0.4770  0.1227
28453SOL    HW290207   1.134   1.366   6.880 -0.3492  1.9811 -0.2309
28454SOL     OW90208   0.805   1.434   6.995  0.3665 -0.1151  0.4904
28454SOL    HW190209   0.877   1.373   6.981  0.5369  0.1100  0.3753
28454SOL    HW290210   0.814   1.498   6.924 -0.2059 -0.3307  0.2178
28455SOL     OW90211   8.375   0.923   8.737  0.3247 -0.1260 -0.0335
28455SOL    HW190212   8.460   0.941   8.697  0.0864 -0.4704 -0.7013
28455SOL    HW290213   8.323   0.885   8.667 -0.9373  1.6713 -0.1238
28456SOL     OW90214   8.294   0.831   6.301 -0.5357 -0.2684  0.5466
28456SOL    HW190215   8.371   0.889   6.294 -0.7781  0.2442  1.9508
28456SOL    HW290216   8.328   0.744   6.280  0.8596 -0.3473  2.9285
28457SOL     OW90217   0.260   0.519   7.166 -0.3768 -0.2988  0.0056
28457SOL    HW190218   0.204   0.567   7.105 -1.6311  1.2395  2.2882
28457SOL    HW290219   0.335   0.577   7.180 -0.3009 -0.4557  0.2550
28458SOL     OW90220   8.635   9.883   5.588  0.5720  0.1625 -0.4567
28458SOL    HW190221   8.582   9.962   5.592  1.0509  0.4153  1.8173
28458SOL    HW290222   8.585   9.824   5.531 -1.3874  0.9553  0.3834
28459SOL     OW90223   9.294   0.686   7.119 -0.1041 -0.1986  0.8589
28459SOL    HW190224   9.240   0.652   7.190  0.4544 -2.8501  0.0605
28459SOL    HW290225   9.268   0.635   7.042  0.5811  1.3824 -0.4601
28460SOL     OW90226   9.617   9.947   4.899 -0.2230 -0.5952  0.2600
28460SOL    HW190227   9.709   9.958   4.921  0.0145 -0.0749 -0.9387
28460SOL    HW290228   9.586  10.036   4.881 -0.0191 -1.1131 -2.9432
28461SOL     OW90229   7.190   9.564   6.703 -0.1638  0.0990  0.6070
28461SOL    HW190230   7.095   9.573   6.706 -0.1257  0.2171  1.4220
28461SOL    HW290231   7.223   9.653   6.712  0.0093  0.1456 -0.4575
28462SOL     OW90232   9.358   0.608   9.299  0.1867  0.0917 -0.0604
28462SOL    HW190233   9.399   0.691   9.274  0.1225 -0.2320 -1.2427
28462SOL    HW290234   9.432   0.549   9.315  0.2194  0.1596  0.0382
28463SOL     OW90235   9.608   7.858   8.617  0.4511 -0.0721  0.2849
28463SOL    HW190236   9.559   7.892   8.692 -0.3937  0.0155 -0.2969
28463SOL    HW290237   9.617   7.933   8.558 -2.0918 -0.9795 -1.3605
28464SOL     OW90238   9.843   1.329   0.051 -0.6367 -0.4513  0.4249
28464SOL    HW190239   9.786   1.259   0.081 -1.1567  0.0875  0.7120
28464SOL    HW290240   9.790   1.408   0.059 -0.4733 -0.1756 -1.0431
28465SOL     OW90241   0.584   9.639   8.769 -0.0955  0.3738  0.1599
28465SOL    HW190242   0.570   9.574   8.838  1.2002  0.6881  0.7296
28465SOL    HW290243   0.618   9.716   8.815 -0.4416  1.0330 -0.6657
28466SOL     OW90244   0.748   0.816   8.341 -0.0577 -0.7983  0.2344
28466SOL    HW190245   0.705   0.901   8.329 -0.8786 -1.4671 -1.5593
28466SOL    HW290246   0.826   0.821   8.286 -0.7022 -1.6405 -0.7469
28467SOL     OW90247   9.188   9.574   0.692  0.2069 -0.4841 -0.4238
28467SOL    HW190248   9.122   9.611   0.633 -1.3794 -2.0785  0.3366
28467SOL    HW290249   9.139   9.516   0.750  2.2303 -1.3913  0.4078
28468SOL     OW90250   0.343   2.206   6.337  0.2599 -0.3700 -0.4949
28468SOL    HW190251   0.276   2.272   6.319  0.7211 -0.2779 -1.9580
28468SOL    HW290252   0.418   2.232   6.284  1.0144 -1.1905  0.1336
28469SOL     OW90253   9.707   1.664   8.278  0.3946 -0.1425 -0.0113
28469SOL    HW190254   9.693   1.579   8.318  1.6906  0.2584  1.3749
28469SOL    HW290255   9.728   1.645   8.187 -0.9472 -1.1891 -0.1031
28470SOL     OW90256   9.122   2.045   6.447 -0.2169 -0.1699  0.5531
28470SOL    HW190257   9.032   2.040   6.479 -0.7144  0.9239 -0.6392
28470SOL    HW290258   9.151   1.954   6.444 -1.1109 -0.4925  1.4461
28471SOL     OW90259   9.098   9.180   8.795 -0.0612  0.3588 -0.4727
28471SOL    HW190260   9.131   9.090   8.791 -1.2707 -0.1765  1.1903
28471SOL    HW290261   9.007   9.171   8.823 -0.4571  2.0664 -1.1521
28472SOL     OW90262   9.032   1.379   9.339  0.5727 -0.7938 -0.3037
28472SOL    HW190263   9.062   1.450   9.396 -1.1745 -0.1130 -0.1738
28472SOL    HW290264   8.937   1.393   9.333  0.6068 -1.3908 -2.6292
28473SOL     OW90265   8.696   0.342   7.520  0.6051 -0.5608  0.1556
28473SOL    HW190266   8.707   0.264   7.574  0.3140 -1.0763 -0.5268
28473SOL    HW290267   8.785   0.375   7.506  0.5412  0.7671  2.6790
28474SOL     OW90268   9.813   0.335   7.167 -0.0803  0.7601 -0.0971
28474SOL    HW190269   9.888   0.308   7.114  1.1698  0.6734  1.6577
28474SOL    HW290270   9.845   0.408   7.220 -0.9502  0.1240  1.3472
28475SOL     OW90271   0.140   0.777   0.203  0.1836  0.3339  0.2363
28475SOL    HW190272   0.109   0.832   0.130  0.5171  1.8827  1.2490
28475SOL    HW290273   0.167   0.695   0.161  0.2481  1.1580 -1.3786
28476SOL     OW90274   9.477   1.494   1.823 -0.0037 -0.5828 -0.2537
28476SOL    HW190275   9.502   1.455   1.739  1.6669 -1.7514  0.7879
28476SOL    HW290276   9.475   1.421   1.884  0.9058  0.6022  1.2110
28477SOL     OW90277   0.564   9.678   8.087 -0.1342  0.0972 -0.7215
28477SOL    HW190278   0.538   9.590   8.114 -2.5279  1.0932  0.3400
28477SOL    HW290279   0.653   9.688   8.120 -0.4679 -1.2965  0.6518
28478SOL     OW90280   9.455   0.120   9.659 -0.0626  0.4923  0.0656
28478SOL    HW190281   9.428   0.083   9.743 -1.4110  1.3117  0.0075
28478SOL    HW290282   9.507   0.197   9.682 -1.4637  1.4324  0.1644
28479SOL     OW90283   9.232   1.284   0.329  0.0853 -0.4585 -0.4380
28479SOL    HW190284   9.138   1.272   0.339 -0.4383  2.0214 -1.9614
28479SOL    HW290285   9.247   1.281   0.234  1.4294 -0.2469 -0.2490
28480SOL     OW90286   7.954   1.511   7.034 -0.0395 -0.5282  0.3627
28480SOL    HW190287   7.961   1.471   7.121  1.9200  0.3124  0.6127
28480SOL    HW290288   8.040   1.497   6.994 -1.2852 -1.9729 -1.9398
28481SOL     OW90289   1.052   1.250   7.857  0.3519 -0.6157  0.1699
28481SOL    HW190290   0.986   1.284   7.797  0.6675  0.9242  0.6808
28481SOL    HW290291   1.123   1.220   7.800  1.4756  2.5889 -0.2000
28482SOL     OW90292   0.051   2.732   8.718 -0.4824  0.4136  0.0115
28482SOL    HW190293   0.081   2.650   8.680 -0.5741  0.9598 -1.2898
28482SOL    HW290294  -0.044   2.724   8.722 -0.4851  0.4262 -0.0272
28483SOL     OW90295   9.228   1.092   0.524  0.7874 -0.0570  0.1284
28483SOL    HW190296   9.134   1.074   0.516  1.0801 -0.6556 -2.0398
28483SOL    HW290297   9.240   1.175   0.477  0.9864  1.2245  2.3567
28484SOL     OW90298   9.344   0.122   9.131 -0.1751  0.4694  0.4067
28484SOL    HW190299   9.342   0.218   9.139  0.8356  0.5566 -0.2493
28484SOL    HW290300   9.431   0.098   9.163  0.7080  0.0479 -2.1926
28485SOL     OW90301   9.750   1.810   7.775  0.3137  0.4202 -0.0960
28485SOL    HW190302   9.694   1.830   7.700  0.1194  1.6314  0.3563
28485SOL    HW290303   9.826   1.867   7.763 -0.5235  1.9204  1.5476
28486SOL     OW90304   9.913   1.700   7.314  0.3616 -0.1867  0.5435
28486SOL    HW190305   9.860   1.757   7.257 -0.4712 -3.6766 -2.3500
28486SOL    HW290306   9.855   1.679   7.387 -0.0480  1.0119  0.5744
28487SOL     OW90307   0.039   9.798   6.715  0.8286 -0.3224 -0.4919
28487SOL    HW190308   0.090   9.794   6.634 -0.9182 -1.0034 -1.6013
28487SOL    HW290309   0.023   9.706   6.737 -0.2254 -0.1213 -0.3850
28488SOL     OW90310   9.966   9.690   7.243  0.6013  0.0364  0.1141
28488SOL    HW190311   9.980   9.601   7.274  0.6256  0.4112  1.1999
28488SOL    HW290312   9.877   9.689   7.206 -0.4527  0.2204  2.5675
28489SOL     OW90313   9.971   0.076   9.240 -0.7064  0.1391 -0.0726
28489SOL    HW190314   9.967   0.160   9.285  0.4085  0.1213  0.0794
28489SOL    HW290315   9.975   0.011   9.310  1.1031  0.1145 -0.1767
28490SOL     OW90316   9.457   0.958   8.600  0.3260  0.0493 -0.4044
28490SOL    HW190317   9.499   1.037   8.565  1.1857 -0.5064 -0.6518
28490SOL    HW290318   9.374   0.952   8.553  0.1159  0.9871 -0.1491
28491SOL     OW90319   8.984   0.411   6.981  0.2639 -0.7519  0.2993
28491SOL    HW190320   8.923   0.465   7.031 -0.6308 -3.3389  2.0692
28491SOL    HW290321   9.069   0.451   6.996 -0.4183  0.3338  1.3498
28492SOL     OW90322   7.861   1.182   9.705  0.0704  0.5177 -0.4871
28492SOL    HW190323   7.947   1.216   9.728  0.2178  0.7346 -1.3386
28492SOL    HW290324   7.873   1.088   9.696  0.3593  0.6290 -1.2432
28493SOL     OW90325   0.559   0.510   7.646  0.0026  0.1496 -0.3734
28493SOL    HW190326   0.477   0.478   7.683  0.2690  0.9621  0.9567
28493SOL    HW290327   0.536   0.543   7.560 -1.1798  0.9543  0.2512
28494SOL     OW90328   9.448   1.695   8.898 -0.0963  0.4273  0.4825
28494SOL    HW190329   9.444   1.636   8.972  2.4330 -0.8784 -0.3454
28494SOL    HW290330   9.452   1.783   8.937  1.9458 -0.2792  1.9670
28495SOL     OW90331   8.066   0.152   6.976 -0.2223 -0.4175 -0.1496
28495SOL    HW190332   8.137   0.213   6.952 -0.4890  0.3163  0.9142
28495SOL    HW290333   8.018   0.197   7.045 -2.3156 -0.5016 -1.5011
28496SOL     OW90334   9.000   0.725   7.908  0.3299  0.3291 -0.7432
28496SOL    HW190335   9.095   0.735   7.898  0.5435  0.5632  1.3098
28496SOL    HW290336   8.966   0.815   7.909  0.3934  0.3515  1.1032
28497SOL     OW90337   8.710   0.219   8.850  0.4937 -0.2952 -0.6308
28497SOL    HW190338   8.787   0.266   8.881 -0.0556  0.3816 -0.2629
28497SOL    HW290339   8.671   0.278   8.784  0.1355 -0.4995 -0.6047
28498SOL     OW90340   8.750   0.461   6.591  0.1989 -0.3767 -0.6876
28498SOL    HW190341   8.729   0.420   6.507 -0.0858 -0.0129 -0.7935
28498SOL    HW290342   8.716   0.550   6.584 -1.0255 -0.7572  0.3165
28499SOL     OW90343   9.934   0.728   9.095  0.1443  0.2920 -0.3670
28499SOL    HW190344   9.987   0.655   9.063  0.4662  1.0634 -1.6574
28499SOL    HW290345   9.979   0.759   9.173  0.0752 -0.8020  0.1097
28500SOL     OW90346   0.443   1.463   6.768 -0.0319  0.0696 -0.2065
28500SOL    HW190347   0.412   1.525   6.702 -0.2020  0.8102  0.5486
28500SOL    HW290348   0.536   1.485   6.780 -0.1250  0.2821  0.1580
28501SOL     OW90349   8.612   0.667   9.670  0.9283  0.4890 -0.1838
28501SOL    HW190350   8.579   0.577   9.671  1.0676  0.4082 -1.4873
28501SOL    HW290351   8.542   0.719   9.708  0.9389 -0.2024  0.8027
28502SOL     OW90352   8.666   0.711   9.389  0.8401  0.2241 -0.2365
28502SOL    HW190353   8.652   0.693   9.482  0.7142 -3.8119 -0.9433
28502SOL    HW290354   8.632   0.799   9.376  0.1582  0.5595  3.3809
28503SOL     OW90355   1.688   0.008   8.920  0.1151 -0.2606  0.2633
28503SOL    HW190356   1.700   0.015   8.825  2.0363  0.7762  0.5420
28503SOL    HW290357   1.755   0.066   8.957  0.3058 -1.6967  2.2907
28504SOL     OW90358   8.648   0.334   9.351  0.5969  0.4439 -0.0226
28504SOL    HW190359   8.641   0.373   9.438 -0.6389  0.9885 -0.3602
28504SOL    HW290360   8.606   0.249   9.359  0.4952  0.4884 -0.0773
28505SOL     OW90361   0.023   1.457   8.113 -0.3356  0.7679 -0.3891
28505SOL    HW190362   0.055   1.520   8.048 -0.3997  2.0190  0.7756
28505SOL    HW290363  -0.072   1.465   8.109 -0.3376  0.8801 -0.1003
28506SOL     OW90364   9.314   0.518   7.722  0.0307 -0.3547  0.0883
28506SOL    HW190365   9.311   0.574   7.644 -0.4969  0.3604  0.6174
28506SOL    HW290366   9.291   0.576   7.794  1.4103 -0.7915  0.9120
28507SOL     OW90367   1.304   2.182   8.804 -0.1078 -0.1124 -0.6477
28507SOL    HW190368   1.357   2.108   8.832 -0.9009 -0.3458  0.2273
28507SOL    HW290369   1.275   2.223   8.885  0.7823  1.4894 -1.1129
28508SOL     OW90370   0.513   0.655   8.854  0.2895 -0.3429  0.1431
28508SOL    HW190371   0.446   0.624   8.916  1.1413 -1.1951  0.6475
28508SOL    HW290372   0.515   0.749   8.867  0.1065 -0.4573  1.0683
28509SOL     OW90373   0.666   0.390   8.863 -0.2947 -0.2831  0.3858
28509SOL    HW190374   0.575   0.393   8.834 -0.2951 -1.0320  0.2932
28509SOL    HW290375   0.688   0.297   8.862  0.2962 -0.1557  0.9478
28510SOL     OW90376   9.532   2.421   8.553  0.6717 -0.2599  0.0531
28510SOL    HW190377   9.611   2.411   8.500  0.4077  2.0918 -0.8369
28510SOL    HW290378   9.564   2.456   8.636  0.5325  1.1101 -0.4631
28511SOL     OW90379   0.731   1.894   6.616 -0.4528  0.1636  0.0987
28511SOL    HW190380   0.809   1.950   6.618  0.1221 -0.6438  0.5394
28511SOL    HW290381   0.738   1.847   6.533  0.1771 -0.8191  0.7060
28512SOL     OW90382   8.815   0.110   9.227  0.3494  0.2106 -0.2784
28512SOL    HW190383   8.743   0.172   9.239  0.5921  0.2859  0.8297
28512SOL    HW290384   8.772   0.027   9.207 -0.0507  0.2841  0.2570
28513SOL     OW90385   8.505   0.955   1.132 -0.1731 -0.1066  0.5170
28513SOL    HW190386   8.551   0.872   1.118 -0.0432  0.2148 -1.1941
28513SOL    HW290387   8.461   0.971   1.048 -0.9576  1.0862  1.1503
28514SOL     OW90388   8.586   0.478   7.853  0.0634 -0.1522 -0.5022
28514SOL    HW190389   8.550   0.532   7.783  0.0710  0.0185 -0.3734
28514SOL    HW290390   8.664   0.526   7.883 -0.1061 -0.0797 -0.1787
28515SOL     OW90391   9.420   2.368   9.316 -0.8077 -0.0341  0.1496
28515SOL    HW190392   9.384   2.367   9.228 -1.6105  2.4945  0.4209
28515SOL    HW290393   9.344   2.367   9.374 -0.2903 -1.3227  0.8318
28516SOL     OW90394   0.548   9.057   7.072 -0.2318  0.1372  0.1032
28516SOL    HW190395   0.629   9.092   7.033 -1.7507  2.7752 -0.8097
28516SOL    HW290396   0.530   9.116   7.145  0.0207 -1.9732  1.9036
28517SOL     OW90397   0.358   0.736   7.748 -0.1693  0.2195 -0.1054
28517SOL    HW190398   0.320   0.823   7.736  0.7115  0.8753  1.6703
28517SOL    HW290399   0.391   0.712   7.662  0.2794  1.9923 -0.4463
28518SOL     OW90400   9.152   2.348   7.931 -0.4955  0.1384 -0.1328
28518SOL    HW190401   9.107   2.361   7.848 -1.4918 -0.6091  0.2778
28518SOL    HW290402   9.160   2.435   7.969  1.2130  0.6765 -1.6342
28519SOL     OW90403   9.041   9.257   0.012 -0.8432  0.2067 -0.1068
28519SOL    HW190404   9.089   9.307  -0.054 -0.7987 -1.2093 -1.1691
28519SOL    HW290405   8.951   9.256  -0.020 -0.4433 -2.3040 -1.3217
28520SOL     OW90406   8.815   0.781   9.825  0.2042  0.1970  0.0078
28520SOL    HW190407   8.761   0.740   9.758  0.0548  0.4813 -0.0474
28520SOL    HW290408   8.771   0.762   9.908  1.2033 -1.4774  0.1861
28521SOL     OW90409   9.549   0.435   9.354  0.4108  0.4878 -0.1727
28521SOL    HW190410   9.619   0.497   9.334 -0.2763  1.6076  0.8491
28521SOL    HW290411   9.555   0.369   9.285  2.3074  0.7083 -0.2444
28522SOL     OW90412   9.823   2.165   7.218  0.1431  0.4680  0.2748
28522SOL    HW190413   9.869   2.124   7.291 -0.4510  0.0544  0.4206
28522SOL    HW290414   9.856   2.254   7.216  3.8996 -0.8802 -2.0745
28523SOL     OW90415   9.806   0.546   8.064  0.0545 -0.3524  0.8655
28523SOL    HW190416   9.742   0.477   8.080 -1.8999  1.4119  0.9353
28523SOL    HW290417   9.869   0.507   8.003 -1.0783 -2.1397  0.8049
28524SOL     OW90418   9.271   1.569   7.504  0.8284 -0.7401 -0.2796
28524SOL    HW190419   9.345   1.552   7.563  0.0915  1.5481  1.3572
28524SOL    HW290420   9.311   1.612   7.428  1.2383  0.3190  0.5178
28525SOL     OW90421   9.982   0.431   7.900  0.2829  0.0339  0.1347
28525SOL    HW190422  10.026   0.347   7.887 -0.3416 -0.1353 -0.9701
28525SOL    HW290423  10.033   0.493   7.847  0.6441  0.3267  0.8146
28526SOL     OW90424   9.909   0.324   0.334 -0.2990 -0.0618  0.4887
28526SOL    HW190425   9.830   0.377   0.319 -0.8816 -1.1868 -0.5530
28526SOL    HW290426   9.969   0.350   0.263  0.1973  0.6611  1.1724
28527SOL     OW90427   8.995   0.532   5.839 -0.0660 -0.0139  0.4463
28527SOL    HW190428   9.043   0.594   5.895 -0.0001 -0.7129  1.1678
28527SOL    HW290429   9.058   0.508   5.771  0.1186  0.2193  0.5315
28528SOL     OW90430   8.887   9.942   9.942 -0.1594  0.6029  0.4081
28528SOL    HW190431   8.906   9.864   9.995  0.8511  0.7149  0.2227
28528SOL    HW290432   8.795   9.934   9.920 -0.3745  0.0907  1.4468
28529SOL     OW90433   9.499   0.685   0.266  0.3235 -0.0995  0.4299
28529SOL    HW190434   9.517   0.750   0.198 -0.8689 -1.4304 -1.1995
28529SOL    HW290435   9.464   0.735   0.339  1.9182  1.3892  0.2055
28530SOL     OW90436   9.319   1.302   8.903  0.0603  0.0882  0.0216
28530SOL    HW190437   9.362   1.348   8.974 -0.7144  0.8834 -0.0186
28530SOL    HW290438   9.226   1.302   8.927 -0.0544 -0.6779 -0.4053
28531SOL     OW90439   9.873   0.318   9.325  0.0035 -0.6014 -0.9137
28531SOL    HW190440   9.915   0.329   9.410 -0.0119  1.2097 -1.1125
28531SOL    HW290441   9.783   0.348   9.339 -0.3353 -1.4109 -1.2913
28532SOL     OW90442   9.501   1.095   0.385 -0.3901  0.4266  0.3459
28532SOL    HW190443   9.419   1.045   0.380  0.5501 -0.9538 -1.9316
28532SOL    HW290444   9.498   1.153   0.308  1.2021 -0.3403 -0.3094
28533SOL     OW90445   0.706   0.568   7.854 -0.2447 -0.3311 -0.0921
28533SOL    HW190446   0.662   0.544   7.772  0.9466 -0.4659 -0.7100
28533SOL    HW290447   0.639   0.561   7.921 -1.3385  0.1745 -1.1287
28534SOL     OW90448   0.009   0.950   0.009  0.2312 -0.3112 -0.3351
28534SOL    HW190449   0.035   1.040   0.027 -1.6773  0.0644  0.5973
28534SOL    HW290450   0.007   0.945  -0.087 -0.2201  0.7971 -0.3943
28535SOL     OW90451   1.243   1.098   7.233 -0.2638  0.0985  0.0638
28535SOL    HW190452   1.212   1.067   7.318 -0.8163  0.3086 -0.0586
28535SOL    HW290453   1.183   1.059   7.170 -1.7943  2.4669  0.0015
28536SOL     OW90454   9.731   0.973   1.095  0.0189  0.4882 -0.0198
28536SOL    HW190455   9.731   0.930   1.180  1.1668  1.3160  0.4201
28536SOL    HW290456   9.812   1.024   1.094 -0.4516  1.2470 -1.2186
28537SOL     OW90457   9.187   1.935   9.375 -0.1478 -0.2954 -0.2385
28537SOL    HW190458   9.119   1.887   9.327  0.1048 -0.7648 -0.1341
28537SOL    HW290459   9.208   2.010   9.319 -0.3118 -0.4879 -0.5623
28538SOL     OW90460   8.544   9.667   8.356  0.1115 -0.2362  0.1826
28538SOL    HW190461   8.552   9.587   8.305  0.5129  1.0241 -1.7777
28538SOL    HW290462   8.455   9.697   8.340  1.5293  2.4680 -3.3930
28539SOL     OW90463   8.542   2.218   0.572  0.5445 -0.8213  0.0062
28539SOL    HW190464   8.540   2.313   0.567 -2.6977 -0.9202 -2.2301
28539SOL    HW290465   8.612   2.192   0.512 -0.1312  0.0830 -1.1845
28540SOL     OW90466   9.177   1.018   9.614 -0.7527 -0.4282 -0.1402
28540SOL    HW190467   9.260   0.971   9.609 -1.2062 -1.1920 -0.5721
28540SOL    HW290468   9.159   1.044   9.524 -1.3570 -0.9233 -0.1638
28541SOL     OW90469   0.112   9.881   0.956  0.5099 -0.0013 -0.3575
28541SOL    HW190470   0.187   9.896   0.898  2.5362  0.2844  2.2367
28541SOL    HW290471   0.116   9.787   0.976  2.0163  0.5413  2.1232
28542SOL     OW90472   0.137   1.315   0.564  0.3385 -0.5279  0.2658
28542SOL    HW190473   0.156   1.366   0.485  1.0961 -2.9975 -1.2184
28542SOL    HW290474   0.198   1.348   0.629  1.2592  0.0181 -0.8525
28543SOL     OW90475   0.498   1.732   9.511 -0.5099  0.1278 -0.4026
28543SOL    HW190476   0.555   1.736   9.434  0.5819  0.5704  0.4192
28543SOL    HW290477   0.501   1.641   9.538 -0.0091  0.1992 -0.2196
28544SOL     OW90478   9.203   1.959   0.839 -0.3420  0.5462 -0.2724
28544SOL    HW190479   9.220   2.050   0.866  0.5225  0.3348 -0.0662
28544SOL    HW290480   9.143   1.966   0.766  0.2611  1.3254 -0.7023
28545SOL     OW90481   0.673   0.005   9.476  0.4724  0.4278  0.2393
28545SOL    HW190482   0.645   0.029   9.387 -2.7521  1.2437  1.4075
28545SOL    HW290483   0.680  -0.091   9.474 -1.3996  0.2918 -0.4184
28546SOL     OW90484   9.418   0.881   9.598  0.0319 -0.5116  0.0582
28546SOL    HW190485   9.415   0.789   9.626  1.4060 -0.6993 -0.3488
28546SOL    HW290486   9.481   0.922   9.658 -1.7131  0.5263  1.2048
28547SOL     OW90487   0.268   0.570   1.132 -0.6949  0.0792  0.3858
28547SOL    HW190488   0.332   0.632   1.164 -0.5457  0.2113 -0.1713
28547SOL    HW290489   0.262   0.503   1.201  1.4498 -0.9618 -0.4106
28548SOL     OW90490   9.082   1.525   0.074  0.1683  0.0826  0.3686
28548SOL    HW190491   9.162   1.480   0.048 -0.4143  0.2400 -1.7546
28548SOL    HW290492   9.011   1.463   0.057 -0.3647  0.7299  0.1692
28549SOL     OW90493   9.220   8.250   9.654  0.0849 -1.1262  0.3467
28549SOL    HW190494   9.259   8.317   9.710 -1.5131 -0.3137  0.5166
28549SOL    HW290495   9.182   8.186   9.715 -0.8788 -0.6963  0.2130
28550SOL     OW90496   0.926   1.597   0.098  0.5953 -0.4235  0.1492
28550SOL    HW190497   0.910   1.637   0.013  2.8795 -2.6218 -1.4044
28550SOL    HW290498   0.841   1.566   0.127  0.1819 -1.9535 -2.5738
28551SOL     OW90499   9.413   0.246   1.078  0.1142  0.1013  0.1427
28551SOL    HW190500   9.466   0.326   1.078  0.0592  0.1349  0.6487
28551SOL    HW290501   9.390   0.232   1.169  0.4430 -0.7125  0.1037
28552SOL     OW90502   9.760   9.708   9.189 -0.4166 -0.7468 -0.1680
28552SOL    HW190503   9.724   9.755   9.264  1.7109 -0.7913  0.9201
28552SOL    HW290504   9.831   9.763   9.157 -0.1263 -1.5896 -1.0363
28553SOL     OW90505   9.063   0.191   8.668  0.2769  0.1721 -0.0588
28553SOL    HW190506   8.968   0.195   8.662  0.2141  0.7170  1.3322
28553SOL    HW290507   9.081   0.175   8.760  1.6848  4.5676  0.5059
28554SOL     OW90508   0.286   1.001   0.576 -0.2101 -0.6080 -0.2604
28554SOL    HW190509   0.197   1.013   0.543 -0.8528 -2.4946  0.7085
28554SOL    HW290510   0.341   1.051   0.516 -1.9476  0.8169 -0.7005
28555SOL     OW90511   9.459   9.508   0.735 -0.3140  0.0724  0.1232
28555SOL    HW190512   9.364   9.515   0.726 -0.1765  0.8165 -0.8582
28555SOL    HW290513   9.491   9.596   0.715  0.5569 -0.0754  0.8351
28556SOL     OW90514   8.508   0.131   9.245  0.0625  0.1193 -1.1428
28556SOL    HW190515   8.557   0.052   9.224 -0.4502  0.2122 -2.8001
28556SOL    HW290516   8.426   0.099   9.282  1.0293 -0.0481  0.9081
28557SOL     OW90517   0.061   0.336   9.094  0.4378 -0.4631  0.0162
28557SOL    HW190518   0.114   0.261   9.119 -2.0793 -1.7100  1.8393
28557SOL    HW290519   0.046   0.383   9.175 -1.4678 -0.3230 -0.3895
28558SOL     OW90520   9.280   1.325   9.539 -0.5733 -0.0710  0.4249
28558SOL    HW190521   9.241   1.284   9.616 -0.6843  2.2115  1.6424
28558SOL    HW290522   9.225   1.402   9.523  1.8943  1.8213  0.6547
28559SOL     OW90523   0.934   0.561   0.791  0.0492  0.5705  0.3465
28559SOL    HW190524   0.839   0.555   0.806  0.2822 -1.4367  1.2730
28559SOL    HW290525   0.973   0.540   0.876  1.3289  0.2553 -0.3007
28560SOL     OW90526   0.243   1.134   9.901 -0.5243 -0.7229 -0.4184
28560SOL    HW190527   0.307   1.145   9.831 -0.4646  4.0301  0.2172
28560SOL    HW290528   0.171   1.193   9.879 -1.8554 -1.3152  2.0422
28561SOL     OW90529   9.965   9.833   0.308  0.1657  0.0201 -0.0799
28561SOL    HW190530   9.960   9.921   0.270 -0.4261  0.8048  1.7484
28561SOL    HW290531   9.968   9.848   0.403  0.6254 -1.9151  0.2397
28562SOL     OW90532   9.684   8.213   9.239  0.1109 -0.0099  0.6536
28562SOL    HW190533   9.674   8.193   9.145 -1.7258  2.5728  0.2691
28562SOL    HW290534   9.753   8.279   9.242 -1.4246  1.5969  0.8976
28563SOL     OW90535   1.196   2.363   9.572 -0.8653  0.0537 -0.6212
28563SOL    HW190536   1.182   2.284   9.626 -1.2227  0.9611  0.6331
28563SOL    HW290537   1.273   2.404   9.611 -1.8413  1.3531 -0.0592
28564SOL     OW90538   8.072   1.753   9.515 -0.1117 -0.3888  0.2296
28564SOL    HW190539   7.989   1.779   9.555  0.3829  0.1160  0.9422
28564SOL    HW290540   8.112   1.692   9.578  0.8573  0.7267  0.7147
28565SOL     OW90541   8.542   9.203   0.886  0.2216  0.2669  0.1436
28565SOL    HW190542   8.521   9.280   0.938 -3.1896  0.8530 -1.9766
28565SOL    HW290543   8.603   9.235   0.820 -1.8174  1.3996 -1.2394
28566SOL     OW90544   0.157   9.313   9.144 -0.7317 -0.4041  0.3207
28566SOL    HW190545   0.062   9.320   9.135 -0.6630  2.3893  1.5778
28566SOL    HW290546   0.190   9.325   9.055 -1.4248  1.2216  0.2738
28567SOL     OW90547   8.866   2.598   9.893 -0.6196 -0.6064 -0.2538
28567SOL    HW190548   8.856   2.534   9.964 -2.0335 -0.5516 -0.4008
28567SOL    HW290549   8.786   2.651   9.896  0.1928  0.6723 -0.6235
28568SOL     OW90550   0.898   1.983   9.291  0.2939 -0.8299  0.0016
28568SOL    HW190551   0.817   2.017   9.330 -0.1923  3.2110 -4.0662
28568SOL    HW290552   0.877   1.974   9.198  4.3523 -0.2946 -1.0293
28569SOL     OW90553   9.148   0.595   0.163 -0.3658 -0.1436  0.1969
28569SOL    HW190554   9.104   0.680   0.174 -0.1494 -0.3222  2.9601
28569SOL    HW290555   9.231   0.617   0.120 -1.1218  0.7866 -0.8292
28570SOL     OW90556   9.637   4.276   2.459  0.8545 -0.0758 -0.5639
28570SOL    HW190557   9.699   4.339   2.420  1.5562 -0.7927 -0.6210
28570SOL    HW290558   9.690   4.225   2.520 -0.0704  0.4725  0.7185
28571SOL     OW90559   8.933   3.941   2.789 -0.4322  0.1252  0.4083
28571SOL    HW190560   8.925   3.973   2.879 -1.4819 -2.9308  1.4659
28571SOL    HW290561   8.846   3.956   2.751 -0.6560 -0.5960  0.6239
28572SOL     OW90562   0.043   2.418   9.567 -0.4391  0.0436  0.4042
28572SOL    HW190563   0.138   2.426   9.568 -0.2863 -1.7418  0.5833
28572SOL    HW290564   0.020   2.382   9.653 -0.9664 -2.6716 -0.8159
28573SOL     OW90565   8.246   3.157   0.582  0.4364  1.3809 -0.1779
28573SOL    HW190566   8.155   3.167   0.610 -0.2370 -1.3833 -1.2070
28573SOL    HW290567   8.262   3.063   0.586  2.5499  1.6133 -2.1454
28574SOL     OW90568   9.599   2.965   1.826 -0.4040 -0.1403  0.2681
28574SOL    HW190569   9.694   2.968   1.821 -0.4872  0.1799 -1.1327
28574SOL    HW290570   9.575   3.046   1.872  0.0625 -0.7967  1.6861
28575SOL     OW90571   9.529   1.237   0.136 -0.6334  0.3271  0.5374
28575SOL    HW190572   9.546   1.318   0.184  0.0075  1.3432 -1.3548
28575SOL    HW290573   9.613   1.190   0.138  0.2300  1.6380 -1.8657
28576SOL     OW90574   1.163   2.835   1.852  0.4230 -0.0715  0.0493
28576SOL    HW190575   1.089   2.791   1.895 -0.2000 -0.1315 -1.0667
28576SOL    HW290576   1.133   2.851   1.763  1.4143  0.7735 -0.1434
28577SOL     OW90577   0.533   4.306   9.939  0.0150  0.1899 -0.0376
28577SOL    HW190578   0.586   4.253   9.999 -0.4099 -0.7471 -0.4753
28577SOL    HW290579   0.445   4.268   9.945 -1.0094  2.7573  1.9033
28578SOL     OW90580   0.334   1.904   2.687 -0.1159  0.4823  0.1986
28578SOL    HW190581   0.420   1.866   2.703 -0.3091 -0.2822 -0.5803
28578SOL    HW290582   0.352   1.995   2.663  0.6195 -0.1602 -1.8140
28579SOL     OW90583   9.933   1.617   1.165  0.3666  0.1118  0.1723
28579SOL    HW190584  10.002   1.624   1.231 -0.8949  0.0972  1.5100
28579SOL    HW290585   9.895   1.531   1.180 -0.0558  0.1917 -0.4515
28580SOL     OW90586   9.578   3.604   2.191 -0.5075 -0.0763  0.3756
28580SOL    HW190587   9.487   3.614   2.221 -0.1047  2.5084  0.8170
28580SOL    HW290588   9.612   3.693   2.187  2.0893 -1.0331  0.3935
28581SOL     OW90589   9.902   3.279   1.772  0.1716 -0.5814 -0.0850
28581SOL    HW190590   9.835   3.343   1.748  1.8447  0.6544 -1.6575
28581SOL    HW290591   9.984   3.328   1.767  1.2092 -2.0559  1.8025
28582SOL     OW90592   9.697   3.218   0.658  0.6131  0.0518  0.4646
28582SOL    HW190593   9.762   3.158   0.692  1.9706  1.9545  1.3076
28582SOL    HW290594   9.685   3.191   0.566  0.4053 -2.1100  1.0998
28583SOL     OW90595   0.499   2.202   2.557 -0.0410  0.4386 -0.2736
28583SOL    HW190596   0.577   2.146   2.557 -1.6932 -1.9730  1.2694
28583SOL    HW290597   0.502   2.247   2.641 -1.4779 -1.4221  0.8068
28584SOL     OW90598   8.876   3.802   2.029  0.2686 -0.6556 -0.4873
28584SOL    HW190599   8.968   3.814   2.006  0.3122 -2.2598 -1.2078
28584SOL    HW290600   8.863   3.855   2.108  1.1275  1.7207 -1.9186
28585SOL     OW90601   9.113   2.657   0.909 -0.2023  0.1464  0.0066
28585SOL    HW190602   9.033   2.610   0.933 -0.1378 -0.0905 -0.2426
28585SOL    HW290603   9.104   2.742   0.951 -0.3561 -0.0587  0.3957
28586SOL     OW90604   9.959   4.063   0.580  0.4021  0.3202 -0.3749
28586SOL    HW190605  10.042   4.090   0.621 -0.4136 -1.9281  2.9151
28586SOL    HW290606   9.895   4.127   0.612  0.6692  1.6155 -2.3303
28587SOL     OW90607   0.201   3.506   9.219 -0.1609 -0.0052 -0.2849
28587SOL    HW190608   0.110   3.534   9.208  0.1731  1.3261  0.2999
28587SOL    HW290609   0.203   3.418   9.181 -1.8397 -0.3076  0.2862
28588SOL     OW90610   9.803   3.194   2.475 -0.5687 -0.0609 -0.1254
28588SOL    HW190611   9.787   3.274   2.425  0.5215  0.0911 -0.2487
28588SOL    HW290612   9.822   3.225   2.564 -0.2656 -0.1883 -0.1462
28589SOL     OW90613   9.084   3.866   2.345 -0.1114  0.3759 -0.1917
28589SOL    HW190614   9.085   3.829   2.257  0.4783  0.8284 -0.3826
28589SOL    HW290615   9.090   3.790   2.403 -2.0751 -0.0345 -0.4904
28590SOL     OW90616   9.733   3.230   8.782 -0.2537  0.2569 -0.5817
28590SOL    HW190617   9.774   3.148   8.810  0.7274  1.0827  0.4504
28590SOL    HW290618   9.674   3.205   8.711  0.2900 -1.2930 -0.4928
28591SOL     OW90619   8.595   4.033   1.360 -0.4195  0.3362 -0.4794
28591SOL    HW190620   8.625   4.077   1.280  0.3146 -0.0496 -0.4223
28591SOL    HW290621   8.676   4.006   1.404 -0.8578 -1.6158 -0.8189
28592SOL     OW90622   8.739   1.589   9.896 -0.3120  0.2476  0.1009
28592SOL    HW190623   8.675   1.637   9.844 -0.9809  0.4824  1.1282
28592SOL    HW290624   8.749   1.640   9.976  0.7657 -0.0679  0.1827
28593SOL     OW90625   9.615   4.548   0.770  0.4551  0.0317 -0.1943
28593SOL    HW190626   9.551   4.479   0.789  0.9419 -0.1761  0.7086
28593SOL    HW290627   9.602   4.567   0.677  0.2978 -1.2555 -0.4510
28594SOL     OW90628   9.728   2.346   0.408  0.3614  0.4149  0.8810
28594SOL    HW190629   9.710   2.306   0.493 -1.7072 -2.1438 -0.6656
28594SOL    HW290630   9.664   2.417   0.401 -0.7131 -0.5353  0.7635
28595SOL     OW90631   9.802   1.905   0.161  1.0573 -0.6310 -0.0492
28595SOL    HW190632   9.842   1.822   0.135  0.1703 -0.4523 -2.0794
28595SOL    HW290633   9.873   1.969   0.151  1.5841 -1.0408  0.9758
28596SOL     OW90634   0.289   9.555   0.425 -0.2369 -0.1055 -0.2721
28596SOL    HW190635   0.291   9.623   0.491  0.3447 -0.7746  0.4086
28596SOL    HW290636   0.381   9.541   0.401 -0.3241 -0.8527 -0.1877
28597SOL     OW90637   0.804   1.742   1.885 -0.3692  0.4716  0.6977
28597SOL    HW190638   0.710   1.737   1.903 -0.5772  1.3868 -0.0779
28597SOL    HW290639   0.810   1.782   1.798  0.6965 -1.0638  0.0313
28598SOL     OW90640   8.933   3.499   1.764 -0.2543 -0.0414 -0.3321
28598SOL    HW190641   9.003   3.508   1.829  1.1466 -1.5724 -1.5610
28598SOL    HW290642   8.878   3.428   1.797 -0.9648  0.8490  0.4042
28599SOL     OW90643   9.109   1.564   9.543  1.1154  0.4697 -0.6467
28599SOL    HW190644   9.032   1.620   9.556  0.8748 -0.3288  1.6018
28599SOL    HW290645   9.183   1.625   9.542  0.9599  0.8072  2.8548
28600SOL     OW90646   0.778   2.433   9.904 -0.7133 -0.0900 -0.8057
28600SOL    HW190647   0.833   2.369   9.859 -0.7589 -1.0554  0.4857
28600SOL    HW290648   0.749   2.388   9.983  0.7154  2.1309  1.0407
28601SOL     OW90649   0.744   2.990   2.231  0.0497  0.1365  0.3454
28601SOL    HW190650   0.701   2.955   2.309  1.0885 -0.9610  0.4381
28601SOL    HW290651   0.825   2.940   2.224 -0.8426 -1.0160 -2.4610
28602SOL     OW90652   1.116   0.159   3.064  0.2750  0.7374 -0.4922
28602SOL    HW190653   1.094   0.096   3.133 -1.0586 -0.0908 -1.6411
28602SOL    HW290654   1.081   0.242   3.094 -0.9783  0.2233 -0.5007
28603SOL     OW90655   0.125   2.805   2.953 -0.1327 -0.0941  0.9970
28603SOL    HW190656   0.189   2.735   2.941 -0.9481 -0.6245 -0.4642
28603SOL    HW290657   0.084   2.815   2.867  2.2009  4.4481  0.2611
28604SOL     OW90658   0.243   2.184   2.466 -0.0118 -0.8944 -0.3339
28604SOL    HW190659   0.212   2.172   2.556 -0.7609 -2.3167 -0.7549
28604SOL    HW290660   0.339   2.188   2.474 -0.0945 -0.6080  0.5675
28605SOL     OW90661   9.990   4.326   2.647  0.2556 -0.2174  0.1555
28605SOL    HW190662   9.959   4.236   2.651  2.7169 -1.0862  1.1007
28605SOL    HW290663   9.987   4.357   2.738  0.0863  0.4172 -0.0587
28606SOL     OW90664   0.088   2.324   2.935  0.3811  0.3160 -0.1826
28606SOL    HW190665   0.165   2.310   2.990  0.5130 -1.2295 -0.7329
28606SOL    HW290666   0.026   2.372   2.991  0.3266 -1.6380  1.4695
28607SOL     OW90667   7.555   4.373   0.214 -0.3355  0.5217 -0.0281
28607SOL    HW190668   7.465   4.389   0.240 -0.2074  0.1689  0.6304
28607SOL    HW290669   7.573   4.284   0.242  0.7592  1.1645  1.3459
28608SOL     OW90670   8.862   3.255   1.848  0.5451 -0.0064 -0.3896
28608SOL    HW190671   8.864   3.279   1.940  0.7479 -0.1136 -0.3647
28608SOL    HW290672   8.927   3.185   1.840 -1.5302 -2.0224 -0.0543
28609SOL     OW90673   8.791   2.160   1.439 -0.3696  0.1676  0.1975
28609SOL    HW190674   8.844   2.082   1.454 -0.8386 -0.2531 -0.3244
28609SOL    HW290675   8.729   2.135   1.370  0.3713  1.4102 -0.9583
28610SOL     OW90676   9.642   3.586   0.359  0.3797  0.0140 -0.0738
28610SOL    HW190677   9.625   3.492   0.354 -1.8251  0.3601  0.5881
28610SOL    HW290678   9.680   3.599   0.446  0.2249 -0.1885  0.0232
28611SOL     OW90679   9.168   2.970   0.691  0.1235  0.2904 -0.4325
28611SOL    HW190680   9.230   3.035   0.658 -0.1412 -0.3543 -2.2674
28611SOL    HW290681   9.223   2.900   0.726  0.4089  0.8477  0.2479
28612SOL     OW90682   8.856   1.689   1.081 -0.4861  0.0211 -0.4329
28612SOL    HW190683   8.931   1.649   1.037  0.0407  0.1523  0.3404
28612SOL    HW290684   8.894   1.738   1.154 -1.1325  1.8620 -1.3070
28613SOL     OW90685   9.072   1.652   0.320  0.1947 -0.4035 -0.0617
28613SOL    HW190686   9.066   1.584   0.252  0.3614 -0.0442 -0.4392
28613SOL    HW290687   9.121   1.610   0.391  0.4418 -0.6277 -0.3592
28614SOL     OW90688   8.708   1.747   0.137  0.4079 -0.7764 -0.1333
28614SOL    HW190689   8.730   1.821   0.195 -0.3676 -1.0829  0.5526
28614SOL    HW290690   8.709   1.671   0.195  2.9652 -1.5915 -1.1748
28615SOL     OW90691   9.969   3.755   2.988 -0.2407 -0.1380  0.1234
28615SOL    HW190692   9.974   3.764   2.893 -2.6272  1.4940  0.1064
28615SOL    HW290693   9.919   3.831   3.016 -0.8139 -1.3809  2.5504
28616SOL     OW90694   9.871   1.583   0.717 -0.0992  0.4719 -0.7033
28616SOL    HW190695   9.804   1.598   0.651 -0.4444  2.5817  0.0873
28616SOL    HW290696   9.907   1.670   0.736  2.3750 -0.5333 -0.5985
28617SOL     OW90697   0.001   1.354   1.551  0.8790  0.6219  0.4607
28617SOL    HW190698   0.060   1.280   1.534  0.1518 -0.2108  1.4828
28617SOL    HW290699  -0.043   1.370   1.468 -1.3445 -2.2355  1.0103
28618SOL     OW90700   0.360   4.551   1.871 -0.0108 -0.3466  0.1984
28618SOL    HW190701   0.277   4.544   1.825 -0.5277  1.9182  0.6822
28618SOL    HW290702   0.347   4.503   1.953  0.5669 -3.4957 -1.5067
28619SOL     OW90703   8.348   2.923   3.024  0.0571  0.3339  0.1311
28619SOL    HW190704   8.380   2.992   3.082 -0.6464  0.8804 -0.1366
28619SOL    HW290705   8.340   2.846   3.082 -0.1101  0.7290  0.6406
28620SOL     OW90706   9.842   2.068   1.880 -0.6535 -0.7481 -0.0807
28620SOL    HW190707   9.822   2.124   1.805 -0.1770 -0.7517 -0.2087
28620SOL    HW290708   9.834   1.979   1.847 -0.7327 -0.7538 -0.0488
28621SOL     OW90709   8.982   3.054   0.522  0.3601  0.1091  0.1638
28621SOL    HW190710   9.028   3.034   0.604 -0.4596  0.8567  0.8236
28621SOL    HW290711   8.897   3.012   0.532 -0.2931  1.4607  0.3313
28622SOL     OW90712   0.303   3.601   9.940 -0.9183 -0.1759 -0.2649
28622SOL    HW190713   0.369   3.562   9.883 -0.9055  0.1621 -0.4836
28622SOL    HW290714   0.321   3.695   9.938 -0.3479 -0.2406  1.0116
28623SOL     OW90715   9.103   1.808   0.088 -0.7148 -0.6589  0.5661
28623SOL    HW190716   9.139   1.746   0.025 -0.2948 -1.2883  1.4204
28623SOL    HW290717   9.068   1.753   0.158  0.0416  0.0787  1.5298
28624SOL     OW90718   0.151   3.065   1.568  0.2251  0.1167 -0.8124
28624SOL    HW190719   0.165   3.154   1.538  1.8292 -0.0626 -0.6466
28624SOL    HW290720   0.065   3.041   1.534 -1.3900  2.6048  1.3303
28625SOL     OW90721   9.689   2.196   0.644  0.3250  0.8818  0.3844
28625SOL    HW190722   9.717   2.198   0.736 -1.4901 -0.5459  1.0028
28625SOL    HW290723   9.686   2.102   0.623 -0.3171  1.1688 -0.8211
28626SOL     OW90724   9.924   2.815   9.018  0.0783 -0.3338 -0.0786
28626SOL    HW190725   9.980   2.788   8.944  0.3849  1.8852 -0.6973
28626SOL    HW290726   9.985   2.851   9.082 -0.4943  0.8688 -0.1919
28627SOL     OW90727   9.331   1.416   0.737 -0.1752  0.3505 -0.3282
28627SOL    HW190728   9.401   1.368   0.783 -0.6428  0.8466  0.9159
28627SOL    HW290729   9.258   1.354   0.733  0.3330 -0.1755 -1.6476
28628SOL     OW90730   0.597   1.743   0.043  0.6319  0.2026  0.1872
28628SOL    HW190731   0.515   1.765   0.087  0.8886  0.2552  0.6427
28628SOL    HW290732   0.586   1.653   0.014  1.6137 -0.9091  3.0679
28629SOL     OW90733   1.708   1.909   9.496 -0.1775  0.1310  0.3081
28629SOL    HW190734   1.711   1.913   9.592  2.2942  0.9567  0.2426
28629SOL    HW290735   1.620   1.939   9.474 -0.7019  0.1877  2.3213
28630SOL     OW90736   9.872   3.011   1.837  0.2057  0.1913 -0.4448
28630SOL    HW190737   9.876   3.017   1.932 -1.1390  0.3092 -0.3931
28630SOL    HW290738   9.894   3.099   1.806  0.1256  0.2840 -0.2336
28631SOL     OW90739   8.055   1.906   0.847 -0.1097  0.4004  0.4333
28631SOL    HW190740   8.068   1.983   0.791 -1.1902 -0.6901 -1.3816
28631SOL    HW290741   8.131   1.851   0.830 -0.9698 -0.4183 -0.7999
28632SOL     OW90742   9.455   2.844   0.996 -0.3096 -0.0000 -0.1741
28632SOL    HW190743   9.426   2.818   0.909  0.5768 -0.2351 -0.4017
28632SOL    HW290744   9.483   2.935   0.985  0.1931 -0.1605 -0.2280
28633SOL     OW90745   8.233   2.418   1.071 -0.4455 -0.3310 -0.3041
28633SOL    HW190746   8.315   2.369   1.079  0.1232  0.4341 -1.3520
28633SOL    HW290747   8.245   2.472   0.993 -1.4786  0.6876  0.2300
28634SOL     OW90748   9.391   2.592   1.126  0.3192  0.0129  0.2213
28634SOL    HW190749   9.432   2.678   1.119  1.3865 -0.5910 -1.4746
28634SOL    HW290750   9.428   2.543   1.052 -0.6055 -1.7476  0.9118
28635SOL     OW90751   8.215   2.518   8.945 -0.3651  0.1556  0.0864
28635SOL    HW190752   8.273   2.580   8.989  2.7957 -1.9962 -0.9168
28635SOL    HW290753   8.199   2.449   9.009 -3.2942  1.5528  0.9518
28636SOL     OW90754   9.163   1.899   2.970  0.4006 -0.1531 -0.3849
28636SOL    HW190755   9.171   1.808   2.942  0.9232  0.1549 -1.2556
28636SOL    HW290756   9.253   1.926   2.990  0.1661 -0.0287  0.5280
28637SOL     OW90757   8.680   2.454   2.253 -0.1485 -0.5835 -0.3299
28637SOL    HW190758   8.741   2.396   2.207 -1.5926 -1.1002 -1.6335
28637SOL    HW290759   8.618   2.395   2.295  0.2405 -0.0585  1.0222
28638SOL     OW90760   9.694   2.546   3.331  0.6791  0.9474 -0.1334
28638SOL    HW190761   9.619   2.589   3.290  1.5752 -0.4617 -3.4455
28638SOL    HW290762   9.656   2.477   3.385 -0.5305  2.6019  1.1592
28639SOL     OW90763   0.824   2.676   2.891 -0.4610  0.7186 -0.5691
28639SOL    HW190764   0.858   2.588   2.879  1.3429  1.1698  0.9666
28639SOL    HW290765   0.747   2.664   2.947  1.3236  0.3159  1.8981
28640SOL     OW90766   9.513   2.815   4.341 -0.0073  0.0565  0.0024
28640SOL    HW190767   9.519   2.725   4.373 -1.8121  0.8755  2.8272
28640SOL    HW290768   9.591   2.858   4.376 -0.2582  0.1042  0.5166
28641SOL     OW90769   8.946   1.999   3.118  0.1978 -0.4573  0.0405
28641SOL    HW190770   8.906   1.914   3.135  0.5715 -0.9882 -1.6644
28641SOL    HW290771   9.031   1.979   3.079  0.2504  0.6911 -0.4604
28642SOL     OW90772   8.299   4.556   2.459 -0.6599 -0.6542 -0.5882
28642SOL    HW190773   8.242   4.584   2.531  0.2978  0.7512 -0.3607
28642SOL    HW290774   8.369   4.507   2.501  0.1012  0.4828 -0.5076
28643SOL     OW90775   9.077   3.446   3.281  0.1796  0.1720 -0.0955
28643SOL    HW190776   8.982   3.438   3.283  0.1916  0.3290  1.3213
28643SOL    HW290777   9.109   3.378   3.340  0.8405  1.4909  1.1181
28644SOL     OW90778   0.865   2.693   2.550  0.3153 -0.5095 -0.4684
28644SOL    HW190779   0.871   2.697   2.454 -1.6361  0.2874 -0.5818
28644SOL    HW290780   0.825   2.608   2.569  0.5154 -0.5823 -0.3708
28645SOL     OW90781   8.963   3.654   2.939  0.3626 -0.1997 -0.0859
28645SOL    HW190782   9.029   3.707   2.894  0.3071  1.3370  1.5589
28645SOL    HW290783   9.010   3.575   2.965  0.8508 -0.3054 -1.2647
28646SOL     OW90784   9.669   1.722   3.476 -0.4811  0.1822 -0.6424
28646SOL    HW190785   9.630   1.654   3.531  0.8499 -0.0531  0.0323
28646SOL    HW290786   9.697   1.789   3.538 -1.1980  1.0620 -1.2496
28647SOL     OW90787   9.180   3.306   1.203 -0.4067  0.9099  0.6814
28647SOL    HW190788   9.127   3.373   1.161  0.1418  1.9136  1.5879
28647SOL    HW290789   9.198   3.242   1.133 -0.4713  1.9696 -0.3113
28648SOL     OW90790   9.992   2.818   0.649  0.5168 -0.3128 -0.0337
28648SOL    HW190791   9.946   2.735   0.644  0.5430 -0.2249 -1.9145
28648SOL    HW290792  10.073   2.798   0.696  0.2709 -1.2232 -0.0018
28649SOL     OW90793   0.003   2.509   0.881 -0.0298 -0.2869 -0.5790
28649SOL    HW190794   0.063   2.441   0.911 -1.3233 -1.0161  0.4266
28649SOL    HW290795  -0.022   2.556   0.960 -0.7238  0.0644 -1.0033
28650SOL     OW90796   9.461   2.519   4.330  0.2890  0.0229  0.2528
28650SOL    HW190797   9.371   2.503   4.356 -0.0522 -0.5290 -1.2051
28650SOL    HW290798   9.513   2.497   4.407 -0.7766 -0.1556  0.9321
28651SOL     OW90799   0.112   1.262   1.819  0.0186 -0.5896 -0.6838
28651SOL    HW190800   0.057   1.212   1.758  0.6680 -1.0262 -0.9263
28651SOL    HW290801   0.188   1.205   1.833 -0.0878 -0.4417  0.4648
28652SOL     OW90802   0.028   2.860   2.698 -0.0943 -0.6856  0.3997
28652SOL    HW190803   0.065   2.948   2.695 -0.1218 -0.5559  2.8574
28652SOL    HW290804   0.032   2.829   2.608  1.6136  1.1340 -0.1765
28653SOL     OW90805   0.041   4.811   3.054  0.0588 -0.0685  0.3156
28653SOL    HW190806   0.008   4.730   3.017 -0.2482  0.7538 -1.2591
28653SOL    HW290807   0.106   4.783   3.119  0.0681 -1.5657 -0.3174
28654SOL     OW90808   8.860   3.748   2.555 -0.7047  0.1028  0.0190
28654SOL    HW190809   8.805   3.712   2.624 -0.3806  0.5412  0.5136
28654SOL    HW290810   8.928   3.797   2.602  0.2983 -0.6997 -0.5762
28655SOL     OW90811   0.202   3.566   4.175  0.5309 -0.0967 -0.0365
28655SOL    HW190812   0.270   3.505   4.204  0.6084  0.1132  0.2345
28655SOL    HW290813   0.191   3.626   4.249  0.6877  0.4161 -0.4249
28656SOL     OW90814   9.409   3.348   2.817 -0.3709 -0.9425 -0.4433
28656SOL    HW190815   9.382   3.372   2.905  1.9673 -3.2886  0.9616
28656SOL    HW290816   9.453   3.427   2.783 -1.1518 -0.0892  0.5185
28657SOL     OW90817   0.186   2.339   0.976  0.3579  0.6497 -0.1441
28657SOL    HW190818   0.271   2.302   0.953  0.7702  0.5016  1.6021
28657SOL    HW290819   0.207   2.415   1.030 -0.6580 -2.2157  4.5593
28658SOL     OW90820   9.458   3.890   4.122  0.3240  0.5456 -0.1198
28658SOL    HW190821   9.462   3.961   4.058 -0.8810  2.1576  1.5427
28658SOL    HW290822   9.491   3.928   4.203 -2.8477  0.0573  1.4969
28659SOL     OW90823   0.265   2.437   3.765 -0.1857  0.2253  0.1336
28659SOL    HW190824   0.360   2.431   3.755 -0.1625  0.5363  0.1458
28659SOL    HW290825   0.231   2.418   3.677 -0.1852 -1.3514  0.4661
28660SOL     OW90826   0.465   3.822   2.636 -0.1652 -0.4903  0.3275
28660SOL    HW190827   0.424   3.893   2.685 -0.7844 -2.0167  2.0629
28660SOL    HW290828   0.544   3.800   2.686 -0.2350 -1.3509  0.0698
28661SOL     OW90829   0.378   3.919   4.442 -0.8663  0.1860 -0.6151
28661SOL    HW190830   0.451   3.901   4.501 -0.0428  0.5211 -1.5150
28661SOL    HW290831   0.363   3.836   4.396 -1.7560 -0.1837  0.3165
28662SOL     OW90832   8.971   2.846   2.214  0.2145 -1.0173 -0.1353
28662SOL    HW190833   8.928   2.775   2.262  0.8293 -0.0541  1.8867
28662SOL    HW290834   9.027   2.889   2.279 -1.5889  2.5324 -0.7581
28663SOL     OW90835   8.979   2.345   1.511 -0.0627 -0.4712 -0.1994
28663SOL    HW190836   8.910   2.292   1.474  1.5950 -1.7140 -1.5660
28663SOL    HW290837   9.056   2.326   1.458  1.0599  1.7605  0.5516
28664SOL     OW90838   9.465   1.738   2.807 -0.3186 -0.3045  0.3410
28664SOL    HW190839   9.434   1.805   2.868  0.4287  1.6469 -1.3458
28664SOL    HW290840   9.543   1.702   2.849 -0.1637  0.5761  0.8433
28665SOL     OW90841   9.891   0.758   1.545 -0.3669  0.1907  0.2488
28665SOL    HW190842   9.908   0.807   1.465  0.1800  1.7617  1.3222
28665SOL    HW290843   9.924   0.670   1.526 -0.7042  0.3968 -1.4217
28666SOL     OW90844   9.932   1.849   0.663  0.4217 -0.2950 -0.0206
28666SOL    HW190845  10.012   1.858   0.613  0.1186 -0.0091 -0.4543
28666SOL    HW290846   9.862   1.846   0.597  0.0019  0.3313  0.3924
28667SOL     OW90847   0.646   0.430   1.431 -0.6236  0.1497  0.3885
28667SOL    HW190848   0.675   0.443   1.522 -0.3703 -0.3259  0.3818
28667SOL    HW290849   0.551   0.434   1.435 -0.5506  2.8027  0.2467
28668SOL     OW90850   0.660   3.558   4.037 -0.7257 -0.2542  1.1360
28668SOL    HW190851   0.676   3.517   4.122 -1.9818 -1.3303  0.8797
28668SOL    HW290852   0.675   3.488   3.974 -1.0627  0.1815  0.5674
28669SOL     OW90853   9.818   1.529   3.922 -0.4175 -0.1939 -0.3559
28669SOL    HW190854   9.798   1.601   3.862  1.1690  0.8584  0.3471
28669SOL    HW290855   9.756   1.460   3.898 -0.4536  0.5585 -2.5457
28670SOL     OW90856   1.039   1.360   3.956 -0.0431  0.1834  0.0995
28670SOL    HW190857   1.086   1.380   4.037  0.3477 -1.6206  0.3595
28670SOL    HW290858   1.011   1.269   3.968 -1.4072  0.4356 -1.1184
28671SOL     OW90859   8.531   1.268   1.479 -0.4199  0.1561  0.0447
28671SOL    HW190860   8.486   1.265   1.395 -0.0785  2.1505 -0.2275
28671SOL    HW290861   8.623   1.253   1.458 -0.4717 -0.4154  0.2027
28672SOL     OW90862   0.791   1.076   2.677 -0.3006 -0.0822  0.2582
28672SOL    HW190863   0.859   1.043   2.618 -0.5759 -1.3269  0.6382
28672SOL    HW290864   0.805   1.030   2.759 -0.2843  1.2234  1.0098
28673SOL     OW90865   0.779   4.665   4.117 -0.7390 -0.0292 -0.1111
28673SOL    HW190866   0.749   4.575   4.112 -1.5835  0.3474 -2.4270
28673SOL    HW290867   0.703   4.717   4.088 -0.6328  1.5023  2.2136
28674SOL     OW90868   9.944   3.227   3.814 -0.3509 -0.0066 -0.4841
28674SOL    HW190869   9.967   3.257   3.902  0.5688 -0.0612 -0.6989
28674SOL    HW290870   9.993   3.145   3.803 -0.2769  0.1196 -1.1333
28675SOL     OW90871   9.748   2.110   2.798 -0.3027  0.1721  0.7281
28675SOL    HW190872   9.683   2.045   2.772  0.7089 -0.9116  0.8920
28675SOL    HW290873   9.772   2.085   2.887  0.2823  0.6084  0.6945
28676SOL     OW90874   9.015   3.634   3.605  0.0732  0.2177 -0.3658
28676SOL    HW190875   9.011   3.538   3.602  0.5883  0.1943 -0.3148
28676SOL    HW290876   8.942   3.659   3.661  1.9993 -0.3288  2.4649
28677SOL     OW90877   8.812   3.110   4.068  0.0981  0.0040 -0.4828
28677SOL    HW190878   8.769   3.112   3.982  1.5935 -2.1016 -1.3126
28677SOL    HW290879   8.744   3.136   4.130 -1.0082  1.5335 -2.2928
28678SOL     OW90880   9.280   3.405   3.942 -0.1230  0.1377 -0.4187
28678SOL    HW190881   9.317   3.482   3.985  0.4435 -0.4748  0.1867
28678SOL    HW290882   9.190   3.401   3.974  0.0391  0.1735  0.0387
28679SOL     OW90883   1.379   2.960   1.635 -0.7167  0.5812 -0.1374
28679SOL    HW190884   1.444   2.918   1.579 -0.2493  1.6928 -0.4501
28679SOL    HW290885   1.363   3.045   1.593 -1.5963  0.7376  0.5070
28680SOL     OW90886   9.909   1.285   3.994  0.1836 -0.2525  0.8694
28680SOL    HW190887   9.929   1.288   4.087  0.0384 -0.0618  0.8958
28680SOL    HW290888   9.905   1.377   3.967 -1.4621 -0.2570  1.0484
28681SOL     OW90889   1.414   2.869   3.134  0.5702 -0.4013  0.4455
28681SOL    HW190890   1.374   2.805   3.074  2.1522 -1.3997  0.4375
28681SOL    HW290891   1.351   2.877   3.205 -0.9489  0.1720 -0.9308
28682SOL     OW90892   9.516   1.497   3.207 -0.8116 -0.2322  0.0484
28682SOL    HW190893   9.606   1.524   3.190 -0.8523  0.5260  1.0300
28682SOL    HW290894   9.516   1.402   3.194 -0.2286 -0.0379 -1.4988
28683SOL     OW90895   0.009   2.942   3.834  0.1743  0.4640  0.2278
28683SOL    HW190896  -0.009   2.852   3.860 -0.3496  1.0955  2.1138
28683SOL    HW290897   0.074   2.973   3.897 -0.5140  1.7758  0.3017
28684SOL     OW90898   8.207   1.729   0.344  0.2685  1.0481 -0.3683
28684SOL    HW190899   8.213   1.709   0.437  1.8209 -2.9358 -1.2136
28684SOL    HW290900   8.129   1.683   0.314  0.2271  1.6324 -1.1647
28685SOL     OW90901   9.503   2.279   2.824 -0.9611 -0.4155  0.0563
28685SOL    HW190902   9.511   2.369   2.858 -1.7726 -0.0823 -0.6039
28685SOL    HW290903   9.591   2.257   2.795 -1.1038  0.8658 -1.4588
28686SOL     OW90904   0.772   3.285   3.444 -0.1501 -0.0736  0.4852
28686SOL    HW190905   0.757   3.197   3.409 -0.6550  0.3872 -0.4678
28686SOL    HW290906   0.730   3.283   3.530 -1.1085 -0.4403  0.0229
28687SOL     OW90907   8.504   5.141   3.183  0.0220  0.2670  0.2551
28687SOL    HW190908   8.485   5.089   3.261 -0.3667  1.3442  0.8925
28687SOL    HW290909   8.419   5.176   3.157 -0.1675 -1.6201 -1.7895
28688SOL     OW90910   0.663   4.377   2.611 -0.2566 -0.1756  0.7024
28688SOL    HW190911   0.580   4.412   2.577  0.3402 -0.2879 -0.9355
28688SOL    HW290912   0.651   4.282   2.610  0.6941 -0.3103 -1.7798
28689SOL     OW90913   9.675   3.138   3.860  0.1292  0.5865  0.3594
28689SOL    HW190914   9.677   3.084   3.939  0.9775  1.3965  0.8994
28689SOL    HW290915   9.765   3.135   3.827  0.0210  1.1161  0.0167
28690SOL     OW90916   8.282   4.484   5.634  0.1477  0.1190 -0.4694
28690SOL    HW190917   8.243   4.397   5.637  0.5152 -0.0051  1.1967
28690SOL    HW290918   8.274   4.517   5.723  0.3697  1.6437 -0.9942
28691SOL     OW90919   0.426   1.765   2.223 -0.5541  0.6384  0.2285
28691SOL    HW190920   0.399   1.804   2.140  0.2982  1.4302  0.3195
28691SOL    HW290921   0.346   1.761   2.275 -1.0743  0.2439 -0.5774
28692SOL     OW90922   0.060   3.655   1.927  0.5429  0.1466 -0.1883
28692SOL    HW190923  -0.023   3.658   1.975 -0.2775  0.3400 -1.6134
28692SOL    HW290924   0.116   3.717   1.974 -0.9363  1.9275 -0.7042
28693SOL     OW90925   9.375   3.656   4.039  0.2387  0.0482  0.0602
28693SOL    HW190926   9.407   3.741   4.070  0.0377  0.3265 -0.5040
28693SOL    HW290927   9.385   3.659   3.944 -2.8761  0.7172 -0.2901
28694SOL     OW90928   1.042   2.803   3.724 -0.4698 -0.1235 -0.0182
28694SOL    HW190929   0.948   2.788   3.721 -0.5681  0.2504  1.3830
28694SOL    HW290930   1.067   2.783   3.814  0.3699  2.3370  0.3089
28695SOL     OW90931   9.755   4.317   3.342 -0.1741 -0.0504  0.0719
28695SOL    HW190932   9.772   4.235   3.296  0.9419  0.4041 -0.3506
28695SOL    HW290933   9.745   4.291   3.434 -1.1039 -0.8024 -0.2436
28696SOL     OW90934   9.985   1.566   2.111 -0.3639 -0.0774  0.3569
28696SOL    HW190935   9.947   1.642   2.068 -1.4306  0.0421  1.4905
28696SOL    HW290936   9.917   1.500   2.109 -0.2323 -0.2543  1.3599
28697SOL     OW90937   8.931   3.802   1.701 -0.2994  0.4287  0.2751
28697SOL    HW190938   8.973   3.784   1.618 -1.3154 -1.4733  0.1474
28697SOL    HW290939   8.932   3.718   1.748  0.0604  1.4151  2.0837
28698SOL     OW90940   0.781   1.403   1.110 -0.2079 -0.1375  0.0932
28698SOL    HW190941   0.710   1.345   1.138 -0.6776  1.1252  1.5803
28698SOL    HW290942   0.844   1.400   1.181  0.5082 -0.0501 -0.5344
28699SOL     OW90943   9.782   3.792   1.888 -0.5719 -0.4668  0.1402
28699SOL    HW190944   9.701   3.842   1.882 -0.8871 -1.0471 -0.5631
28699SOL    HW290945   9.851   3.858   1.875 -0.8733  0.2361  2.0359
28700SOL     OW90946   9.960   3.644   3.272  0.0489  0.4627 -0.3219
28700SOL    HW190947   9.936   3.670   3.183  0.7899 -0.6803 -0.8664
28700SOL    HW290948  10.056   3.642   3.271  0.0708  1.0536  0.6823
28701SOL     OW90949   9.325   2.739   2.987  0.2594  0.2488  0.0153
28701SOL    HW190950   9.285   2.666   3.033 -0.8638  1.4203  0.9300
28701SOL    HW290951   9.258   2.807   2.986  2.2469  2.3335  1.7370
28702SOL     OW90952   9.123   0.803   3.317 -0.3816  0.0454  0.3340
28702SOL    HW190953   9.082   0.716   3.312  0.4282 -0.2840 -0.9580
28702SOL    HW290954   9.185   0.796   3.389  0.0808 -0.6443 -0.1152
28703SOL     OW90955   0.587   3.567   3.620  0.6662  0.1516 -0.3381
28703SOL    HW190956   0.576   3.480   3.659 -1.6611 -0.7739 -2.9235
28703SOL    HW290957   0.575   3.553   3.526  2.0085  3.0111 -0.9936
28704SOL     OW90958   9.942   3.863   2.406 -0.4608 -0.0050  0.0120
28704SOL    HW190959   9.908   3.940   2.360 -1.2705  0.3959  1.2713
28704SOL    HW290960  10.035   3.860   2.383 -0.5361  1.0578 -0.4258
28705SOL     OW90961   9.071   2.188   3.456  0.2236  0.0978  0.6841
28705SOL    HW190962   9.153   2.178   3.408 -0.1003 -1.4724  0.4519
28705SOL    HW290963   9.087   2.143   3.539  0.2370  1.4327  1.4169
28706SOL     OW90964   8.959   4.914   5.468 -0.0195 -0.5393 -0.3339
28706SOL    HW190965   8.919   4.990   5.510  0.8090 -1.4875  2.2649
28706SOL    HW290966   8.995   4.948   5.387 -1.1363  1.4942 -0.0188
28707SOL     OW90967   9.575   3.714   1.412 -0.5070  0.1541 -0.1753
28707SOL    HW190968   9.494   3.686   1.369  0.2330 -1.5252 -0.5044
28707SOL    HW290969   9.623   3.633   1.429  1.9919  1.2082 -1.7786
28708SOL     OW90970   9.399   1.489   2.652 -0.4175  0.8228 -0.2953
28708SOL    HW190971   9.362   1.407   2.684 -1.9354  1.2238 -0.9883
28708SOL    HW290972   9.446   1.525   2.727  0.1807 -0.6198  0.0512
28709SOL     OW90973   0.220   4.459   3.990 -0.0586 -0.0744 -0.4626
28709SOL    HW190974   0.266   4.451   4.073  1.2295  2.3617 -0.8891
28709SOL    HW290975   0.140   4.507   4.011 -0.1161 -0.1566 -0.4931
28710SOL     OW90976   9.193   1.898   4.544  0.0340  0.2287  0.5915
28710SOL    HW190977   9.237   1.871   4.625  1.3841  0.9968  0.1351
28710SOL    HW290978   9.243   1.857   4.474 -1.5200 -0.9561  0.1517
28711SOL     OW90979   8.544   3.607   4.621 -0.7773 -0.4437  0.3537
28711SOL    HW190980   8.463   3.652   4.596  0.3378  1.4033 -0.0272
28711SOL    HW290981   8.565   3.642   4.708  0.2972  0.0770 -0.1007
28712SOL     OW90982   9.342   2.412   3.349  0.7315 -0.4733 -0.0411
28712SOL    HW190983   9.396   2.422   3.428 -1.0224 -1.4706  1.3245
28712SOL    HW290984   9.307   2.323   3.355 -1.0253  0.1411 -0.9156
28713SOL     OW90985   9.050   3.171   5.940 -0.1027 -0.0321 -0.1306
28713SOL    HW190986   9.118   3.113   5.905 -0.5427 -0.9967  0.5749
28713SOL    HW290987   9.078   3.259   5.915  0.7393 -0.5266 -0.9555
28714SOL     OW90988   1.236   5.173   5.147  0.3726  0.3232  0.1108
28714SOL    HW190989   1.152   5.154   5.189  0.7109 -1.9659 -0.1815
28714SOL    HW290990   1.292   5.202   5.219  0.0974 -0.7205  0.7640
28715SOL     OW90991   8.738   0.733   6.065  0.2336  0.4039 -0.5846
28715SOL    HW190992   8.678   0.800   6.095 -0.8010 -1.0787  0.7020
28715SOL    HW290993   8.792   0.713   6.141  0.0619 -0.7250 -0.7519
28716SOL     OW90994   8.809   3.152   4.612  0.0679  0.2145 -0.3397
28716SOL    HW190995   8.759   3.102   4.676 -0.1355  0.2028 -0.5062
28716SOL    HW290996   8.846   3.085   4.554 -0.0905  0.2479 -0.4804
28717SOL     OW90997   9.724   3.529   4.156 -0.1681 -0.0679  0.4133
28717SOL    HW190998   9.790   3.462   4.142 -0.4197  0.0411 -1.3208
28717SOL    HW290999   9.643   3.491   4.122 -0.6230  0.5290  0.8037
28718SOL     OW91000   0.582   3.266   4.104  0.1932 -0.2973  0.1492
28718SOL    HW191001   0.651   3.252   4.168 -0.5097 -3.2796  0.3168
28718SOL    HW291002   0.527   3.333   4.142  0.3649 -1.2867  2.1958
28719SOL     OW91003   9.836   3.871   5.631 -0.0183 -0.0220 -0.2975
28719SOL    HW191004   9.915   3.826   5.661 -0.3286 -0.8393 -0.7087
28719SOL    HW291005   9.861   3.913   5.549 -0.2902 -1.1338 -0.9579
28720SOL     OW91006   9.846   3.202   4.949 -0.2636 -0.0812  0.0397
28720SOL    HW191007   9.864   3.153   4.869  0.2460  0.0354  0.0765
28720SOL    HW291008   9.809   3.138   5.009  0.0138 -0.3311 -0.0519
28721SOL     OW91009   0.000   3.164   6.594 -0.2679 -0.5004  0.0074
28721SOL    HW191010  -0.065   3.095   6.609 -1.9597  1.3687  1.5204
28721SOL    HW291011   0.082   3.128   6.626 -1.4200 -1.2858  2.1271
28722SOL     OW91012   9.693   2.594   4.051 -0.1833  0.3693  0.2420
28722SOL    HW191013   9.605   2.579   4.087  0.3576  1.3699  2.0535
28722SOL    HW291014   9.747   2.526   4.090  0.1731  0.7452  0.4040
28723SOL     OW91015   0.147   3.545   2.969  0.2718  0.1296  0.1983
28723SOL    HW191016   0.219   3.606   2.956  0.7796 -0.4803  0.1455
28723SOL    HW291017   0.072   3.601   2.990  0.7751  0.7555  0.3380
28724SOL     OW91018   9.887   3.672   6.353  0.0164  0.5222 -0.7738
28724SOL    HW191019   9.858   3.740   6.414  1.1746  0.1739  0.1994
28724SOL    HW291020   9.872   3.709   6.266  0.0101  1.7526 -0.2620
28725SOL     OW91021   0.004   3.435   4.380  0.3640  0.7711  0.3013
28725SOL    HW191022   0.053   3.517   4.389 -0.1400  0.7405  3.8602
28725SOL    HW291023   0.072   3.367   4.377  0.6896  1.1142 -0.2995
28726SOL     OW91024   9.768   4.224   4.402  0.1888 -0.4943 -0.2056
28726SOL    HW191025   9.818   4.151   4.367 -0.4998 -1.4837  0.8145
28726SOL    HW291026   9.758   4.203   4.495 -1.3227  0.1220 -0.2081
28727SOL     OW91027   8.417   4.146   2.510 -0.5732 -0.7333 -0.6469
28727SOL    HW191028   8.508   4.117   2.496 -0.2556  0.6997 -1.6425
28727SOL    HW291029   8.413   4.165   2.604  0.9502  1.7931 -1.0566
28728SOL     OW91030   8.149   2.741   5.055 -0.3246  0.0618  0.5401
28728SOL    HW191031   8.217   2.784   5.003 -2.2190  3.0900  0.4299
28728SOL    HW291032   8.192   2.719   5.137  1.9074 -2.0470 -1.1394
28729SOL     OW91033   8.290   4.299   1.801 -0.0096 -0.5518  0.5764
28729SOL    HW191034   8.320   4.354   1.874  0.0009 -0.2732  0.3600
28729SOL    HW291035   8.359   4.306   1.735 -0.8743  0.6520 -0.2141
28730SOL     OW91036   9.079   4.172   5.100  0.1891  0.4485  0.1625
28730SOL    HW191037   9.111   4.231   5.032 -1.3128  3.0700  1.6405
28730SOL    HW291038   9.141   4.184   5.173  1.3237 -1.7290 -0.4170
28731SOL     OW91039   9.791   4.742   1.932  0.0637  0.1989  0.2744
28731SOL    HW191040   9.795   4.828   1.975 -0.0495  0.4486 -0.2072
28731SOL    HW291041   9.859   4.690   1.975  0.0375  0.4878  0.6636
28732SOL     OW91042   9.191   1.911   3.650 -0.7096  0.0276 -0.2216
28732SOL    HW191043   9.120   1.856   3.619 -0.3803 -0.4099 -0.1948
28732SOL    HW291044   9.260   1.904   3.584  0.7895 -2.4665  1.5084
28733SOL     OW91045   9.469   2.734   5.109 -0.1457  0.3499  0.3143
28733SOL    HW191046   9.552   2.770   5.076 -0.3227 -0.0888 -0.6268
28733SOL    HW291047   9.453   2.657   5.055  0.3409 -1.3004  2.4809
28734SOL     OW91048   9.989   2.340   4.393 -0.2512  0.2417 -0.8141
28734SOL    HW191049   9.932   2.322   4.468  0.3677  2.0625  0.1151
28734SOL    HW291050  10.001   2.254   4.352 -1.6283 -0.5787  0.4158
28735SOL     OW91051   0.119   1.242   4.654  0.1597 -0.0634 -0.8923
28735SOL    HW191052   0.117   1.201   4.740 -0.7275  1.8622  0.0548
28735SOL    HW291053   0.211   1.265   4.640  0.3507 -0.6460 -0.5831
28736SOL     OW91054   8.872   3.864   8.053 -0.8251  0.3703 -0.4568
28736SOL    HW191055   8.938   3.799   8.076  0.9867  2.5753  0.7625
28736SOL    HW291056   8.901   3.898   7.968 -0.5167  1.1519 -0.0447
28737SOL     OW91057   9.109   0.157   5.557  0.4010 -0.2346  0.2052
28737SOL    HW191058   9.059   0.086   5.516  0.7896  0.1464 -0.9551
28737SOL    HW291059   9.198   0.123   5.564  0.5489  0.0607 -0.1908
28738SOL     OW91060   1.555   1.933   4.301  0.1697 -0.5017 -0.0734
28738SOL    HW191061   1.512   1.998   4.245 -0.7786 -0.7613  0.3376
28738SOL    HW291062   1.598   1.984   4.369  1.1748 -0.1945 -0.9298
28739SOL     OW91063   9.062   3.429   4.349  0.2828 -0.2422 -0.5449
28739SOL    HW191064   9.070   3.377   4.429  0.2296 -0.6623 -0.8105
28739SOL    HW291065   8.978   3.403   4.312 -0.0754  0.5532 -0.3156
28740SOL     OW91066   8.753   3.265   3.793  0.2559  0.0626 -0.0992
28740SOL    HW191067   8.740   3.282   3.699  0.9457 -0.7805 -0.3545
28740SOL    HW291068   8.675   3.216   3.819 -0.5212  1.3485  0.0575
28741SOL     OW91069   9.374   1.885   3.409 -0.0130  0.0434  0.2054
28741SOL    HW191070   9.469   1.874   3.415 -0.0307  0.3165  1.0053
28741SOL    HW291071   9.349   1.831   3.333  0.8016  0.1328 -0.1388
28742SOL     OW91072   9.587   4.002   4.336  0.0210 -0.0245 -0.3483
28742SOL    HW191073   9.575   4.097   4.341 -1.5658 -0.2931  1.6568
28742SOL    HW291074   9.681   3.989   4.348  0.1519  1.2457  0.0755
28743SOL     OW91075   0.110   3.316   5.041  0.1118  0.2699  0.2537
28743SOL    HW191076   0.051   3.262   4.988 -0.3440  1.6409 -0.6801
28743SOL    HW291077   0.144   3.256   5.107 -2.6081 -0.5099  1.0393
28744SOL     OW91078   9.448   1.751   6.394 -0.1344 -0.3177  0.2512
28744SOL    HW191079   9.526   1.705   6.425  0.4486 -0.2296 -1.0666
28744SOL    HW291080   9.461   1.760   6.299 -0.3785  2.2609  0.4159
28745SOL     OW91081   0.825   2.781   5.856  0.1090 -0.2838  0.6275
28745SOL    HW191082   0.785   2.699   5.827 -2.8247  1.3650 -0.2418
28745SOL    HW291083   0.873   2.758   5.935  0.6507 -3.1292 -0.4774
28746SOL     OW91084   9.679   4.707   7.013  0.3971 -0.1835  0.1372
28746SOL    HW191085   9.697   4.689   6.920  1.0869 -0.7466  0.3661
28746SOL    HW291086   9.766   4.717   7.052  0.2082 -2.3665  1.1812
28747SOL     OW91087   7.174   3.434   5.343  0.1499 -0.2760  0.6917
28747SOL    HW191088   7.134   3.429   5.256 -2.4692  1.5453  1.7253
28747SOL    HW291089   7.120   3.376   5.397  0.1602  0.6071  1.6568
28748SOL     OW91090   0.299   2.443   4.165  0.2593  0.5382  0.6455
28748SOL    HW191091   0.269   2.363   4.123 -0.6004  0.6417  1.0372
28748SOL    HW291092   0.246   2.450   4.244  1.6989  0.4652  1.6337
28749SOL     OW91093   9.609   3.520   3.591  0.5887 -0.0707 -0.2501
28749SOL    HW191094   9.684   3.466   3.566  0.1730  0.6985 -3.4312
28749SOL    HW291095   9.644   3.610   3.589  0.3396  0.0600  1.2643
28750SOL     OW91096   9.667   1.540   4.331 -0.3675  0.1517 -0.0876
28750SOL    HW191097   9.659   1.632   4.356 -1.0670 -0.1656  0.8960
28750SOL    HW291098   9.755   1.532   4.295 -0.0623  1.0577  0.4496
28751SOL     OW91099   8.036   1.669   3.229  0.0476  0.6726  0.1662
28751SOL    HW191100   8.095   1.602   3.195 -0.7438  0.5798 -1.0926
28751SOL    HW291101   8.093   1.731   3.274  0.5490 -2.1115  3.5743
28752SOL     OW91102   8.822   4.006   4.035 -0.1639 -0.3306 -0.2819
28752SOL    HW191103   8.832   3.927   4.088  0.4763  0.9808  1.6141
28752SOL    HW291104   8.728   4.025   4.038 -0.1289 -0.2478  0.4352
28753SOL     OW91105   8.044   3.761   4.866 -0.2059  0.1809  0.1078
28753SOL    HW191106   7.988   3.788   4.793 -0.3865  1.4521  0.7029
28753SOL    HW291107   8.115   3.825   4.867  0.4504 -0.5461  0.3008
28754SOL     OW91108   0.531   1.229   5.143  0.5645 -0.2274 -0.2923
28754SOL    HW191109   0.557   1.281   5.066  0.0094 -0.4498 -0.6322
28754SOL    HW291110   0.458   1.175   5.112 -1.4175  1.5703  1.0938
28755SOL     OW91111   8.069   3.288   5.126  0.5275 -0.5706  0.9433
28755SOL    HW191112   8.069   3.384   5.122 -0.9676 -0.6337 -0.6393
28755SOL    HW291113   8.127   3.261   5.055 -0.1615 -0.8646  0.4883
28756SOL     OW91114   0.690   4.280   3.912 -0.5946  0.2732 -0.7511
28756SOL    HW191115   0.659   4.352   3.966  0.3870 -0.2680  0.5567
28756SOL    HW291116   0.726   4.322   3.834 -2.0665  1.0542 -1.0371
28757SOL     OW91117   8.749   2.926   5.128  0.1029 -0.3570 -0.1920
28757SOL    HW191118   8.827   2.964   5.088  1.0835  0.1467  2.1298
28757SOL    HW291119   8.719   2.861   5.064  0.4556  1.7756 -2.6057
28758SOL     OW91120   9.936   2.738   4.712 -0.2522  0.4641  0.1961
28758SOL    HW191121   9.909   2.809   4.771 -2.9536 -0.4031  0.0628
28758SOL    HW291122   9.880   2.748   4.635 -0.2283 -1.4279 -0.0919
28759SOL     OW91123   9.487   4.656   4.827  0.2949  0.4140  0.2264
28759SOL    HW191124   9.442   4.720   4.771  0.1284  0.7556  0.7432
28759SOL    HW291125   9.580   4.673   4.813  0.2667 -0.0470 -0.5641
28760SOL     OW91126   8.622   1.467   3.707 -0.4111 -0.2305 -0.6323
28760SOL    HW191127   8.708   1.482   3.667 -0.0841 -1.1757 -0.3053
28760SOL    HW291128   8.580   1.553   3.708 -0.4130 -0.1901 -2.9786
28761SOL     OW91129   0.372   3.572   6.784  0.1308  0.3893  0.0170
28761SOL    HW191130   0.408   3.504   6.842  0.9860  0.7610 -0.0805
28761SOL    HW291131   0.448   3.623   6.756 -0.2372  0.0333 -1.6780
28762SOL     OW91132   0.085   4.511   5.955  0.7580  0.1479 -0.4327
28762SOL    HW191133   0.147   4.578   5.926  2.0190 -1.0002 -0.4315
28762SOL    HW291134   0.115   4.486   6.043  0.1039 -0.1833 -0.2963
28763SOL     OW91135   9.920   2.680   3.886 -0.2915  0.2088 -0.4045
28763SOL    HW191136  10.005   2.639   3.902  0.2865  1.1769 -0.8980
28763SOL    HW291137   9.863   2.648   3.956 -0.2740 -2.5756 -1.6147
28764SOL     OW91138   8.946   2.667   3.851 -0.4251 -0.3684 -0.2068
28764SOL    HW191139   9.041   2.668   3.868 -0.5790  0.8335  0.6631
28764SOL    HW291140   8.934   2.731   3.781 -0.4235 -1.6179 -1.3668
28765SOL     OW91141   9.106   3.731   4.742 -0.2336  0.0689 -0.4454
28765SOL    HW191142   9.096   3.646   4.784 -2.8916  0.8308  0.5060
28765SOL    HW291143   9.077   3.717   4.652  0.0542 -0.1979 -0.4976
28766SOL     OW91144   8.963   4.079   5.549  0.4959 -0.1993  0.0001
28766SOL    HW191145   8.876   4.117   5.540  0.9746  1.4757  2.0422
28766SOL    HW291146   8.949   3.985   5.537 -1.6055  0.0527  0.2859
28767SOL     OW91147   8.720   2.178   5.610  0.1138 -0.8436 -0.5260
28767SOL    HW191148   8.653   2.121   5.647  2.1104 -2.4461  0.7076
28767SOL    HW291149   8.675   2.226   5.540 -1.9101 -2.9936 -0.7485
28768SOL     OW91150   9.747   2.128   4.852  0.2041  0.6276  0.3324
28768SOL    HW191151   9.787   2.191   4.793  0.1845  0.5841  0.2727
28768SOL    HW291152   9.818   2.099   4.909  0.1045  1.0943  0.6994
28769SOL     OW91153   9.503   2.391   4.624  0.0288 -0.5411  0.0658
28769SOL    HW191154   9.445   2.449   4.673  1.5023  0.1993  0.9457
28769SOL    HW291155   9.503   2.309   4.674 -0.5203 -0.6642 -0.1285
28770SOL     OW91156   8.650   2.995   4.781 -0.0367 -0.1159  0.2238
28770SOL    HW191157   8.593   2.931   4.738  0.7874 -0.1352 -0.8506
28770SOL    HW291158   8.597   3.028   4.854 -0.5426 -1.8801  0.6852
28771SOL     OW91159   9.150   2.506   5.447  0.0673 -0.3534  0.1565
28771SOL    HW191160   9.176   2.595   5.472  0.8891 -0.4376 -0.3829
28771SOL    HW291161   9.139   2.460   5.530  1.1719 -0.1860  0.4001
28772SOL     OW91162   9.189   5.175   2.920  0.6178 -0.4834  0.2980
28772SOL    HW191163   9.216   5.255   2.965  0.0356 -0.5015  0.6747
28772SOL    HW291164   9.205   5.105   2.983  0.9552 -0.6458  0.0330
28773SOL     OW91165   0.949   2.927   4.097 -0.3607  0.1698 -0.0215
28773SOL    HW191166   0.928   2.969   4.014 -2.1806 -0.5055  0.0638
28773SOL    HW291167   0.881   2.957   4.158  0.0052 -0.6134  0.7944
28774SOL     OW91168   0.023   1.547   6.675 -0.0547 -0.1351 -0.1872
28774SOL    HW191169   0.058   1.577   6.759 -0.8497 -1.2572  0.5743
28774SOL    HW291170   0.034   1.452   6.678  0.7968 -0.0990 -1.7819
28775SOL     OW91171   9.568   4.359   4.285  0.1638 -0.2393 -0.3473
28775SOL    HW191172   9.658   4.329   4.296  0.5178  1.2374  0.9348
28775SOL    HW291173   9.574   4.454   4.275 -1.2706 -0.0459  0.3386
28776SOL     OW91174   1.438   1.518   3.968 -0.3752  0.8077 -0.2156
28776SOL    HW191175   1.425   1.609   3.994 -1.6984  0.8395 -0.9525
28776SOL    HW291176   1.471   1.475   4.047  0.3428  1.9290  0.1116
28777SOL     OW91177   9.606   3.033   5.090  0.2919 -0.0551 -0.4941
28777SOL    HW191178   9.683   2.996   5.132 -0.0831 -0.8440 -0.4944
28777SOL    HW291179   9.623   3.028   4.996  0.5508  0.4557 -0.4765
28778SOL     OW91180   8.442   3.401   4.009 -0.7272  0.1900 -0.2282
28778SOL    HW191181   8.445   3.309   4.036 -0.9938 -0.2800 -1.7708
28778SOL    HW291182   8.452   3.450   4.091  1.5408 -1.1959  0.3547
28779SOL     OW91183   8.788   1.566   5.608  0.0903  0.0553  0.6485
28779SOL    HW191184   8.777   1.652   5.649  0.3809  0.4228 -0.0341
28779SOL    HW291185   8.786   1.584   5.514 -0.8812 -0.8193  0.4921
28780SOL     OW91186   9.757   1.608   6.607 -0.6552 -0.5866  0.1182
28780SOL    HW191187   9.742   1.624   6.514  0.3392  0.2961  0.0980
28780SOL    HW291188   9.853   1.604   6.616 -0.6940  0.6738  1.3011
28781SOL     OW91189   1.004   2.546   5.316 -0.0258 -0.1519  0.0789
28781SOL    HW191190   1.008   2.525   5.223  0.5322  1.8172 -0.3788
28781SOL    HW291191   1.080   2.502   5.354  0.6251  0.2997 -0.6755
28782SOL     OW91192   0.674   3.159   7.587 -0.1289  0.5719 -0.2637
28782SOL    HW191193   0.693   3.252   7.589 -1.3032  0.7969  3.0551
28782SOL    HW291194   0.579   3.153   7.583 -0.0622 -0.4625 -0.4574
28783SOL     OW91195   8.502   3.539   8.735  0.0685  0.4626  0.7952
28783SOL    HW191196   8.571   3.545   8.801  0.7109 -0.7225  0.2409
28783SOL    HW291197   8.531   3.598   8.666  0.0346  0.7169  0.9939
28784SOL     OW91198   9.714   3.216   7.129 -0.0156  0.1697 -0.4059
28784SOL    HW191199   9.756   3.184   7.050  0.8915  1.5439 -0.5015
28784SOL    HW291200   9.770   3.184   7.200  1.5158  2.3787 -0.5551
28785SOL     OW91201   0.954   3.184   6.658  0.3674  0.2811  0.1051
28785SOL    HW191202   1.023   3.250   6.661  1.0765 -0.2450 -2.8211
28785SOL    HW291203   0.927   3.183   6.566 -0.6167 -2.4779  0.3929
28786SOL     OW91204   8.692   3.064   7.314  0.4489  0.1787  0.5626
28786SOL    HW191205   8.666   2.976   7.339 -3.5825  0.8508 -0.9169
28786SOL    HW291206   8.709   3.109   7.397 -2.5881 -0.5364  1.6035
28787SOL     OW91207   9.513   2.685   4.727  0.2065 -0.1122  0.7067
28787SOL    HW191208   9.518   2.634   4.808  1.2408  1.3400  1.5916
28787SOL    HW291209   9.546   2.772   4.752 -0.7699  0.7557 -0.9405
28788SOL     OW91210   9.842   1.323   6.556  0.1656  0.1070 -0.0935
28788SOL    HW191211   9.798   1.383   6.616 -0.2740 -0.4593  0.1679
28788SOL    HW291212   9.775   1.300   6.492  0.3539 -0.0360 -0.2387
28789SOL     OW91213   9.859   2.422   4.761 -0.5108  0.2366 -0.3874
28789SOL    HW191214   9.838   2.406   4.669  3.1281  0.4045 -1.3384
28789SOL    HW291215   9.908   2.344   4.788 -1.5505  0.1958  1.4279
28790SOL     OW91216   9.744   3.499   6.902  0.0017 -0.2467 -0.0494
28790SOL    HW191217   9.757   3.592   6.886  2.0938 -0.9471 -2.8937
28790SOL    HW291218   9.832   3.461   6.899 -0.8743 -2.3940  0.4141
28791SOL     OW91219   0.408   1.876   7.036 -0.7189  0.5730  0.4428
28791SOL    HW191220   0.461   1.934   7.090  0.9172  0.3189 -0.8611
28791SOL    HW291221   0.366   1.934   6.973  1.5100  0.3214 -1.3472
28792SOL     OW91222   0.530   2.876   6.380  0.0028  0.4256 -0.7661
28792SOL    HW191223   0.584   2.939   6.428  0.1633 -1.0345  1.0507
28792SOL    HW291224   0.441   2.896   6.407  0.0989 -0.4412  0.2363
28793SOL     OW91225   0.529   2.006   5.956 -0.1686 -1.0803 -0.3243
28793SOL    HW191226   0.599   2.069   5.975 -0.9736 -0.2421 -0.0841
28793SOL    HW291227   0.534   1.944   6.029 -2.3887  1.3847  2.0475
28794SOL     OW91228   9.642   2.389   7.344 -0.4636 -0.3523  0.6820
28794SOL    HW191229   9.718   2.402   7.289  0.1209 -0.3777  1.4740
28794SOL    HW291230   9.636   2.469   7.397 -1.1420 -0.2344  0.4430
28795SOL     OW91231   0.694   0.438   6.758 -0.1945  0.5645  0.3377
28795SOL    HW191232   0.773   0.480   6.724 -0.0580  0.5906  0.6814
28795SOL    HW291233   0.622   0.481   6.712 -0.1847  2.5758  2.1163
28796SOL     OW91234   9.880   2.468   4.185  0.4095  0.3879  0.5853
28796SOL    HW191235   9.894   2.411   4.260 -3.3742 -1.0806  0.2699
28796SOL    HW291236   9.930   2.427   4.114  1.8885  0.3657  1.6132
28797SOL     OW91237   0.652   4.010   7.092 -0.3285  0.4809 -0.0454
28797SOL    HW191238   0.617   3.990   7.006  1.9050 -1.7458 -0.4865
28797SOL    HW291239   0.698   4.094   7.081  0.3331 -0.0232 -1.1344
28798SOL     OW91240   8.330   4.055   6.537 -0.4090  0.4115  0.8612
28798SOL    HW191241   8.403   4.110   6.566  1.4343 -1.4748 -0.0604
28798SOL    HW291242   8.295   4.099   6.460  1.7650 -0.2460 -0.5279
28799SOL     OW91243   0.813   4.067   5.862  0.2109 -0.6299  0.3843
28799SOL    HW191244   0.723   4.051   5.833  0.5202  0.3641 -1.2114
28799SOL    HW291245   0.863   3.996   5.822  0.2007 -0.9362  0.9162
28800SOL     OW91246   0.612   1.572   5.895  0.1262  0.5907 -0.0910
28800SOL    HW191247   0.555   1.545   5.966  0.8809 -0.9475 -0.0429
28800SOL    HW291248   0.665   1.495   5.875  2.0600  1.9053 -0.2655
28801SOL     OW91249   8.960   3.611   7.726 -0.4345  0.3753  0.1876
28801SOL    HW191250   9.004   3.575   7.649 -0.1433 -1.0881  1.0017
28801SOL    HW291251   9.026   3.667   7.767  1.0194 -2.4091  1.8229
28802SOL     OW91252   9.153   2.797   5.177  0.0325 -0.1704 -0.1522
28802SOL    HW191253   9.094   2.730   5.211  0.4974 -0.8404 -0.6433
28802SOL    HW291254   9.228   2.748   5.143  0.1373  0.5632 -1.0125
28803SOL     OW91255   9.984   2.113   7.466  0.1416 -0.0542 -0.8968
28803SOL    HW191256  10.039   2.191   7.464 -1.5497  1.3337  2.1544
28803SOL    HW291257  10.028   2.053   7.526 -0.1687 -0.1296 -0.7388
28804SOL     OW91258   9.728   1.045   6.745  0.2708  0.3189 -0.5979
28804SOL    HW191259   9.812   1.069   6.706  0.7302 -3.4951 -2.2036
28804SOL    HW291260   9.665   1.053   6.674 -0.0168 -0.6185 -0.4538
28805SOL     OW91261   1.124   4.376   6.517 -0.0803  0.0087 -0.4109
28805SOL    HW191262   1.185   4.389   6.445 -0.9080  2.4803 -0.7280
28805SOL    HW291263   1.179   4.369   6.595  0.6324  1.6070 -0.7648
28806SOL     OW91264   9.749   2.846   6.964 -0.1665  0.1150 -0.1643
28806SOL    HW191265   9.835   2.877   6.992 -0.9100  1.6107  0.5480
28806SOL    HW291266   9.767   2.779   6.898  1.5984 -1.4449  1.8072
28807SOL     OW91267   0.174   4.120   5.172 -0.3897  0.5778  0.1546
28807SOL    HW191268   0.163   4.207   5.134  0.3859  1.5813  2.1042
28807SOL    HW291269   0.116   4.121   5.248 -0.4235 -0.6326  0.1421
28808SOL     OW91270   9.789   1.608   5.924  0.0411  0.0250  0.1600
28808SOL    HW191271   9.699   1.577   5.912  0.1976 -0.7037  0.8013
28808SOL    HW291272   9.811   1.650   5.841 -0.8519  0.1039 -0.0422
28809SOL     OW91273   8.710   4.192   6.182 -0.0816 -0.9315 -0.2916
28809SOL    HW191274   8.647   4.232   6.122  0.3908  1.5261  0.8087
28809SOL    HW291275   8.790   4.243   6.170  1.0489 -2.6200 -0.0498
28810SOL     OW91276   9.725   2.781   5.025 -0.1682 -0.2881 -0.6608
28810SOL    HW191277   9.722   2.834   4.945 -0.3206  0.3195 -0.2603
28810SOL    HW291278   9.745   2.844   5.094 -1.4778 -0.5569 -0.0174
28811SOL     OW91279   9.241   3.055   5.606 -0.2213 -1.0570 -0.7423
28811SOL    HW191280   9.334   3.067   5.583 -0.2558 -0.3168 -0.5161
28811SOL    HW291281   9.238   3.069   5.700 -0.5175 -1.3873 -0.7024
28812SOL     OW91282   9.227   3.086   4.699  0.4695 -0.1668 -0.2588
28812SOL    HW191283   9.273   3.061   4.619  0.9732  0.6967 -0.2415
28812SOL    HW291284   9.264   3.031   4.767 -0.0347 -0.9807 -0.6349
28813SOL     OW91285   0.644   3.400   5.225 -0.4026 -0.2161 -0.0350
28813SOL    HW191286   0.718   3.452   5.194 -2.5973  2.8218 -0.3070
28813SOL    HW291287   0.658   3.314   5.185  1.6481  1.0106 -2.1018
28814SOL     OW91288   0.715   1.780   6.358  0.1437  0.2397 -0.5733
28814SOL    HW191289   0.742   1.727   6.283 -1.3308 -2.1921  0.5232
28814SOL    HW291290   0.620   1.784   6.352  0.1476  1.7059  0.0955
28815SOL     OW91291   0.195   1.460   5.510  0.4686 -0.2434 -0.1508
28815SOL    HW191292   0.174   1.526   5.444  1.2364 -1.0121 -1.1865
28815SOL    HW291293   0.212   1.510   5.590  0.9836  0.8006 -0.9028
28816SOL     OW91294   8.171   2.552   4.698  0.2046 -0.0269  0.1813
28816SOL    HW191295   8.260   2.532   4.670  0.0388 -1.8178  0.8799
28816SOL    HW291296   8.141   2.619   4.636  0.8334 -1.8642 -2.1734
28817SOL     OW91297   8.617   4.031   6.385 -0.4218  0.5032  0.0298
28817SOL    HW191298   8.610   4.093   6.457  2.6034 -0.9564  1.6580
28817SOL    HW291299   8.664   4.079   6.316 -1.4517  1.2158 -0.1795
28818SOL     OW91300   1.199   3.835   6.268  0.1813 -0.3207 -0.0505
28818SOL    HW191301   1.283   3.819   6.311  0.2874  0.4785  0.0558
28818SOL    HW291302   1.170   3.920   6.303 -1.3033 -1.2037  0.9111
28819SOL     OW91303   9.588   3.423   7.955  0.1752 -0.0847  0.6029
28819SOL    HW191304   9.614   3.331   7.947  2.0444  0.4293  0.4184
28819SOL    HW291305   9.538   3.440   7.875  1.8521 -0.3361 -0.5509
28820SOL     OW91306   9.869   2.488   5.970 -0.0155  0.0580  0.2142
28820SOL    HW191307   9.931   2.472   5.899  0.0170 -2.0829  0.7007
28820SOL    HW291308   9.794   2.530   5.928 -0.0759 -1.3797 -1.1434
28821SOL     OW91309   0.139   1.823   7.361  0.4075  0.5201  0.0822
28821SOL    HW191310   0.151   1.884   7.289 -2.5502  1.6511  0.5016
28821SOL    HW291311   0.053   1.784   7.346  0.7766 -1.0158  1.7178
28822SOL     OW91312   9.670   1.801   7.164 -0.2654 -0.0406 -0.0300
28822SOL    HW191313   9.684   1.886   7.122 -2.3981  0.6507  0.5681
28822SOL    HW291314   9.678   1.738   7.093 -0.1008  0.7938 -0.7686
28823SOL     OW91315   9.184   3.514   8.819  0.2517  0.7641  0.6488
28823SOL    HW191316   9.192   3.585   8.755  0.1009  0.7511  0.6142
28823SOL    HW291317   9.223   3.549   8.899 -1.1256  1.4338  1.0546
28824SOL     OW91318   0.846   2.828   6.341 -0.3569  0.0730  0.0938
28824SOL    HW191319   0.874   2.919   6.354  0.2806 -0.3456  1.6877
28824SOL    HW291320   0.752   2.830   6.357  0.2029 -0.2017  3.8129
28825SOL     OW91321   0.942   0.986   7.408 -0.0595  0.3662 -0.5907
28825SOL    HW191322   0.900   1.052   7.353  0.7180 -0.9231 -2.7845
28825SOL    HW291323   0.894   0.905   7.388  0.0908 -0.0821  0.8083
28826SOL     OW91324   9.842   1.810   6.121  0.4109 -0.4455  0.2885
28826SOL    HW191325   9.901   1.882   6.098  0.1732  0.2358  1.7595
28826SOL    HW291326   9.871   1.737   6.067  1.3494  0.4463 -0.4368
28827SOL     OW91327   8.542   3.746   6.893  0.3230  0.6618 -0.2710
28827SOL    HW191328   8.511   3.825   6.849 -1.8149 -0.8047 -1.5159
28827SOL    HW291329   8.576   3.776   6.977 -2.1646  2.7115  0.0455
28828SOL     OW91330   9.489   3.772   6.839 -0.5341  0.1578 -0.2892
28828SOL    HW191331   9.435   3.812   6.907 -1.9306  0.0690 -1.3296
28828SOL    HW291332   9.579   3.788   6.868 -1.0602  3.3525 -0.2774
28829SOL     OW91333   0.082   3.768   6.692 -0.3490 -0.3971 -0.3490
28829SOL    HW191334   0.083   3.849   6.642 -1.3416 -0.6724 -0.8223
28829SOL    HW291335   0.075   3.796   6.783  0.1760  0.0674 -0.4492
28830SOL     OW91336   0.347   3.091   5.457  1.0632  0.1685 -0.0996
28830SOL    HW191337   0.336   3.052   5.544  2.0019 -2.2535 -1.0179
28830SOL    HW291338   0.426   3.050   5.422  0.5096  0.8488 -2.2430
28831SOL     OW91339   8.213   3.395   6.797 -0.8014  0.1765 -0.6004
28831SOL    HW191340   8.226   3.335   6.870  0.2205  1.6420  0.4517
28831SOL    HW291341   8.122   3.381   6.770 -0.5723 -1.8403 -0.4072
28832SOL     OW91342   9.657   2.608   4.508 -0.1401 -0.0570 -0.2493
28832SOL    HW191343   9.609   2.628   4.588  1.4283  0.6529  0.5365
28832SOL    HW291344   9.719   2.681   4.499  1.7388 -1.6467 -0.4751
28833SOL     OW91345   8.648   3.304   9.481  0.2623  0.7239  0.0623
28833SOL    HW191346   8.714   3.368   9.507 -0.0297  1.5363 -1.1949
28833SOL    HW291347   8.698   3.236   9.436  0.7520 -0.6145  2.5072
28834SOL     OW91348   9.032   2.967   4.989  0.1042 -0.6751 -0.2096
28834SOL    HW191349   9.078   2.901   5.042  1.0769 -0.7413 -1.1023
28834SOL    HW291350   9.005   2.920   4.910 -1.1181 -0.5223  0.1179
28835SOL     OW91351   9.885   2.625   7.476 -0.3277 -0.2700 -0.1947
28835SOL    HW191352   9.859   2.585   7.559 -2.6188  0.2800 -0.6173
28835SOL    HW291353   9.971   2.664   7.494 -0.7676 -0.2091  1.9067
28836SOL     OW91354   0.326   4.469   6.432  0.5863  0.1046 -0.2412
28836SOL    HW191355   0.295   4.445   6.345  1.5379  0.1477 -0.5948
28836SOL    HW291356   0.401   4.412   6.448 -0.6376 -1.1381  1.2908
28837SOL     OW91357   9.605   2.817   7.713 -0.2645  0.2307 -0.6091
28837SOL    HW191358   9.617   2.748   7.648 -0.0844 -1.2738  0.9920
28837SOL    HW291359   9.672   2.800   7.779 -2.2352  0.0330  1.3925
28838SOL     OW91360   8.147   4.078   9.986  0.1580 -0.2876 -0.5140
28838SOL    HW191361   8.073   4.045  10.039  0.4601  0.3330  0.2994
28838SOL    HW291362   8.224   4.041  10.028  0.5600  2.0093  0.8604
28839SOL     OW91363   9.182   2.220   4.674  0.4332  0.1672 -0.2181
28839SOL    HW191364   9.246   2.150   4.661 -0.6961 -0.4940 -2.4808
28839SOL    HW291365   9.176   2.229   4.769  2.7328 -0.7981  0.0593
28840SOL     OW91366   0.431   2.481   7.673  0.2935 -0.1660 -0.4849
28840SOL    HW191367   0.509   2.509   7.625 -0.8453 -0.9861 -2.8967
28840SOL    HW291368   0.427   2.386   7.660 -1.1013 -0.1294 -0.3876
28841SOL     OW91369   8.875   3.181   6.560 -0.5293  0.3789  0.3672
28841SOL    HW191370   8.830   3.239   6.621 -1.0076  2.0362 -1.4869
28841SOL    HW291371   8.908   3.240   6.491  1.1523 -1.2570 -0.2782
28842SOL     OW91372   9.734   3.408   5.765  0.5331  0.3780 -0.4041
28842SOL    HW191373   9.671   3.338   5.779  1.4831 -0.3589  0.2865
28842SOL    HW291374   9.819   3.365   5.774  1.1252  1.6625  0.2037
28843SOL     OW91375   9.680   3.219   6.807  0.8163  0.4594  0.0035
28843SOL    HW191376   9.656   3.163   6.881  1.4876  0.1314 -0.0286
28843SOL    HW291377   9.760   3.181   6.772  0.2651  0.3547 -1.1789
28844SOL     OW91378   1.186   2.421   6.305  0.0685 -0.1030 -0.1024
28844SOL    HW191379   1.123   2.405   6.234  1.3690 -1.3700 -0.9867
28844SOL    HW291380   1.253   2.477   6.266 -0.7731  1.7024  0.9972
28845SOL     OW91381   9.990   2.091   5.761 -0.4937 -0.2662 -0.0633
28845SOL    HW191382  10.086   2.087   5.756 -0.4822  1.1093 -1.3651
28845SOL    HW291383   9.970   2.084   5.854  0.8807 -0.2962  0.2404
28846SOL     OW91384   0.070   3.559   6.878  0.1675 -0.1606  0.5605
28846SOL    HW191385   0.119   3.502   6.937  2.2577  2.4119  1.4127
28846SOL    HW291386   0.047   3.634   6.931 -0.8675  0.6697 -1.0329
28847SOL     OW91387   0.601   2.218   5.432 -0.5343 -0.1488 -0.8163
28847SOL    HW191388   0.679   2.263   5.464 -0.8262  0.1857 -0.5771
28847SOL    HW291389   0.529   2.254   5.484 -0.8435 -0.4828 -1.0117
28848SOL     OW91390   8.305   3.847   7.268 -0.2849  0.8976 -0.4429
28848SOL    HW191391   8.235   3.902   7.232 -0.7635 -0.2148 -1.2218
28848SOL    HW291392   8.381   3.864   7.212 -0.9081 -0.5076 -1.7501
28849SOL     OW91393   9.205   2.826   7.205 -0.1236 -0.2837  0.2319
28849SOL    HW191394   9.158   2.784   7.277 -1.4354 -0.6652 -0.8424
28849SOL    HW291395   9.282   2.771   7.191 -1.1772 -1.6283 -0.3253
28850SOL     OW91396   0.295   2.020   6.820  0.1443  0.1764  0.2717
28850SOL    HW191397   0.290   2.092   6.757  1.2388 -0.1586 -0.2126
28850SOL    HW291398   0.209   1.978   6.814  0.5236 -0.4132 -1.7048
28851SOL     OW91399   9.163   4.325   5.945 -0.0402  1.2471 -0.3496
28851SOL    HW191400   9.157   4.389   5.874  2.5178  1.4890 -0.4059
28851SOL    HW291401   9.257   4.318   5.963 -0.5741  0.4724  2.3646
28852SOL     OW91402   9.445   3.321   6.436  0.4152  0.3251 -0.4330
28852SOL    HW191403   9.424   3.235   6.399 -1.5943  0.8602 -0.5762
28852SOL    HW291404   9.394   3.383   6.383 -1.1219  1.2593  2.0711
28853SOL     OW91405   9.475   3.467   5.021  0.1135  0.5173 -0.0206
28853SOL    HW191406   9.443   3.485   5.109 -1.6749  2.2510 -0.9809
28853SOL    HW291407   9.428   3.388   4.994  0.1198  0.4024  0.3104
28854SOL     OW91408   8.566   3.214   6.369 -0.1711  0.8583 -0.2106
28854SOL    HW191409   8.504   3.232   6.440  0.9896  2.7932  0.3859
28854SOL    HW291410   8.622   3.292   6.367  0.3603  0.4441 -2.6996
28855SOL     OW91411   9.202   1.559   8.517 -0.3766 -0.4216  0.2395
28855SOL    HW191412   9.279   1.518   8.476 -0.6515 -0.3961 -0.3093
28855SOL    HW291413   9.237   1.634   8.564 -0.2973  0.7908 -1.6840
28856SOL     OW91414   7.788   2.955   8.490 -0.4100  0.3809  0.1892
28856SOL    HW191415   7.811   2.871   8.449 -2.5241 -0.3598  0.4474
28856SOL    HW291416   7.854   3.016   8.457  0.8234 -1.2558 -0.4662
28857SOL     OW91417   8.954   2.573   7.878  0.1198  0.0437 -0.0543
28857SOL    HW191418   9.004   2.648   7.908 -0.8963  1.0337 -0.7576
28857SOL    HW291419   9.002   2.540   7.802 -0.8544  1.7012 -1.4410
28858SOL     OW91420   0.775   1.450   9.866  0.1236 -0.4588  0.1543
28858SOL    HW191421   0.779   1.382   9.799 -1.6017 -0.8914  0.4783
28858SOL    HW291422   0.689   1.439   9.907 -0.6299  2.6192 -0.5214
28859SOL     OW91423   8.664   2.287   7.945 -0.2575  0.1588  0.4187
28859SOL    HW191424   8.752   2.250   7.940 -1.1546 -1.9878  0.0312
28859SOL    HW291425   8.661   2.351   7.874 -0.0502 -2.0688 -1.6650
28860SOL     OW91426   9.842   3.119   7.328  0.0652  0.0300 -0.3096
28860SOL    HW191427   9.919   3.084   7.283  0.2916 -0.9027  0.7686
28860SOL    HW291428   9.873   3.199   7.370 -0.2862  1.2183 -2.2478
28861SOL     OW91429   9.971   2.814   8.254  0.4608 -0.5480  0.1141
28861SOL    HW191430  10.003   2.770   8.333  1.6499  0.9893  0.5209
28861SOL    HW291431  10.051   2.834   8.204  0.0034  1.4503  0.1374
28862SOL     OW91432   9.553   3.349   9.312  0.3331 -0.1306 -0.6892
28862SOL    HW191433   9.573   3.438   9.341  1.2541  0.0716 -1.9616
28862SOL    HW291434   9.504   3.311   9.386  1.8593  0.6854  0.7737
28863SOL     OW91435   8.966   1.496   8.862  0.2654 -0.4023  0.3361
28863SOL    HW191436   9.039   1.555   8.846  0.6656 -1.0952 -0.4672
28863SOL    HW291437   8.999   1.433   8.926  0.2979 -0.5748  0.1516
28864SOL     OW91438   9.626   3.655   8.072 -0.0442 -0.2951  0.0309
28864SOL    HW191439   9.665   3.700   7.997  0.6476 -2.1883 -0.7862
28864SOL    HW291440   9.604   3.568   8.038  1.8313 -1.7777  2.4349
28865SOL     OW91441   9.464   3.141   0.063  0.2150  0.4327  0.0643
28865SOL    HW191442   9.450   3.082   0.138  1.4798  0.8469  0.6402
28865SOL    HW291443   9.550   3.179   0.079  0.8221 -0.0282 -1.9813
28866SOL     OW91444   0.361   2.915   9.142  0.0345 -0.0421 -0.8092
28866SOL    HW191445   0.451   2.943   9.157  0.2231 -0.8648 -0.4258
28866SOL    HW291446   0.368   2.826   9.110 -0.6000  0.2195 -1.6751
28867SOL     OW91447   9.795   0.933   9.399 -0.4814 -0.3295  0.3669
28867SOL    HW191448   9.749   1.017   9.405 -0.8307 -0.2323 -2.7340
28867SOL    HW291449   9.884   0.956   9.369  0.0557 -0.9091  1.4935
28868SOL     OW91450   9.722   1.464   7.041  0.3028 -0.2861 -0.4018
28868SOL    HW191451   9.810   1.439   7.068 -0.1466  0.7864  2.2829
28868SOL    HW291452   9.732   1.552   7.005  0.3010  0.0005  0.2798
28869SOL     OW91453   8.204   3.224   7.585 -0.0117  0.4049 -0.2965
28869SOL    HW191454   8.112   3.220   7.614 -1.0069  1.5944 -3.1194
28869SOL    HW291455   8.218   3.141   7.539  0.2380  0.3596 -0.1358
28870SOL     OW91456   0.733   3.626   9.781  0.3170 -0.2245  0.1513
28870SOL    HW191457   0.789   3.685   9.832 -0.5119  1.2085 -0.5698
28870SOL    HW291458   0.734   3.663   9.692  1.4337 -2.4682 -0.8162
28871SOL     OW91459   0.949   2.242   7.173  0.2532  0.6869 -0.4828
28871SOL    HW191460   0.887   2.250   7.246  0.5852  1.2108 -0.2589
28871SOL    HW291461   1.009   2.173   7.202  0.6780  1.2374 -0.0489
28872SOL     OW91462   8.849   1.589   9.126  0.6872  0.9862  0.3014
28872SOL    HW191463   8.827   1.676   9.094  2.9624  1.9727  1.3026
28872SOL    HW291464   8.893   1.546   9.053  0.1319  0.8913  0.0185
28873SOL     OW91465   9.999   4.258   8.605 -0.1929  0.3183 -0.1377
28873SOL    HW191466  10.008   4.289   8.695  0.4823  0.6867 -0.3303
28873SOL    HW291467   9.961   4.171   8.613  1.8992 -0.5648  0.6269
28874SOL     OW91468   9.725   4.018   8.441  0.1431  0.1888 -0.3581
28874SOL    HW191469   9.743   3.938   8.491 -0.3191  1.0147  1.1755
28874SOL    HW291470   9.688   3.987   8.358 -0.8888 -1.1610  0.5809
28875SOL     OW91471   1.218   2.342   9.916 -0.8048  0.0810 -0.3219
28875SOL    HW191472   1.299   2.355   9.967 -0.7520  0.9720 -0.6284
28875SOL    HW291473   1.156   2.403   9.955 -0.7803  0.7332 -1.2880
28876SOL     OW91474   9.036   2.202   8.808 -0.1150 -0.3092 -0.6301
28876SOL    HW191475   9.093   2.268   8.767 -1.1001  1.0085  0.0899
28876SOL    HW291476   9.019   2.138   8.739  2.3095 -0.7744 -0.8366
28877SOL     OW91477   0.111   3.469   7.962 -0.3210 -0.2338 -0.1721
28877SOL    HW191478   0.116   3.539   8.027  0.6752  0.6050 -1.1393
28877SOL    HW291479   0.135   3.390   8.010  0.5410  0.4003  0.4567
28878SOL     OW91480   9.787   0.815   0.138 -0.3915 -0.3715  0.8033
28878SOL    HW191481   9.732   0.741   0.115 -0.2249 -0.4702  0.7182
28878SOL    HW291482   9.858   0.814   0.074  0.8159 -1.4468  2.1195
28879SOL     OW91483   9.931   2.755   9.549 -0.5455  0.1284 -0.6408
28879SOL    HW191484   9.989   2.730   9.478  0.1096  0.1638 -0.1148
28879SOL    HW291485   9.875   2.679   9.562 -0.8316  0.2099 -1.3562
28880SOL     OW91486   0.924   1.679   8.355 -0.1945 -0.2938 -0.2330
28880SOL    HW191487   0.870   1.711   8.283 -1.7004 -0.8501  0.6438
28880SOL    HW291488   0.919   1.748   8.421  1.5077  0.3987 -0.7886
28881SOL     OW91489   9.019   3.188   7.345  0.1648 -0.6904  0.1798
28881SOL    HW191490   9.013   3.277   7.311  0.5562 -0.4657  0.6924
28881SOL    HW291491   9.000   3.132   7.270  0.7787 -0.1911 -0.3479
28882SOL     OW91492   9.092   1.785   5.973 -0.4937  0.2370 -0.6107
28882SOL    HW191493   9.178   1.824   5.991 -0.3232  0.3624 -1.6553
28882SOL    HW291494   9.099   1.695   6.006  0.0591  0.2306 -0.7394
28883SOL     OW91495   8.323   3.069   6.281 -0.1633 -0.1167 -0.3804
28883SOL    HW191496   8.415   3.084   6.258 -0.6596  3.2931 -0.3563
28883SOL    HW291497   8.308   2.977   6.259  3.1898 -0.6910 -0.5684
28884SOL     OW91498   0.164   2.112   9.538  0.0055 -0.3343 -0.4340
28884SOL    HW191499   0.221   2.043   9.506 -0.8056 -0.7253 -1.0682
28884SOL    HW291500   0.108   2.070   9.602  0.2836  0.0008  0.0335
28885SOL     OW91501   0.085   1.420   7.751  0.1126  0.6271 -0.2247
28885SOL    HW191502   0.042   1.481   7.811 -2.0340 -0.8304 -0.2334
28885SOL    HW291503   0.048   1.440   7.665 -0.0527 -0.2062 -0.3479
28886SOL     OW91504   8.683   2.277   8.360 -0.0054  0.8961  0.2218
28886SOL    HW191505   8.666   2.247   8.449  2.5651  1.3031  0.8953
28886SOL    HW291506   8.772   2.312   8.363  0.0928  1.0095 -2.4920
28887SOL     OW91507   8.513   2.898   8.984  0.1857  0.2977 -0.4272
28887SOL    HW191508   8.487   2.956   8.912  1.3093  1.0457 -0.2342
28887SOL    HW291509   8.600   2.928   9.009 -0.5860  0.6638  1.9064
28888SOL     OW91510   9.625   1.035   7.721  0.0420 -0.1083  0.2020
28888SOL    HW191511   9.649   0.987   7.642  0.5234  0.1683  0.1773
28888SOL    HW291512   9.529   1.031   7.723 -0.0401  0.8114 -0.9872
28889SOL     OW91513   9.208   0.910   9.047  0.1906  0.7575  0.5887
28889SOL    HW191514   9.237   0.865   8.968 -2.2059 -1.1561  0.7463
28889SOL    HW291515   9.273   0.886   9.113  0.9157  0.4764 -0.2138
28890SOL     OW91516   9.776   2.977   8.866  0.3231 -0.0612  0.2402
28890SOL    HW191517   9.744   2.890   8.841 -1.1562  1.1233 -2.2460
28890SOL    HW291518   9.843   2.960   8.932 -0.3940 -3.0443  0.2750
28891SOL     OW91519   2.171   1.579   7.780  0.0250  0.4985  0.5224
28891SOL    HW191520   2.158   1.599   7.872 -1.0065 -0.0552  0.5021
28891SOL    HW291521   2.257   1.616   7.759 -0.4217  1.9978  1.3019
28892SOL     OW91522   9.365   2.686   7.913  0.1730  0.0039 -0.5455
28892SOL    HW191523   9.450   2.711   7.877  0.0060  1.4650  0.0408
28892SOL    HW291524   9.319   2.769   7.926 -0.9160 -0.7005  0.1895
28893SOL     OW91525   8.612   2.014   7.860 -0.0199 -0.4136  0.2542
28893SOL    HW191526   8.590   2.037   7.770 -1.0864 -0.3670  0.5169
28893SOL    HW291527   8.625   2.099   7.903 -2.7063 -0.2941  0.9163
28894SOL     OW91528   0.084   2.367   8.215 -0.7134  0.3024  0.3241
28894SOL    HW191529   0.137   2.436   8.255  0.8447  0.4246 -1.8441
28894SOL    HW291530   0.100   2.376   8.121 -0.5431 -2.9748 -0.0078
28895SOL     OW91531   9.208   1.121   9.883 -0.5334 -0.0024 -0.0725
28895SOL    HW191532   9.149   1.055   9.920  0.1795 -0.3436  0.4715
28895SOL    HW291533   9.229   1.089   9.796 -1.0573  0.0559 -0.2170
28896SOL     OW91534   9.326   2.285   6.768 -0.0224  0.2627  0.2201
28896SOL    HW191535   9.313   2.192   6.754 -0.8504  0.3593  0.3246
28896SOL    HW291536   9.372   2.316   6.689 -0.6594 -0.0328 -0.2630
28897SOL     OW91537   9.103   1.479   7.911  0.1129  0.6878  0.0784
28897SOL    HW191538   9.057   1.553   7.948 -0.0817  1.1705 -1.1068
28897SOL    HW291539   9.129   1.508   7.824  1.7098  0.0434  0.3176
28898SOL     OW91540   0.357   3.468   0.167  0.3953 -0.3632  0.1285
28898SOL    HW191541   0.323   3.524   0.097  1.0466  2.1509  1.7565
28898SOL    HW291542   0.452   3.481   0.163  0.4886 -0.7496  1.0229
28899SOL     OW91543   8.172   3.783   9.774  0.3776 -0.0700  0.0770
28899SOL    HW191544   8.118   3.785   9.695 -0.2238  0.4471  0.5025
28899SOL    HW291545   8.116   3.744   9.841  0.9064 -0.5573  0.2424
28900SOL     OW91546   8.756   4.481   9.657  0.3845  0.0364  0.0471
28900SOL    HW191547   8.811   4.494   9.734  1.4127 -0.7523 -0.5463
28900SOL    HW291548   8.746   4.568   9.619  0.9287  0.2389  0.3673
28901SOL     OW91549   9.238   2.568   8.113 -0.3785  0.2524 -0.2056
28901SOL    HW191550   9.302   2.519   8.165 -1.3194 -1.5022 -0.6558
28901SOL    HW291551   9.291   2.616   8.050  0.6900  1.4017  1.5289
28902SOL     OW91552   0.478   1.935   7.482 -0.3048  0.3740 -0.2950
28902SOL    HW191553   0.564   1.929   7.525  0.0319 -0.1505 -1.0384
28902SOL    HW291554   0.492   1.899   7.395 -1.6238 -1.0706  0.0690
28903SOL     OW91555   0.809   1.820   9.614  0.2546  0.3631 -0.1685
28903SOL    HW191556   0.831   1.748   9.556 -0.1211  0.5891 -0.5922
28903SOL    HW291557   0.790   1.894   9.556 -1.7389  0.1512  0.1540
28904SOL     OW91558   9.426   2.337   7.025 -0.2501 -0.0930  0.8617
28904SOL    HW191559   9.389   2.300   6.944 -0.3280  2.0641 -0.1283
28904SOL    HW291560   9.375   2.298   7.095 -1.9590  0.0072 -0.2920
28905SOL     OW91561   9.828   2.550   0.169  0.3427  0.3319 -0.3974
28905SOL    HW191562   9.751   2.532   0.222  0.8480 -1.9060 -0.3729
28905SOL    HW291563   9.883   2.606   0.224 -0.3193  0.1938  0.4033
28906SOL     OW91564   9.412   3.160   7.341 -0.0836 -0.5909 -0.2059
28906SOL    HW191565   9.360   3.143   7.262  1.0316 -1.4932 -0.7593
28906SOL    HW291566   9.437   3.073   7.372  0.5293 -0.1884  0.4369
28907SOL     OW91567   1.212   1.496   8.035  0.1234  0.1337  0.0338
28907SOL    HW191568   1.238   1.415   7.993  0.8958 -0.2673  1.2433
28907SOL    HW291569   1.123   1.480   8.066  0.3647 -0.3523  0.4892
28908SOL     OW91570   8.369   3.609   9.670 -0.0008  0.1829  0.4456
28908SOL    HW191571   8.296   3.630   9.728 -0.7400  2.2190 -1.1737
28908SOL    HW291572   8.327   3.578   9.590  0.9249  0.3797 -0.1215
28909SOL     OW91573   9.490   2.899   8.164 -0.0254 -0.2031  0.3666
28909SOL    HW191574   9.490   2.810   8.130  0.1463 -0.1288  0.1750
28909SOL    HW291575   9.397   2.921   8.173 -0.0691 -0.2936  0.1357
28910SOL     OW91576   0.666   2.993   8.576  0.1050 -0.2977  0.2087
28910SOL    HW191577   0.624   3.037   8.503 -0.0252 -0.2586  0.3080
28910SOL    HW291578   0.595   2.971   8.636  0.3443  0.7270  0.8889
28911SOL     OW91579   9.212   4.003   8.242  0.2412 -0.4427 -0.0517
28911SOL    HW191580   9.296   4.031   8.276 -0.9989  1.9898  1.1306
28911SOL    HW291581   9.148   4.037   8.304 -1.7575 -0.3428 -2.0765
28912SOL     OW91582   9.533   3.128   9.745 -0.5732  0.4107 -0.5701
28912SOL    HW191583   9.555   3.045   9.703  0.3574  1.5123 -2.3577
28912SOL    HW291584   9.616   3.159   9.781 -1.0126  0.3401  0.4998
28913SOL     OW91585   9.609   2.142   8.978 -0.6224 -0.0618  0.0831
28913SOL    HW191586   9.558   2.219   8.955 -1.3205  0.1152  2.1237
28913SOL    HW291587   9.685   2.177   9.025  1.3428 -0.3295 -2.7917
28914SOL     OW91588   9.398   3.831   9.574 -0.3263 -0.3765 -0.0757
28914SOL    HW191589   9.449   3.868   9.646 -3.4014 -0.7210  2.3799
28914SOL    HW291590   9.380   3.906   9.517 -0.8231  0.6177  1.3592
28915SOL     OW91591   0.727   1.932   7.551 -0.3777 -0.3975 -0.0140
28915SOL    HW191592   0.745   1.890   7.636  0.4585 -0.3027 -0.1416
28915SOL    HW291593   0.802   1.908   7.497 -0.1947  0.7610 -0.2806
28916SOL     OW91594   8.567   2.085   7.320  0.2104  0.1059 -0.0447
28916SOL    HW191595   8.504   2.015   7.301 -0.1487  0.4085  0.0222
28916SOL    HW291596   8.558   2.145   7.246  0.9648 -0.2303 -0.4182
28917SOL     OW91597   0.211   2.639   7.926  0.2342  0.3143  0.3852
28917SOL    HW191598   0.206   2.734   7.916  1.5159  0.1207 -2.5324
28917SOL    HW291599   0.134   2.605   7.881  1.2182 -0.1573 -0.9550
28918SOL     OW91600   9.949   4.331   0.764  0.5009 -0.1844  0.0322
28918SOL    HW191601   9.936   4.424   0.784  2.3342  0.8000 -3.0836
28918SOL    HW291602  10.038   4.312   0.795  0.2492 -0.8267  0.3706
28919SOL     OW91603   8.644   1.794   9.101 -0.0396 -0.1579 -0.7032
28919SOL    HW191604   8.665   1.755   9.016  0.9989  0.8742 -0.9333
28919SOL    HW291605   8.599   1.875   9.081  2.2545  1.2498 -0.3369
28920SOL     OW91606   8.171   4.208   1.173 -0.7233 -0.3474  0.6140
28920SOL    HW191607   8.240   4.273   1.158  0.5457 -1.6538  0.8031
28920SOL    HW291608   8.111   4.220   1.099 -0.6827  1.2669  0.8237
28921SOL     OW91609   0.066   2.839   7.276  0.6458 -0.4007  0.0739
28921SOL    HW191610   0.161   2.845   7.266  0.5842 -1.2757 -1.1663
28921SOL    HW291611   0.037   2.930   7.278  1.3528 -0.1224 -1.3255
28922SOL     OW91612   9.951   4.674   0.093  0.0861  0.4241  0.1436
28922SOL    HW191613  10.037   4.640   0.067 -0.5443  0.4275 -2.0429
28922SOL    HW291614   9.949   4.763   0.058 -0.1076  1.0575  1.7550
28923SOL     OW91615   9.587   3.223   7.534 -0.0363 -0.0551  0.8297
28923SOL    HW191616   9.541   3.204   7.452  0.0335 -0.1242  0.8067
28923SOL    HW291617   9.631   3.141   7.557 -0.9401 -0.3599  1.5124
28924SOL     OW91618   9.407   3.009   7.719  0.1253  0.5703 -0.3478
28924SOL    HW191619   9.333   2.971   7.765  0.0123  1.8080  0.5220
28924SOL    HW291620   9.470   2.938   7.711  0.1810  0.3474  1.8065
28925SOL     OW91621   9.890   3.817   0.490  0.1239  0.1256 -0.1051
28925SOL    HW191622   9.804   3.836   0.453  0.2332  0.0813 -0.3781
28925SOL    HW291623   9.915   3.898   0.536  0.6806  0.7277 -1.4506
28926SOL     OW91624   9.099   4.300   9.793  0.0137  0.2358 -0.0165
28926SOL    HW191625   9.106   4.345   9.877 -2.2309  1.7485 -0.5610
28926SOL    HW291626   9.058   4.216   9.814 -2.3332  1.3790  0.2600
28927SOL     OW91627   8.921   1.935   0.963  0.4378 -0.3651 -0.0903
28927SOL    HW191628   8.902   1.853   1.007  1.5218  0.6133  2.2555
28927SOL    HW291629   9.010   1.957   0.990  0.3481  1.3360 -1.0904
28928SOL     OW91630   9.795   3.175   9.812  0.0120  0.2983 -0.2057
28928SOL    HW191631   9.856   3.237   9.852  0.2990 -0.8588  1.1750
28928SOL    HW291632   9.849   3.102   9.784 -0.8918 -1.5117  2.5713
28929SOL     OW91633   9.941   1.634   0.139  0.0366  0.2011  0.1983
28929SOL    HW191634   9.858   1.603   0.105  0.6170  0.5473 -1.5986
28929SOL    HW291635   9.922   1.664   0.228 -1.7371  0.2659 -0.2008
28930SOL     OW91636   9.146   2.675   9.680 -0.2195 -0.4932  0.4649
28930SOL    HW191637   9.090   2.605   9.648 -1.3854  1.5290 -2.0304
28930SOL    HW291638   9.235   2.647   9.657 -0.6020 -1.4646  0.1503
28931SOL     OW91639   8.377   2.176   9.861 -0.3257 -0.6009  0.5758
28931SOL    HW191640   8.328   2.141   9.935 -0.0276  1.3734  1.7514
28931SOL    HW291641   8.364   2.271   9.867  1.0982 -0.2962 -0.9070
28932SOL     OW91642   9.668   2.432   9.972 -0.7864  0.2295  0.1872
28932SOL    HW191643   9.719   2.488  10.029  0.5736 -1.2174  0.4229
28932SOL    HW291644   9.708   2.345   9.981 -1.0890 -0.2002 -2.2831
28933SOL     OW91645   9.124   3.261   1.481  0.7935 -0.2504  0.3355
28933SOL    HW191646   9.138   3.274   1.387  2.9813 -1.3002  0.5026
28933SOL    HW291647   9.174   3.331   1.522  0.2196 -0.0772  0.7422
28934SOL     OW91648   8.853   3.098   9.444  0.1481  0.1730 -0.3838
28934SOL    HW191649   8.927   3.144   9.485 -1.2756  2.0649  0.1273
28934SOL    HW291650   8.854   3.011   9.483  1.6358  0.4369  0.2045
28935SOL     OW91651   9.744   1.943   9.665 -0.3061  0.1991 -0.2063
28935SOL    HW191652   9.750   1.909   9.754  0.1422 -0.5322 -0.5133
28935SOL    HW291653   9.684   1.883   9.621  0.1315  0.0677 -0.6268
28936SOL     OW91654   8.285   3.510   9.987 -0.0025 -0.4649  0.0968
28936SOL    HW191655   8.369   3.473  10.014  0.9167  0.8602 -0.8906
28936SOL    HW291656   8.301   3.604   9.981 -0.7717 -0.4674 -2.8076
28937SOL     OW91657   7.031   0.904   8.518 -0.0287 -0.2328  0.0999
28937SOL    HW191658   6.957   0.943   8.564  0.1077 -0.5001  0.5538
28937SOL    HW291659   7.018   0.809   8.528 -0.5677 -0.3253 -1.3127
28938SOL     OW91660   8.279   1.375   1.113 -0.1764 -0.2580  0.1464
28938SOL    HW191661   8.243   1.314   1.048  0.1162  0.1735 -0.4192
28938SOL    HW291662   8.229   1.456   1.100 -1.3126 -0.6958  1.6247
28939SOL     OW91663   8.719   2.150   0.373 -0.7723  0.4365  0.1941
28939SOL    HW191664   8.808   2.116   0.361  0.3601  2.5777  2.1152
28939SOL    HW291665   8.692   2.179   0.286 -0.1508 -1.4758 -0.6654
28940SOL     OW91666   0.288   2.951   1.359 -0.3576  0.2610  0.3842
28940SOL    HW191667   0.257   2.986   1.442  0.7968 -1.2976  1.4902
28940SOL    HW291668   0.327   2.867   1.381  1.5620  0.6208 -1.4653
28941SOL     OW91669   9.883   5.348   9.290 -0.2053 -0.4700  0.5502
28941SOL    HW191670   9.837   5.264   9.280  1.1712 -1.4845  2.2865
28941SOL    HW291671   9.844   5.387   9.368 -1.0366  0.6443 -0.4222
28942SOL     OW91672   9.365   0.139   9.993 -0.3184 -0.0399 -0.2405
28942SOL    HW191673   9.280   0.131   9.950 -2.0012  0.0496  2.9259
28942SOL    HW291674   9.356   0.216  10.049  2.5380  1.1441 -1.3285
28943SOL     OW91675   9.456   2.188   0.057  0.4578  0.9423 -0.4002
28943SOL    HW191676   9.512   2.111   0.055  0.2830  0.7592  0.8846
28943SOL    HW291677   9.509   2.258   0.020  0.5758  0.1826 -1.6834
28944SOL     OW91678   9.411   2.613   9.686  0.1581 -0.2055 -0.0866
28944SOL    HW191679   9.501   2.633   9.661 -0.6421  4.0782  0.0272
28944SOL    HW291680   9.407   2.633   9.780 -1.3278  1.5034 -0.4807
28945SOL     OW91681   9.963   2.268   9.801 -0.0043 -0.1348 -0.2746
28945SOL    HW191682   9.983   2.179   9.771  0.5306 -0.2688  0.4685
28945SOL    HW291683   9.967   2.262   9.896 -0.7810  0.4987 -0.2005
28946SOL     OW91684   0.587   2.179   0.687 -0.1377 -0.4350 -0.4750
28946SOL    HW191685   0.666   2.183   0.741  0.2212  0.4477 -1.0500
28946SOL    HW291686   0.516   2.165   0.749  0.5136 -1.6490  0.0042
28947SOL     OW91687   9.446   1.608   1.048 -0.6222  0.3201  0.0023
28947SOL    HW191688   9.498   1.624   0.969 -0.4481  1.9800  0.4372
28947SOL    HW291689   9.420   1.695   1.078  1.3557 -0.1066  3.1419
28948SOL     OW91690   0.666   3.285   8.683  0.6471 -0.3515 -0.2725
28948SOL    HW191691   0.706   3.199   8.674  0.2311 -0.5234 -0.5062
28948SOL    HW291692   0.601   3.274   8.753  2.0135  0.2996  1.1479
28949SOL     OW91693   9.471   2.224   0.470  0.0837  1.4146  0.0892
28949SOL    HW191694   9.546   2.187   0.424 -0.4768 -0.5852  0.6902
28949SOL    HW291695   9.501   2.234   0.560  0.1424  2.2004 -0.0135
28950SOL     OW91696   9.521   2.122   9.429 -0.8965  0.4633  0.0540
28950SOL    HW191697   9.480   2.202   9.397 -0.6833 -0.0638 -1.5704
28950SOL    HW291698   9.593   2.152   9.484 -0.8206  1.3822 -0.5431
28951SOL     OW91699   9.493   1.128   9.042 -0.4967 -0.4499  0.4569
28951SOL    HW191700   9.461   1.173   8.964  1.1318 -0.5372 -0.2853
28951SOL    HW291701   9.486   1.035   9.021 -0.1118 -0.4751  0.4467
28952SOL     OW91702   8.391   3.406   0.521  0.0127  0.1137 -0.7432
28952SOL    HW191703   8.324   3.450   0.573 -0.0834 -0.5069 -0.3290
28952SOL    HW291704   8.397   3.319   0.560  0.7254  0.0121 -1.0771
28953SOL     OW91705   9.354   3.158   0.635  0.7753 -0.4746  0.5887
28953SOL    HW191706   9.319   3.238   0.596 -0.2305 -2.0037 -1.7468
28953SOL    HW291707   9.444   3.180   0.658  0.9264  0.9393 -1.2412
28954SOL     OW91708   9.560   3.077   0.932 -0.0075 -0.2213  0.3587
28954SOL    HW191709   9.570   3.171   0.951 -1.1833 -0.1230  0.5148
28954SOL    HW291710   9.622   3.061   0.861 -0.4911  0.8926 -0.3372
28955SOL     OW91711   8.665   2.629   0.968 -0.2199  0.2014  0.1435
28955SOL    HW191712   8.665   2.713   0.921  0.2495 -0.7028 -1.4978
28955SOL    HW291713   8.611   2.645   1.045  0.7705  2.3524  0.4365
28956SOL     OW91714   9.805   3.361   0.900 -0.1143  0.4345 -0.1509
28956SOL    HW191715   9.832   3.269   0.906  1.3703  0.7507 -1.7278
28956SOL    HW291716   9.866   3.407   0.957  0.6427  0.7329 -1.1904
28957SOL     OW91717   9.337   6.496   0.236 -0.3650 -0.7854 -0.1806
28957SOL    HW191718   9.384   6.431   0.289 -2.5931 -0.3080  2.5266
28957SOL    HW291719   9.392   6.574   0.239 -0.2107 -0.9264  1.0604
28958SOL     OW91720   8.652   5.568   1.138  0.4836  0.2678 -0.6651
28958SOL    HW191721   8.557   5.576   1.129  0.1198  0.1598  2.4906
28958SOL    HW291722   8.671   5.479   1.107 -0.3300  0.4921 -1.8721
28959SOL     OW91723   0.589   4.956   3.158 -0.5944  0.4657  0.2020
28959SOL    HW191724   0.526   4.926   3.092  0.1068 -0.2439 -0.1630
28959SOL    HW291725   0.535   4.994   3.227 -1.5733 -1.8969  0.8133
28960SOL     OW91726   9.761   2.925   0.050  0.0982  0.3298  0.0572
28960SOL    HW191727   9.823   2.997   0.059 -1.0018  1.2783  0.1164
28960SOL    HW291728   9.740   2.922  -0.043  0.0191  0.1958  0.0788
28961SOL     OW91729   1.252   2.962   2.517  0.2736 -0.8544 -0.2676
28961SOL    HW191730   1.205   2.975   2.434 -0.8527 -0.1059  0.4817
28961SOL    HW291731   1.225   2.875   2.546 -0.8429 -0.3390  0.2712
28962SOL     OW91732   0.315   4.496   2.145 -0.4393  0.0825 -0.2794
28962SOL    HW191733   0.309   4.440   2.222 -0.6286 -1.0390 -1.0974
28962SOL    HW291734   0.370   4.569   2.173 -1.1780  0.1043  1.1603
28963SOL     OW91735   9.055   5.832   2.676 -0.0757  0.3417 -0.3351
28963SOL    HW191736   9.100   5.843   2.592  1.5077  1.7600  0.6676
28963SOL    HW291737   9.118   5.784   2.730 -1.1045 -0.5949  0.0274
28964SOL     OW91738   8.554   5.051   1.332  0.1713  0.9548  0.5567
28964SOL    HW191739   8.590   4.963   1.343  0.3568  1.1597  1.5899
28964SOL    HW291740   8.625   5.110   1.355 -1.0579  1.3569  3.5351
28965SOL     OW91741   9.549   2.459   1.375 -0.6201  0.4286 -0.1663
28965SOL    HW191742   9.521   2.487   1.287 -0.1933  1.3548 -0.0138
28965SOL    HW291743   9.626   2.512   1.393 -0.3006 -0.2666  0.4887
28966SOL     OW91744   9.014   4.759   9.030 -0.0314  0.1812 -0.4397
28966SOL    HW191745   9.069   4.837   9.036 -0.9007  0.8132 -0.7122
28966SOL    HW291746   9.021   4.732   8.938  2.5384 -1.7308  0.2473
28967SOL     OW91747   9.011   5.164   9.662 -0.2971  0.2800 -0.0994
28967SOL    HW191748   9.058   5.231   9.711  0.2755  0.5634 -1.0452
28967SOL    HW291749   8.976   5.209   9.586  0.6373 -0.6202 -1.0786
28968SOL     OW91750   8.195   5.100   9.930  0.0568 -0.0687 -0.1248
28968SOL    HW191751   8.115   5.127   9.977  0.3654  0.6582 -0.0154
28968SOL    HW291752   8.260   5.089   9.999 -0.1594 -1.4846 -0.1229
28969SOL     OW91753   0.089   2.656   9.365  0.0706 -0.8359  0.0173
28969SOL    HW191754   0.117   2.569   9.395 -1.3048 -1.4539 -0.4646
28969SOL    HW291755   0.083   2.648   9.270 -0.3221 -0.2831 -0.0036
28970SOL     OW91756   0.238   4.729   2.484 -0.6893  0.2476  0.3952
28970SOL    HW191757   0.180   4.766   2.551 -2.5360 -1.1789 -0.3454
28970SOL    HW291758   0.189   4.654   2.450  0.3732  0.7423 -2.3105
28971SOL     OW91759   9.309   4.291   2.258  0.0861 -0.0498 -0.0637
28971SOL    HW191760   9.382   4.296   2.196 -0.4117  0.1566 -0.6427
28971SOL    HW291761   9.249   4.227   2.220  0.9077 -1.7632  1.4446
28972SOL     OW91762   9.453   3.541   1.914 -0.1705 -0.3313  0.6934
28972SOL    HW191763   9.471   3.618   1.860  0.1050 -1.3248 -0.6478
28972SOL    HW291764   9.496   3.560   1.998 -0.5848  1.2080  0.5837
28973SOL     OW91765   0.695   6.063   1.362  0.0032  0.5202  0.4217
28973SOL    HW191766   0.766   6.000   1.371 -1.4602 -1.5724 -2.1463
28973SOL    HW291767   0.709   6.103   1.276 -1.2631  0.9316  0.3981
28974SOL     OW91768   0.341   5.323   8.641  0.0835 -0.2977 -0.4234
28974SOL    HW191769   0.327   5.247   8.697 -0.7892  0.0346 -0.1932
28974SOL    HW291770   0.317   5.293   8.554 -1.5699  0.1170 -0.1135
28975SOL     OW91771   0.665   3.263   0.930  0.6371  0.0749  0.0613
28975SOL    HW191772   0.662   3.172   0.959  0.4050 -0.2076 -0.8170
28975SOL    HW291773   0.757   3.287   0.934  1.0618 -1.0228 -2.1500
28976SOL     OW91774   0.307   6.112   0.710  0.6562 -0.0873 -0.1428
28976SOL    HW191775   0.301   6.208   0.712 -0.8104 -0.1924  1.2646
28976SOL    HW291776   0.246   6.083   0.778 -0.0035 -2.0874 -1.5710
28977SOL     OW91777   9.954   5.253   0.332 -0.5135 -0.3504  0.3956
28977SOL    HW191778   9.947   5.159   0.344 -0.6261 -0.7159 -2.3236
28977SOL    HW291779   9.907   5.290   0.407 -0.8724 -2.4333  1.2371
28978SOL     OW91780   9.705   5.857   0.151  0.3332  0.1036  0.4991
28978SOL    HW191781   9.707   5.848   0.246 -0.4918  0.2023  0.5321
28978SOL    HW291782   9.776   5.917   0.131  0.3624  0.2620  1.0781
28979SOL     OW91783   9.328   4.642   9.996 -0.5405  0.4686 -0.7919
28979SOL    HW191784   9.399   4.694  10.034  0.1448 -0.8865 -0.2030
28979SOL    HW291785   9.253   4.702   9.997  0.2027  1.4229 -0.0284
28980SOL     OW91786   9.551   5.624   1.079  0.2447  0.2983 -0.3184
28980SOL    HW191787   9.524   5.537   1.108 -1.7788  1.3915  1.1666
28980SOL    HW291788   9.475   5.659   1.033  0.5883  1.8133  0.2573
28981SOL     OW91789   8.325   4.346   9.706  0.3526  0.5211 -0.0381
28981SOL    HW191790   8.232   4.337   9.724  0.4707 -0.5509  0.0333
28981SOL    HW291791   8.339   4.441   9.703 -0.3977  0.7183  1.7928
28982SOL     OW91792   9.605   3.978   0.815 -0.4005 -0.5285  0.3966
28982SOL    HW191793   9.527   4.029   0.792  0.4521 -0.0579 -1.5897
28982SOL    HW291794   9.643   4.025   0.889 -1.2942  0.0028  0.5298
28983SOL     OW91795   9.585   3.659   9.427  0.3362  0.4844  0.0606
28983SOL    HW191796   9.532   3.668   9.348 -1.4431  0.1340  1.1832
28983SOL    HW291797   9.542   3.716   9.492 -0.4150 -1.9731  1.8296
28984SOL     OW91798   0.263   5.111   8.795 -0.1474  0.2493 -0.4089
28984SOL    HW191799   0.313   5.049   8.846 -0.5547 -0.4700 -0.8713
28984SOL    HW291800   0.229   5.060   8.721 -1.6970  0.6703 -0.0060
28985SOL     OW91801   0.788   4.818   9.996  0.3135  0.1483 -0.1424
28985SOL    HW191802   0.762   4.726   9.996  1.2421 -0.1251 -0.3116
28985SOL    HW291803   0.758   4.851   9.911 -0.8436  0.2466  0.2988
28986SOL     OW91804   0.370   5.716   0.364 -0.5471  0.2870  0.3777
28986SOL    HW191805   0.447   5.715   0.307 -0.1557  0.2114  0.9108
28986SOL    HW291806   0.361   5.626   0.394  0.4554  0.7488  2.0732
28987SOL     OW91807   8.673   4.985   9.856  0.1816  0.6780  0.4391
28987SOL    HW191808   8.622   5.066   9.864  0.1966  0.6591  0.7358
28987SOL    HW291809   8.640   4.944   9.776  1.6144  1.9753 -0.8417
28988SOL     OW91810   9.540   5.031   0.980  0.3703  0.2181 -0.1453
28988SOL    HW191811   9.533   4.951   0.929  0.4769 -0.2511  0.5756
28988SOL    HW291812   9.599   5.009   1.052 -0.9269  0.4458  1.0090
28989SOL     OW91813   1.294   2.908   0.143  0.0440 -0.5930  0.2871
28989SOL    HW191814   1.324   2.998   0.149 -0.4883 -0.3205 -0.9553
28989SOL    HW291815   1.202   2.911   0.171 -0.5664 -0.3893 -1.6556
28990SOL     OW91816   1.949   2.049   8.973  0.5652 -0.5078 -0.2386
28990SOL    HW191817   1.942   1.965   9.019  0.7104 -0.1645  0.4269
28990SOL    HW291818   1.893   2.039   8.896  0.4218 -1.1453 -0.0552
28991SOL     OW91819   1.257   5.237   1.574 -0.5163  0.4966  0.3256
28991SOL    HW191820   1.232   5.267   1.661 -1.1770  0.1889  0.2457
28991SOL    HW291821   1.247   5.313   1.518 -0.6399  0.5458  0.4154
28992SOL     OW91822   8.825   5.811   9.129 -0.1537 -0.1075 -0.0655
28992SOL    HW191823   8.849   5.721   9.107 -0.0320  0.2068 -1.2381
28992SOL    HW291824   8.862   5.825   9.216  3.3541  0.1033 -1.4917
28993SOL     OW91825   0.092   6.064   0.414 -0.2643  0.3073  0.1587
28993SOL    HW191826   0.018   6.043   0.471  0.5337  1.1081  1.5297
28993SOL    HW291827   0.129   6.144   0.452  1.0915  0.1023 -0.7012
28994SOL     OW91828   0.607   3.562   1.249 -0.0343 -0.0559  0.1444
28994SOL    HW191829   0.640   3.487   1.299 -0.8610  0.4412  1.4524
28994SOL    HW291830   0.514   3.543   1.237  0.4352 -0.8751 -2.4967
28995SOL     OW91831   9.777   5.160   2.135  0.7733  0.4727  0.3127
28995SOL    HW191832   9.695   5.110   2.132  0.5150  0.8680  0.7776
28995SOL    HW291833   9.781   5.205   2.051  2.1966 -2.2041 -1.1437
28996SOL     OW91834   0.191   3.443   3.267  0.1903 -0.2106  0.1024
28996SOL    HW191835   0.232   3.357   3.279 -0.0241 -0.4740 -0.9579
28996SOL    HW291836   0.157   3.441   3.177 -0.7042  0.6111  0.4098
28997SOL     OW91837   0.453   3.485   1.981 -0.1163  0.1889 -0.5322
28997SOL    HW191838   0.519   3.463   2.048  1.4290  0.4021 -1.9429
28997SOL    HW291839   0.388   3.537   2.028  1.4173  1.1295  0.6230
28998SOL     OW91840   9.674   4.295   0.845 -0.4092 -0.5987 -0.3940
28998SOL    HW191841   9.758   4.258   0.818  0.9971  1.4806  0.9960
28998SOL    HW291842   9.689   4.389   0.850 -1.8485 -0.4777  3.1047
28999SOL     OW91843   0.612   3.886   0.916  0.3275  0.5201  0.2178
28999SOL    HW191844   0.588   3.966   0.871  1.6600 -0.1998 -1.8718
28999SOL    HW291845   0.698   3.905   0.955  1.5679 -0.4447 -1.9300
29000SOL     OW91846   9.236   5.440   2.709  0.3963 -0.1427 -0.4223
29000SOL    HW191847   9.332   5.438   2.714  0.4252  1.2102 -0.2927
29000SOL    HW291848   9.212   5.520   2.756 -0.7063  0.3259 -1.7784
29001SOL     OW91849   0.560   4.968   9.394  0.3604 -0.1138  0.0267
29001SOL    HW191850   0.495   4.991   9.461 -0.1049  0.1268 -0.5023
29001SOL    HW291851   0.587   4.879   9.417  0.2553 -0.0069  0.5764
29002SOL     OW91852   0.624   4.068   2.155 -0.0881 -0.2293 -0.1502
29002SOL    HW191853   0.561   4.062   2.082 -1.5035  0.0392  1.0334
29002SOL    HW291854   0.569   4.072   2.233  1.4273 -0.2063  0.9162
29003SOL     OW91855   8.632   5.813   2.018  0.1218 -0.1803  0.6682
29003SOL    HW191856   8.705   5.854   1.973 -1.1145 -0.2280 -1.4366
29003SOL    HW291857   8.646   5.719   2.008 -0.6434 -0.1865 -0.4830
29004SOL     OW91858   1.119   5.662   9.296  0.2969  0.1672  0.8489
29004SOL    HW191859   1.131   5.638   9.204  0.3491  1.7089  0.4478
29004SOL    HW291860   1.024   5.656   9.309  0.2350  0.4328  0.5496
29005SOL     OW91861   9.340   2.753   0.782  0.2675 -0.1904  0.6330
29005SOL    HW191862   9.313   2.726   0.694  1.9230  1.9375 -0.5804
29005SOL    HW291863   9.285   2.701   0.840 -1.8102 -0.6925 -1.6608
29006SOL     OW91864   0.874   3.399   0.071 -0.6505 -0.4935 -0.0320
29006SOL    HW191865   0.900   3.308   0.086 -2.0522 -0.6393  1.6568
29006SOL    HW291866   0.922   3.449   0.138 -0.5423 -0.1030 -0.4023
29007SOL     OW91867   9.863   4.397   2.067  0.3842  0.2276 -0.4342
29007SOL    HW191868   9.926   4.468   2.053  0.7349 -0.1492 -0.7407
29007SOL    HW291869   9.788   4.421   2.011 -1.1817  2.4297  2.4213
29008SOL     OW91870   9.604   4.423   1.389  0.2212  0.3931  0.0720
29008SOL    HW191871   9.544   4.417   1.315 -0.8556 -0.9867  1.0304
29008SOL    HW291872   9.580   4.505   1.433  1.1818  1.4598 -1.3453
29009SOL     OW91873   9.234   5.101   0.231 -0.7245  0.0639  0.0918
29009SOL    HW191874   9.207   5.189   0.205  1.4780  0.5472 -0.6505
29009SOL    HW291875   9.275   5.112   0.316 -0.9365 -0.3394  0.2493
29010SOL     OW91876   0.615   5.948   0.624 -0.2612  0.0306 -0.0214
29010SOL    HW191877   0.645   6.038   0.628 -2.9204  0.9186  1.1924
29010SOL    HW291878   0.552   5.946   0.552  1.1242 -1.3158 -1.2346
29011SOL     OW91879   0.263   4.191   2.644 -0.1381 -0.1251 -0.3318
29011SOL    HW191880   0.273   4.268   2.700 -1.1767 -1.3391  1.5977
29011SOL    HW291881   0.334   4.132   2.671 -1.3830 -1.2285  0.6101
29012SOL     OW91882   9.835   3.565   0.576 -0.4374 -0.1025  0.1253
29012SOL    HW191883   9.848   3.654   0.546 -0.1024 -0.4375 -0.7258
29012SOL    HW291884   9.923   3.533   0.598 -0.4618 -0.4982 -0.3514
29013SOL     OW91885   9.064   5.029   9.380 -0.3325 -0.6255  0.0372
29013SOL    HW191886   9.018   5.087   9.441 -2.4348 -1.7084 -0.4742
29013SOL    HW291887   9.154   5.025   9.415 -1.1375 -0.1721  2.2913
29014SOL     OW91888   2.410   3.744   8.939  0.1299 -0.2183 -0.8786
29014SOL    HW191889   2.349   3.811   8.910 -0.1311 -1.1718 -2.6007
29014SOL    HW291890   2.383   3.665   8.892  0.0613 -1.6806  1.5500
29015SOL     OW91891   9.690   5.703   9.905  0.0428  0.3175 -0.1011
29015SOL    HW191892   9.617   5.643   9.917  2.2395 -2.0222  2.1606
29015SOL    HW291893   9.689   5.757   9.984  0.2566  0.8592 -0.4650
29016SOL     OW91894   8.341   3.866   1.722  0.4548  0.5002  1.0018
29016SOL    HW191895   8.398   3.943   1.719  1.2611 -0.0337  2.0479
29016SOL    HW291896   8.401   3.792   1.725 -0.3054 -0.2817 -1.5812
29017SOL     OW91897   9.480   3.986   9.805 -0.2992 -0.1933  0.4018
29017SOL    HW191898   9.474   3.930   9.882  0.3333 -1.3233 -0.3502
29017SOL    HW291899   9.541   4.055   9.830 -0.7657 -0.0673  1.2003
29018SOL     OW91900   0.539   2.870   0.048  0.4635 -0.4946  0.1605
29018SOL    HW191901   0.491   2.799   0.005 -1.6087  1.9447 -1.6887
29018SOL    HW291902   0.533   2.850   0.141 -0.2431 -2.6587 -0.3292
29019SOL     OW91903   0.392   4.314   2.345 -0.0105  0.1188  0.3371
29019SOL    HW191904   0.486   4.313   2.324  0.0287  0.8208  0.5000
29019SOL    HW291905   0.385   4.256   2.421  0.0727 -1.1442 -0.5835
29020SOL     OW91906   0.619   6.757   0.299  0.6880  0.4971  0.2168
29020SOL    HW191907   0.655   6.747   0.211 -0.5989 -1.6567 -0.0938
29020SOL    HW291908   0.663   6.689   0.350  1.5182  1.8221  1.2748
29021SOL     OW91909   9.541   5.369   1.694 -0.9967  0.5637  0.1416
29021SOL    HW191910   9.503   5.428   1.760 -1.2102 -0.1870  0.6951
29021SOL    HW291911   9.506   5.283   1.716  0.8466 -0.1043  0.5217
29022SOL     OW91912   9.326   5.069   9.895 -0.3273 -0.2902 -0.5217
29022SOL    HW191913   9.233   5.056   9.874 -0.9929  0.8118  1.6026
29022SOL    HW291914   9.350   4.993   9.947 -0.2779 -0.1605 -0.3533
29023SOL     OW91915   9.104   5.461   2.087 -0.2805  0.0199 -0.0030
29023SOL    HW191916   9.121   5.506   2.004  0.5345  0.7698  0.5661
29023SOL    HW291917   9.165   5.388   2.088  2.2982  2.1174  1.5731
29024SOL     OW91918   0.870   3.595   1.971  0.4213 -0.2686  0.0982
29024SOL    HW191919   0.832   3.556   2.050  1.1802 -1.5983 -0.1757
29024SOL    HW291920   0.953   3.632   1.999  0.8586 -1.0598 -0.1448
29025SOL     OW91921   9.373   4.281   1.548  0.0679  0.2924 -0.1008
29025SOL    HW191922   9.299   4.248   1.599  0.9074  0.9294  1.5696
29025SOL    HW291923   9.369   4.233   1.465 -1.8936 -0.0501  0.1792
29026SOL     OW91924   9.163   4.062   0.417 -0.1029 -0.3099 -0.4558
29026SOL    HW191925   9.210   3.992   0.461 -0.7054  0.0292  0.7349
29026SOL    HW291926   9.085   4.021   0.381 -1.0119 -0.0494  1.1817
29027SOL     OW91927   8.971   4.239   1.247  0.1234 -0.0108 -0.0848
29027SOL    HW191928   8.921   4.226   1.328 -2.4774  2.7419 -1.1462
29027SOL    HW291929   8.968   4.154   1.203 -3.4755 -0.0444  0.0460
29028SOL     OW91930   9.564   4.674   2.836  0.3274  0.0843 -0.7765
29028SOL    HW191931   9.475   4.672   2.871  0.4750 -1.5192 -0.4377
29028SOL    HW291932   9.617   4.632   2.904  1.1661  0.0269 -1.4560
29029SOL     OW91933   0.141   5.514   0.934 -0.3709  0.3269 -0.5193
29029SOL    HW191934   0.152   5.419   0.932 -2.9525 -0.0271  0.2268
29029SOL    HW291935   0.057   5.529   0.893 -1.9627  1.9113  3.0979
29030SOL     OW91936   8.159   5.213   4.245 -0.0433 -0.5169  0.4548
29030SOL    HW191937   8.186   5.239   4.157 -0.0528  0.6365  0.7938
29030SOL    HW291938   8.240   5.212   4.296  0.2574 -3.0243 -0.0060
29031SOL     OW91939   9.645   5.033   3.483  0.3232 -0.2949 -0.4848
29031SOL    HW191940   9.553   5.051   3.504  0.6624  0.6795  0.2331
29031SOL    HW291941   9.648   5.034   3.387 -0.7666 -2.2163 -0.5546
29032SOL     OW91942   8.820   4.752   2.286  0.2846  0.4611  0.3220
29032SOL    HW191943   8.804   4.664   2.320  1.6415 -0.9015 -2.4139
29032SOL    HW291944   8.864   4.738   2.202  2.1201  3.7895  0.6438
29033SOL     OW91945   0.417   5.959   1.295 -0.0538  0.1275  0.5291
29033SOL    HW191946   0.391   5.880   1.247 -0.0159  1.1535 -1.2390
29033SOL    HW291947   0.513   5.955   1.296 -0.1136 -1.3983  3.1544
29034SOL     OW91948   9.941   5.583   0.738 -0.0573  0.1715  0.0275
29034SOL    HW191949   9.924   5.574   0.645  0.3822  0.3744 -0.0730
29034SOL    HW291950   9.855   5.602   0.777 -0.0831  1.0636 -0.4561
29035SOL     OW91951   8.788   4.138   2.276 -0.3425 -0.1115 -0.3402
29035SOL    HW191952   8.814   4.223   2.313  3.7227 -1.4436  0.0799
29035SOL    HW291953   8.758   4.088   2.352 -1.8047  0.5901 -0.4417
29036SOL     OW91954   8.098   6.024   1.904 -0.1353 -0.2449  0.0479
29036SOL    HW191955   8.189   6.003   1.922 -0.2567 -1.5618 -0.8480
29036SOL    HW291956   8.067   5.954   1.847 -1.1069  1.3424 -1.4218
29037SOL     OW91957   1.169   4.122   5.272 -0.3907 -0.2326 -0.5189
29037SOL    HW191958   1.162   4.044   5.218 -0.8993  0.2613 -1.1798
29037SOL    HW291959   1.117   4.188   5.226  0.4782  0.6514 -0.2618
29038SOL     OW91960   9.669   3.774   2.489  0.1800 -1.2248 -0.4183
29038SOL    HW191961   9.692   3.826   2.566  1.5815 -2.2153 -0.1562
29038SOL    HW291962   9.744   3.783   2.431 -0.6168 -0.9728 -1.4371
29039SOL     OW91963   8.372   4.183   2.760  0.2647  0.0758 -0.6839
29039SOL    HW191964   8.369   4.262   2.813 -0.0826  0.2346 -0.9405
29039SOL    HW291965   8.345   4.113   2.821 -1.2204  0.4180 -0.9417
29040SOL     OW91966   9.517   4.622   4.208 -0.3755 -0.2190 -0.1304
29040SOL    HW191967   9.447   4.681   4.237 -0.8741 -1.2296  0.7990
29040SOL    HW291968   9.528   4.641   4.115 -2.4278 -0.5598 -0.4774
29041SOL     OW91969   8.825   4.974   2.447  0.3197  0.1512 -0.5770
29041SOL    HW191970   8.852   4.917   2.375 -0.0485  0.1119 -0.6855
29041SOL    HW291971   8.830   4.919   2.525 -0.0744 -0.0405 -0.6874
29042SOL     OW91972   9.294   4.002   1.806  0.0125 -0.3748  0.5124
29042SOL    HW191973   9.244   4.081   1.785 -1.8593 -1.7048 -0.1210
29042SOL    HW291974   9.372   4.008   1.751 -0.0998  1.0273  0.4766
29043SOL     OW91975   0.062   4.909   2.634  0.1461 -0.0772 -0.1077
29043SOL    HW191976   0.149   4.919   2.673 -0.4094  1.1489  0.8591
29043SOL    HW291977   0.003   4.951   2.696 -1.0715 -0.3867 -1.0389
29044SOL     OW91978   0.333   4.952   2.356 -0.6389 -0.4507 -0.3216
29044SOL    HW191979   0.408   4.976   2.411  0.1326 -1.5624 -0.8561
29044SOL    HW291980   0.304   4.867   2.391 -2.6182  0.6823  0.8477
29045SOL     OW91981   9.204   3.206   1.984  0.5303  0.8113  0.0831
29045SOL    HW191982   9.274   3.145   2.008  1.0076  1.0695 -0.6517
29045SOL    HW291983   9.128   3.150   1.968  1.3505  0.2653 -2.0424
29046SOL     OW91984   1.088   6.836   2.822 -0.0518 -0.1733  0.0109
29046SOL    HW191985   1.148   6.796   2.886  1.1625  0.8930 -0.4440
29046SOL    HW291986   1.120   6.926   2.813 -0.2281 -0.3095 -2.0803
29047SOL     OW91987   9.697   4.411   3.081  0.4236 -0.1198  0.9744
29047SOL    HW191988   9.759   4.476   3.048 -0.2110  0.3511  0.6985
29047SOL    HW291989   9.739   4.376   3.160  0.5816  0.9398  1.3744
29048SOL     OW91990   9.470   4.691   1.956 -0.0722  0.0095  0.2512
29048SOL    HW191991   9.519   4.660   2.033 -1.3986  0.4635  1.2961
29048SOL    HW291992   9.385   4.648   1.963 -0.0771 -0.2355 -1.1828
29049SOL     OW91993   1.422   2.443   1.164 -0.3223 -0.3049 -0.1451
29049SOL    HW191994   1.385   2.511   1.221 -0.5306  0.2031 -0.8874
29049SOL    HW291995   1.417   2.480   1.076  1.4533 -0.4561 -0.3220
29050SOL     OW91996   0.191   4.514   1.646  0.6348 -0.5876  0.1383
29050SOL    HW191997   0.250   4.553   1.582  1.3886 -1.5525  0.2457
29050SOL    HW291998   0.158   4.434   1.603  0.5174 -0.8101  0.6372
29051SOL     OW91999   0.401   4.525   2.857 -0.2285 -0.3176  0.1227
29051SOL    HW192000   0.490   4.519   2.893 -0.6271 -0.5338  1.0972
29051SOL    HW292001   0.411   4.574   2.776  0.7452 -0.0788  0.3805
29052SOL     OW92002   9.895   3.635   2.147 -0.7261  0.5358  0.3175
29052SOL    HW192003   9.843   3.570   2.100 -2.1180  1.1378  0.9958
29052SOL    HW292004   9.914   3.594   2.232 -2.4413  1.3629  1.1297
29053SOL     OW92005   0.771   2.276   2.803 -0.2904  0.4684 -0.3140
29053SOL    HW192006   0.773   2.187   2.767  0.8311  0.2458  0.2769
29053SOL    HW292007   0.781   2.333   2.727  0.6945  0.0393 -0.5061
29054SOL     OW92008   0.228   2.432   1.740 -0.0474  0.2981  0.3421
29054SOL    HW192009   0.226   2.393   1.827  1.4252  0.1495  0.3199
29054SOL    HW292010   0.253   2.523   1.756  3.1474 -0.4557 -0.1503
29055SOL     OW92011   8.093   5.031   2.031 -0.0638  0.0742 -0.6202
29055SOL    HW192012   8.081   5.024   1.937  0.4895  0.7975 -0.7471
29055SOL    HW292013   8.085   5.124   2.050  0.6998  0.0407 -0.0816
29056SOL     OW92014   7.626   3.034   1.648  0.2447 -0.4370 -0.0527
29056SOL    HW192015   7.714   3.007   1.675 -0.1367 -0.5998  1.0141
29056SOL    HW292016   7.575   3.037   1.729  0.0581  2.6853 -0.2223
29057SOL     OW92017   0.962   4.128   3.778  0.9303 -0.3940 -0.0230
29057SOL    HW192018   0.898   4.102   3.844  0.1548  0.1038 -0.5737
29057SOL    HW292019   0.910   4.166   3.707  1.9787  2.3102  0.5795
29058SOL     OW92020   9.722   5.364   2.857  0.3401  0.2782 -0.0856
29058SOL    HW192021   9.805   5.397   2.890  0.6321  0.3617 -0.8983
29058SOL    HW292022   9.732   5.363   2.762 -0.6609  0.4864 -0.2042
29059SOL     OW92023   9.905   4.990   2.407  0.4324 -0.0134 -0.6718
29059SOL    HW192024   9.869   5.067   2.451 -3.5774 -2.1705  0.0273
29059SOL    HW292025   9.983   4.968   2.457  0.8124  2.6721  0.0140
29060SOL     OW92026   8.631   4.411   4.941 -0.2057  0.0144 -0.3029
29060SOL    HW192027   8.666   4.484   4.993 -1.3067 -0.1356  0.6857
29060SOL    HW292028   8.707   4.354   4.925  0.0766 -0.1742  1.5767
29061SOL     OW92029   8.870   5.140   4.260 -0.1926  0.1257  0.4068
29061SOL    HW192030   8.936   5.125   4.327  0.3613  0.1979 -0.1192
29061SOL    HW292031   8.920   5.167   4.183 -1.0079  2.5818  0.6918
29062SOL     OW92032   9.719   4.783   4.866  0.0112  0.1076  0.0394
29062SOL    HW192033   9.757   4.833   4.938 -3.3765  0.0452  1.9805
29062SOL    HW292034   9.773   4.704   4.860  1.2597  0.8323  1.4835
29063SOL     OW92035   9.165   3.908   3.287  0.0550  0.2827 -0.7220
29063SOL    HW192036   9.168   3.960   3.368  0.1755 -1.5772  0.5028
29063SOL    HW292037   9.217   3.830   3.306 -1.2292 -0.9463 -2.0424
29064SOL     OW92038   0.130   4.138   0.986  0.5265  0.0775 -0.0467
29064SOL    HW192039   0.155   4.046   0.979  1.7919  0.3384  0.8598
29064SOL    HW292040   0.038   4.139   0.962  0.7988 -1.2463 -1.2564
29065SOL     OW92041   0.017   4.295   3.087 -0.1224  0.2057 -0.5983
29065SOL    HW192042  -0.065   4.246   3.089 -0.1810  0.3345  0.8841
29065SOL    HW292043   0.074   4.244   3.030 -1.0077 -0.2452 -1.0957
29066SOL     OW92044   0.238   4.835   2.101 -0.4146 -0.0294  0.0340
29066SOL    HW192045   0.317   4.837   2.156  0.0876 -0.9896 -0.6508
29066SOL    HW292046   0.173   4.884   2.152  0.5332  0.5243  0.7336
29067SOL     OW92047   9.455   4.566   3.487 -0.2843  0.9131 -0.3189
29067SOL    HW192048   9.403   4.587   3.410 -0.7787  0.6372 -0.0597
29067SOL    HW292049   9.443   4.472   3.499 -0.2025  0.9564  0.0929
29068SOL     OW92050   0.051   3.702   3.986 -0.1912 -0.0040 -0.1817
29068SOL    HW192051   0.060   3.630   3.923 -1.2322 -0.4932  0.2227
29068SOL    HW292052   0.098   3.672   4.064 -0.0482  0.0466 -0.2469
29069SOL     OW92053   8.864   5.090   3.149  0.3185  0.2133  0.2664
29069SOL    HW192054   8.956   5.099   3.173 -0.3547 -0.0927  3.1550
29069SOL    HW292055   8.820   5.164   3.190 -1.0343 -0.7508  0.6167
29070SOL     OW92056   9.015   5.134   2.707  0.3597  0.0299 -0.1538
29070SOL    HW192057   9.084   5.138   2.773  0.1949  0.6432 -0.0128
29070SOL    HW292058   8.955   5.067   2.740 -1.5093  2.6737  2.1071
29071SOL     OW92059   9.909   5.063   1.776 -0.5868  0.5480  0.0706
29071SOL    HW192060   9.947   5.084   1.691 -0.4335  2.5376  0.6084
29071SOL    HW292061   9.819   5.036   1.756  0.1465 -1.3010 -0.9168
29072SOL     OW92062   0.089   5.555   2.235  0.1878 -0.3665  0.0150
29072SOL    HW192063   0.080   5.644   2.267  1.3956  0.9594 -3.1354
29072SOL    HW292064   0.084   5.563   2.140 -1.5396 -3.8981 -0.2653
29073SOL     OW92065   8.506   5.777   2.725  0.1956 -0.0355  0.0094
29073SOL    HW192066   8.477   5.695   2.766  2.0222 -0.4596  0.4749
29073SOL    HW292067   8.599   5.764   2.709  0.2077  1.4273 -1.2138
29074SOL     OW92068   8.610   3.039   2.234 -0.0156  0.0658 -0.4663
29074SOL    HW192069   8.567   3.103   2.291 -0.0960  0.3315 -0.8256
29074SOL    HW292070   8.610   2.958   2.285 -1.3129 -0.0446 -0.6148
29075SOL     OW92071   8.399   3.787   2.918  0.5547 -0.3886  0.2439
29075SOL    HW192072   8.328   3.851   2.914 -0.4972 -1.5649 -0.1267
29075SOL    HW292073   8.478   3.840   2.930 -0.3818  0.9314  0.7265
29076SOL     OW92074   8.966   4.090   2.503  0.4570  0.5321  0.3758
29076SOL    HW192075   9.026   4.081   2.576 -2.6904  0.7587  3.0932
29076SOL    HW292076   8.998   4.028   2.437  2.9677 -0.1160  2.1500
29077SOL     OW92077   8.738   2.920   3.362 -0.4164 -0.3403  0.0382
29077SOL    HW192078   8.653   2.943   3.324  0.2671  1.3700 -0.5034
29077SOL    HW292079   8.720   2.913   3.456 -1.2591 -0.4875 -0.1272
29078SOL     OW92080   1.012   3.352   3.324 -0.8703 -0.1593 -0.5110
29078SOL    HW192081   1.097   3.380   3.357 -0.1951 -1.4068 -1.1598
29078SOL    HW292082   0.950   3.376   3.393 -0.0461  1.1000 -0.2066
29079SOL     OW92083   0.013   7.029   1.847  0.2030 -0.4158 -0.2646
29079SOL    HW192084   0.068   7.088   1.796  0.9013 -1.4008 -0.6620
29079SOL    HW292085   0.050   7.032   1.936 -0.6661  0.8625  0.0774
29080SOL     OW92086   8.589   5.875   4.682  0.0833  0.0913  0.4634
29080SOL    HW192087   8.611   5.954   4.731  2.2297 -0.1171 -0.1365
29080SOL    HW292088   8.557   5.814   4.748  1.2416  0.4304  1.3490
29081SOL     OW92089   9.061   4.726   4.679 -0.0968  0.2387 -0.4307
29081SOL    HW192090   9.052   4.631   4.684 -0.6284  0.4053  2.6498
29081SOL    HW292091   9.156   4.741   4.675  0.0754 -0.3650  1.1545
29082SOL     OW92092   8.275   6.708   3.459  0.1726  0.2172 -0.7075
29082SOL    HW192093   8.329   6.671   3.530  0.5008 -0.1799 -1.1624
29082SOL    HW292094   8.259   6.634   3.401 -4.6972 -0.8113  1.7245
29083SOL     OW92095   9.478   4.075   3.874  0.7526  0.9290  0.2976
29083SOL    HW192096   9.526   4.010   3.823 -0.2425  1.4264 -1.2935
29083SOL    HW292097   9.539   4.100   3.944  2.0619  0.1142 -0.5365
29084SOL     OW92098   1.131   3.211   2.850  0.3400 -0.0184 -0.6630
29084SOL    HW192099   1.166   3.230   2.937 -0.3190  0.7555 -0.5586
29084SOL    HW292100   1.144   3.117   2.838  1.6290  0.0929 -0.2625
29085SOL     OW92101   9.102   4.112   2.170 -0.5422  0.0287 -0.0015
29085SOL    HW192102   9.120   4.022   2.143 -2.4254 -0.2273 -0.4699
29085SOL    HW292103   9.018   4.107   2.216  0.1433  1.2830  1.4360
29086SOL     OW92104   9.623   3.960   2.121 -0.1263 -0.1923  0.4273
29086SOL    HW192105   9.552   3.992   2.177  0.4450  0.1659  0.9483
29086SOL    HW292106   9.578   3.913   2.050 -0.9031  0.4725  0.4737
29087SOL     OW92107   9.963   5.226   3.848  0.6742 -0.7223  0.0653
29087SOL    HW192108   9.900   5.166   3.810 -0.6028  1.1392 -0.8348
29087SOL    HW292109   9.912   5.276   3.912  1.5292 -0.0647  0.2339
29088SOL     OW92110   0.840   5.610   4.303 -0.3871  0.2289 -0.4675
29088SOL    HW192111   0.826   5.591   4.395  0.6545 -3.2833 -0.9724
29088SOL    HW292112   0.758   5.652   4.275 -0.7692  1.1958  1.9680
29089SOL     OW92113   0.807   4.384   1.640  0.2837 -0.0293  0.8694
29089SOL    HW192114   0.791   4.477   1.623 -1.3620 -0.8463 -2.4769
29089SOL    HW292115   0.732   4.355   1.692 -0.3857  0.0054 -0.0744
29090SOL     OW92116   8.851   5.114   5.055 -0.2456 -0.6801  1.1177
29090SOL    HW192117   8.859   5.170   4.978  0.5827 -2.0891  0.1568
29090SOL    HW292118   8.901   5.159   5.123 -1.0469  0.6125  0.8602
29091SOL     OW92119   9.720   4.829   2.323  1.0160  0.1100 -0.9466
29091SOL    HW192120   9.778   4.890   2.368 -0.2972  0.2332  0.6047
29091SOL    HW292121   9.635   4.872   2.323  0.2311 -1.4009 -0.4677
29092SOL     OW92122   9.952   3.470   1.146 -0.0812  0.4073  0.5816
29092SOL    HW192123   9.946   3.479   1.241  0.8877 -1.0128  0.8092
29092SOL    HW292124  10.037   3.508   1.123  0.1346 -0.1597  0.4233
29093SOL     OW92125   9.359   4.849   3.424  0.1913 -0.1299 -0.1358
29093SOL    HW192126   9.442   4.830   3.467  1.8251  0.0169 -3.0608
29093SOL    HW292127   9.347   4.943   3.434  0.0950 -0.2438  0.8007
29094SOL     OW92128   0.647   4.981   3.929  0.1762  0.5349  0.7463
29094SOL    HW192129   0.629   5.028   3.848 -0.3829  0.5339  0.8638
29094SOL    HW292130   0.735   5.010   3.955  0.8351 -0.3381 -0.4496
29095SOL     OW92131   0.065   4.841   5.123 -0.4472 -0.4299  0.5073
29095SOL    HW192132   0.141   4.849   5.065 -0.9488 -0.7240 -0.2066
29095SOL    HW292133   0.095   4.782   5.193  0.8019  1.5213  1.6671
29096SOL     OW92134   8.649   3.572   2.037  0.1596 -0.6122  0.1348
29096SOL    HW192135   8.710   3.638   2.005 -2.4868  1.3852 -1.0273
29096SOL    HW292136   8.700   3.491   2.041  2.4392  0.6415 -2.3371
29097SOL     OW92137   9.375   5.340   5.234 -0.0117  0.2832 -0.2196
29097SOL    HW192138   9.354   5.422   5.190 -0.8600 -0.2786 -0.8896
29097SOL    HW292139   9.452   5.307   5.189  0.2767  0.6594 -0.0098
29098SOL     OW92140   9.168   2.551   5.932  0.1574 -0.3032  0.3340
29098SOL    HW192141   9.252   2.583   5.964  0.1349  1.9355 -1.7601
29098SOL    HW292142   9.190   2.493   5.860 -0.0929  0.9027 -0.7324
29099SOL     OW92143   0.825   4.974   4.861  0.1234 -0.1240 -0.0226
29099SOL    HW192144   0.735   4.983   4.893  0.4339  0.6685  0.6084
29099SOL    HW292145   0.870   5.052   4.891  0.3907  0.7140 -2.4876
29100SOL     OW92146   1.324   4.366   4.148  0.2473  0.0388  0.0706
29100SOL    HW192147   1.230   4.382   4.160  0.2381 -0.6080  0.9110
29100SOL    HW292148   1.354   4.334   4.233  0.5009 -3.1958 -1.1751
29101SOL     OW92149   9.524   5.628   4.927  0.0946 -0.0868  0.2740
29101SOL    HW192150   9.575   5.690   4.979 -1.5306  1.0165  0.5889
29101SOL    HW292151   9.495   5.679   4.851 -0.2488 -0.7972 -0.0744
29102SOL     OW92152   9.832   4.210   5.654  0.0605  0.1780 -0.0365
29102SOL    HW192153   9.851   4.240   5.565  0.1191  0.9623  0.2366
29102SOL    HW292154   9.751   4.159   5.645 -0.8157  1.5714 -0.3022
29103SOL     OW92155   0.014   3.987   3.938  0.3017 -0.0399  1.1437
29103SOL    HW192156   0.074   4.016   3.870 -2.0910  0.5390 -0.7678
29103SOL    HW292157   0.046   3.900   3.963  2.6220  0.7570  1.0373
29104SOL     OW92158   9.573   4.735   4.501 -0.2215  0.5016  0.4235
29104SOL    HW192159   9.576   4.784   4.419  1.5054 -1.3202 -0.6806
29104SOL    HW292160   9.494   4.682   4.495 -0.5077  0.9500  0.2690
29105SOL     OW92161   9.499   5.122   3.865  0.1261 -0.0440 -0.9642
29105SOL    HW192162   9.508   5.115   3.770  1.9554  1.2007 -0.8986
29105SOL    HW292163   9.490   5.215   3.882 -2.3956 -0.4097 -0.0681
29106SOL     OW92164   0.334   4.440   4.513  0.4816 -0.3023 -0.4177
29106SOL    HW192165   0.377   4.392   4.584 -0.5284 -1.8615 -0.8388
29106SOL    HW292166   0.260   4.483   4.556  1.0485  0.4226 -0.1516
29107SOL     OW92167   8.632   4.469   3.408  0.1008 -0.3199  0.1490
29107SOL    HW192168   8.548   4.453   3.451 -1.0303  1.8107 -1.1413
29107SOL    HW292169   8.697   4.426   3.464 -1.7231 -0.9745  1.8165
29108SOL     OW92170   0.017   3.529   5.964  0.3545 -0.4535 -0.8061
29108SOL    HW192171  -0.042   3.497   6.033  2.2418 -0.3717  0.8783
29108SOL    HW292172  -0.023   3.611   5.936 -0.4235 -0.4653  0.2060
29109SOL     OW92173   8.780   3.937   4.703  0.2543 -0.7844  0.0858
29109SOL    HW192174   8.830   3.893   4.772 -0.3635 -1.7540 -0.0634
29109SOL    HW292175   8.809   3.894   4.622  1.5898  0.9218 -0.3473
29110SOL     OW92176   9.878   4.481   4.358  0.0034  0.3769  0.1505
29110SOL    HW192177   9.817   4.421   4.401  1.1746 -0.6509  0.3839
29110SOL    HW292178   9.945   4.499   4.425 -0.0453  1.5296 -0.0907
29111SOL     OW92179   8.800   3.439   6.098 -0.3901  0.3159 -0.0730
29111SOL    HW192180   8.803   3.359   6.045  1.7244  0.0439  0.4151
29111SOL    HW292181   8.872   3.493   6.065 -0.2747  0.9757  1.2181
29112SOL     OW92182   9.452   6.575   6.044  0.5050  0.1016  1.0497
29112SOL    HW192183   9.452   6.597   5.951  0.4776 -2.7569  0.3534
29112SOL    HW292184   9.368   6.608   6.076 -1.0678 -2.0728 -0.7392
29113SOL     OW92185   0.566   5.641   4.337  0.0671 -0.2939  0.0394
29113SOL    HW192186   0.491   5.698   4.316  2.0434  2.4282  0.1491
29113SOL    HW292187   0.545   5.558   4.295 -2.5366  0.7501 -0.8474
29114SOL     OW92188   0.150   3.395   4.635  0.7294  0.2160  0.4927
29114SOL    HW192189   0.073   3.376   4.582  0.7684  0.8420  0.2024
29114SOL    HW292190   0.154   3.323   4.698  0.7950 -0.6312 -0.4705
29115SOL     OW92191   0.062   5.720   4.299 -0.2657  0.0685 -0.4694
29115SOL    HW192192   0.021   5.651   4.247 -1.0540  0.4043 -0.3018
29115SOL    HW292193   0.051   5.691   4.390  0.7067 -0.2961 -0.4575
29116SOL     OW92194   1.340   5.159   3.300 -0.0002 -0.1493  0.1394
29116SOL    HW192195   1.329   5.127   3.390  2.4102 -0.0617  0.4965
29116SOL    HW292196   1.261   5.130   3.255 -0.1642 -2.2691  1.7045
29117SOL     OW92197   8.968   4.271   6.137  0.3406  0.3842 -0.1082
29117SOL    HW192198   9.011   4.269   6.051 -1.7797 -0.5410 -1.1837
29117SOL    HW292199   9.013   4.205   6.189  0.6570 -0.1186 -1.0151
29118SOL     OW92200   9.434   5.347   4.859 -0.4363  0.2626  0.4511
29118SOL    HW192201   9.489   5.423   4.881 -1.0840  0.7708  0.3283
29118SOL    HW292202   9.497   5.277   4.843  0.1869  0.8271  0.3467
29119SOL     OW92203   0.697   3.988   4.544  0.2783  0.1688 -0.1843
29119SOL    HW192204   0.635   4.039   4.491  0.8901  1.6114  0.4851
29119SOL    HW292205   0.657   3.901   4.549 -1.2704  0.8385 -0.4992
29120SOL     OW92206   0.805   3.333   3.121 -0.0051 -0.0320  0.0613
29120SOL    HW192207   0.747   3.263   3.153  0.6625 -1.2202 -1.2841
29120SOL    HW292208   0.861   3.353   3.196 -1.4583  0.4175  1.0620
29121SOL     OW92209   1.013   5.998   4.459  0.2270 -0.3081  0.5440
29121SOL    HW192210   0.997   6.027   4.369  0.9501 -0.6900  0.2897
29121SOL    HW292211   0.995   5.904   4.459  1.1676 -0.4957  0.5627
29122SOL     OW92212   7.115   2.693   4.938 -0.4063 -0.1356  0.3052
29122SOL    HW192213   7.049   2.658   4.878  0.1573 -0.5153 -0.1013
29122SOL    HW292214   7.116   2.787   4.920  0.9938 -0.4780 -1.5334
29123SOL     OW92215   0.455   4.647   3.921  0.1537 -0.5235  0.5281
29123SOL    HW192216   0.445   4.717   3.857  1.3834  0.0731  0.9842
29123SOL    HW292217   0.366   4.614   3.933 -0.1262 -0.4723 -1.2729
29124SOL     OW92218   2.219   3.463   4.190  0.6443  0.0090  0.6689
29124SOL    HW192219   2.193   3.486   4.280 -1.0518 -0.7239  0.3797
29124SOL    HW292220   2.139   3.473   4.139  1.8781  1.6305 -1.0175
29125SOL     OW92221   8.544   6.274   4.145  0.6274  0.1734  0.2092
29125SOL    HW192222   8.515   6.207   4.083 -1.6268  0.2757  1.1045
29125SOL    HW292223   8.608   6.326   4.095  0.0695 -0.7304 -1.4939
29126SOL     OW92224   9.639   5.331   5.825 -0.3454 -0.1567  0.1497
29126SOL    HW192225   9.678   5.408   5.867  0.4492 -0.5414  0.1162
29126SOL    HW292226   9.711   5.290   5.778 -1.6755  1.6546 -3.7250
29127SOL     OW92227   0.281   3.545   3.549  0.1317 -0.2441 -0.0266
29127SOL    HW192228   0.248   3.519   3.635  2.1738 -1.1782  0.5068
29127SOL    HW292229   0.226   3.499   3.486  0.3054 -1.6377  0.8331
29128SOL     OW92230   9.368   5.189   3.187  0.0995  0.2487  0.0102
29128SOL    HW192231   9.432   5.120   3.202  0.0020 -0.5264 -2.8102
29128SOL    HW292232   9.411   5.250   3.127 -0.7248  1.3125  0.4733
29129SOL     OW92233   8.936   4.907   4.523  0.2063 -0.2323  0.1736
29129SOL    HW192234   8.997   4.965   4.477 -1.1743  0.9054 -0.2671
29129SOL    HW292235   8.992   4.847   4.572  1.6822  1.2438  0.3423
29130SOL     OW92236   9.664   4.928   4.668 -0.2434 -0.5221 -0.0570
29130SOL    HW192237   9.672   4.859   4.734 -2.4883 -1.5106 -0.7437
29130SOL    HW292238   9.612   4.888   4.598 -0.7431  1.5515 -0.9177
29131SOL     OW92239   9.846   4.535   4.796 -0.0041 -0.2202 -0.3390
29131SOL    HW192240   9.832   4.499   4.883 -2.5807 -0.8288 -0.9725
29131SOL    HW292241   9.851   4.459   4.738  1.3990  0.1889 -0.7873
29132SOL     OW92242   9.600   3.834   5.479 -0.1262  0.0866 -1.1670
29132SOL    HW192243   9.673   3.861   5.535 -0.0214 -0.0519 -1.2349
29132SOL    HW292244   9.640   3.821   5.393 -0.3092  0.4295 -1.3061
29133SOL     OW92245   9.539   5.379   7.112  0.2197  0.8946 -0.1842
29133SOL    HW192246   9.561   5.302   7.165 -1.4469 -1.1672 -2.3730
29133SOL    HW292247   9.500   5.441   7.174  0.7534 -0.3843  1.4568
29134SOL     OW92248   0.868   3.633   3.550  0.5592 -0.0323  0.2516
29134SOL    HW192249   0.897   3.565   3.610 -0.3186 -3.0098 -2.5937
29134SOL    HW292250   0.783   3.661   3.584  0.7406 -0.6308  1.2165
29135SOL     OW92251   9.733   3.540   4.912  0.0281 -0.2769  0.5823
29135SOL    HW192252   9.638   3.531   4.925  0.1664 -1.1148  1.1090
29135SOL    HW292253   9.742   3.607   4.845 -0.8730  1.2078  1.9057
29136SOL     OW92254   0.202   4.865   5.426  0.5105  0.7709  0.3205
29136SOL    HW192255   0.259   4.913   5.366 -0.1975  1.3704  0.1287
29136SOL    HW292256   0.158   4.800   5.370 -1.4031  2.4223 -0.1409
29137SOL     OW92257   8.467   6.453   4.380  0.3757 -0.1165  0.0235
29137SOL    HW192258   8.557   6.458   4.346 -0.4739 -0.1795 -2.3456
29137SOL    HW292259   8.452   6.539   4.418  0.9100  0.4440 -0.9993
29138SOL     OW92260   8.909   2.933   4.502  0.1787  0.1730 -0.1293
29138SOL    HW192261   8.979   2.875   4.470  0.3355 -0.1102  0.7102
29138SOL    HW292262   8.835   2.915   4.445  0.2715 -0.7654  0.0327
29139SOL     OW92263   9.157   6.139   8.127 -0.3821  0.3014  0.7711
29139SOL    HW192264   9.094   6.168   8.194 -0.4151 -0.4478  1.0697
29139SOL    HW292265   9.155   6.209   8.061  0.5803  1.6564  2.1435
29140SOL     OW92266   8.237   4.407   6.122 -0.0546  0.9973 -0.0397
29140SOL    HW192267   8.228   4.428   6.215 -3.2340 -1.0339  0.1964
29140SOL    HW292268   8.253   4.312   6.120  1.5960  1.2870 -1.5029
29141SOL     OW92269   8.825   3.969   4.439 -0.4191  0.0878 -0.3623
29141SOL    HW192270   8.784   4.055   4.447  0.2475  0.4430 -0.7583
29141SOL    HW292271   8.806   3.943   4.349  0.1876  0.2317 -0.5308
29142SOL     OW92272   0.058   3.490   3.750 -0.0949  0.8192 -0.0751
29142SOL    HW192273   0.012   3.537   3.680 -0.0111  0.9664 -0.0320
29142SOL    HW292274   0.007   3.410   3.762 -0.0804  0.7706 -0.3388
29143SOL     OW92275   8.581   6.888   3.075  0.6368  0.2939  0.4533
29143SOL    HW192276   8.622   6.802   3.068 -1.0066 -0.4817  0.2684
29143SOL    HW292277   8.494   6.877   3.038 -0.0848  1.6969  1.6652
29144SOL     OW92278   9.145   5.892   4.636 -0.1637 -0.5615 -0.4381
29144SOL    HW192279   9.116   5.805   4.610 -0.7947 -0.7745  0.9076
29144SOL    HW292280   9.091   5.952   4.584 -1.3620 -0.9744  0.2886
29145SOL     OW92281   8.903   3.800   3.359  0.3962 -0.1592 -0.0634
29145SOL    HW192282   8.984   3.801   3.308  1.2920  2.4554  1.3493
29145SOL    HW292283   8.922   3.742   3.433  0.8396  0.0845  0.0183
29146SOL     OW92284   9.684   5.186   4.765 -0.6288 -0.1773 -0.5870
29146SOL    HW192285   9.735   5.156   4.840  0.2764  1.5961 -0.4700
29146SOL    HW292286   9.692   5.115   4.701  0.9955 -0.4522 -0.1113
29147SOL     OW92287   0.531   5.128   6.640 -0.3319  0.1597  0.1289
29147SOL    HW192288   0.586   5.121   6.718  0.3690 -2.2289 -0.5495
29147SOL    HW292289   0.590   5.106   6.568 -1.7190 -0.5344 -0.7948
29148SOL     OW92290   0.294   5.211   4.897  0.1245 -0.1559 -0.4167
29148SOL    HW192291   0.214   5.259   4.917 -0.6935 -1.4505 -0.5204
29148SOL    HW292292   0.302   5.217   4.802  0.0322 -0.1952 -0.4271
29149SOL     OW92293   9.210   4.464   4.091 -0.8613  0.2000  0.0544
29149SOL    HW192294   9.280   4.463   4.026  0.2243 -0.4939  1.1870
29149SOL    HW292295   9.162   4.545   4.075  1.3639  1.6490  0.4324
29150SOL     OW92296   9.466   4.656   5.096  0.2375 -0.0031 -0.1509
29150SOL    HW192297   9.479   4.656   5.001  0.7341  2.0197 -0.1062
29150SOL    HW292298   9.481   4.747   5.122 -4.1225  0.3817  1.3171
29151SOL     OW92299   9.243   6.334   3.579 -0.7254 -0.4700 -0.5161
29151SOL    HW192300   9.267   6.416   3.622 -2.6650  0.5029 -1.2122
29151SOL    HW292301   9.324   6.303   3.539  0.1991  0.7271  0.3875
29152SOL     OW92302   8.214   4.749   6.838 -0.4668  0.2710 -0.5824
29152SOL    HW192303   8.277   4.820   6.825  0.4975 -0.6019 -0.6878
29152SOL    HW292304   8.129   4.789   6.817 -0.0712  1.7063  0.4918
29153SOL     OW92305   1.308   5.417   3.170  0.1146 -0.3617 -0.2592
29153SOL    HW192306   1.232   5.441   3.221  0.8765  1.6045  0.0173
29153SOL    HW292307   1.317   5.322   3.182 -1.5243 -0.4131  0.7016
29154SOL     OW92308   9.221   4.609   2.961 -0.0223 -0.3954 -0.2838
29154SOL    HW192309   9.184   4.521   2.963  1.3367 -1.0170 -1.6997
29154SOL    HW292310   9.246   4.626   3.052  1.1308 -2.0862 -0.2762
29155SOL     OW92311   9.424   5.354   2.135 -0.0237 -0.1285 -0.4248
29155SOL    HW192312   9.382   5.435   2.105 -0.3560 -0.5889 -1.2109
29155SOL    HW292313   9.518   5.373   2.131 -0.0516 -0.3713 -2.2861
29156SOL     OW92314   9.390   5.853   4.780 -0.2701 -0.4058  0.0341
29156SOL    HW192315   9.312   5.877   4.730 -0.4846 -0.2545  0.4397
29156SOL    HW292316   9.463   5.890   4.730 -0.5252  0.2147  0.1180
29157SOL     OW92317   8.987   5.201   6.496 -0.2378 -0.0463  0.2355
29157SOL    HW192318   9.070   5.246   6.482 -0.8460  1.0651  0.1676
29157SOL    HW292319   9.007   5.108   6.480  0.4763  0.4677 -2.0915
29158SOL     OW92320   0.190   2.599   4.701  0.2163  0.0356  0.5211
29158SOL    HW192321   0.106   2.635   4.675  0.2881 -0.2540 -0.1356
29158SOL    HW292322   0.176   2.504   4.702 -0.0260  0.0783  2.4238
29159SOL     OW92323   9.803   4.899   5.102 -0.3164 -0.2676  0.4202
29159SOL    HW192324   9.894   4.879   5.121 -0.1404  0.3568  0.2297
29159SOL    HW292325   9.798   4.994   5.102 -0.8363 -0.2869 -0.1578
29160SOL     OW92326   1.317   3.734   4.202  0.4697  0.2545  0.8418
29160SOL    HW192327   1.241   3.713   4.256  1.0575  0.1455  1.6250
29160SOL    HW292328   1.283   3.796   4.137 -0.5864 -0.8037  0.3670
29161SOL     OW92329   9.187   4.520   5.067 -0.8090 -0.0113  0.4051
29161SOL    HW192330   9.263   4.490   5.017 -1.5682 -1.8498  0.3036
29161SOL    HW292331   9.213   4.512   5.158 -0.4597  0.4889  0.3471
29162SOL     OW92332   9.777   5.538   5.988 -0.6917 -0.8822 -0.7612
29162SOL    HW192333   9.826   5.567   5.911 -2.2230 -0.9755 -1.7826
29162SOL    HW292334   9.755   5.620   6.034  1.0617 -0.8868  0.1116
29163SOL     OW92335   8.987   5.169   5.944 -0.0823 -0.5863 -0.0875
29163SOL    HW192336   9.073   5.148   5.907 -0.3825 -0.3248 -0.9472
29163SOL    HW292337   8.938   5.087   5.940  0.5246 -1.0321  1.5215
29164SOL     OW92338   9.814   4.961   5.691 -0.1466  0.0121 -0.8921
29164SOL    HW192339   9.821   4.904   5.614 -1.6480 -1.6921  0.1984
29164SOL    HW292340   9.878   4.924   5.752  0.2452  0.6860 -0.8943
29165SOL     OW92341   0.702   4.596   3.545 -0.3313  0.3077  0.4580
29165SOL    HW192342   0.654   4.541   3.483  0.0765 -0.3623  0.7257
29165SOL    HW292343   0.775   4.631   3.494 -1.2055  1.4763  0.0011
29166SOL     OW92344   0.480   4.095   5.195 -0.5195  0.0539 -0.1941
29166SOL    HW192345   0.429   4.151   5.253  1.9073  0.8503  1.2656
29166SOL    HW292346   0.525   4.155   5.136  1.6194 -0.3227  0.9827
29167SOL     OW92347   0.489   6.366   4.680  0.3518  0.5716 -0.3427
29167SOL    HW192348   0.542   6.426   4.627  0.9882 -0.1782 -0.5718
29167SOL    HW292349   0.507   6.279   4.643  0.4532  0.0889  0.8078
29168SOL     OW92350   9.983   4.919   5.898  0.0354 -0.4186 -0.0344
29168SOL    HW192351  10.052   4.897   5.837 -1.7482 -2.5232 -1.3651
29168SOL    HW292352   9.968   4.838   5.948  0.5357  0.8643  2.2565
29169SOL     OW92353   9.429   4.350   6.676  0.2729 -0.2570  0.1151
29169SOL    HW192354   9.441   4.438   6.640  0.3808  0.5832  2.1096
29169SOL    HW292355   9.495   4.296   6.632  1.5076  1.0948  0.2833
29170SOL     OW92356   8.590   5.104   6.592 -0.2505  0.3014  0.4538
29170SOL    HW192357   8.542   5.118   6.510 -1.4830 -3.3763  0.4517
29170SOL    HW292358   8.557   5.172   6.651 -2.7362  0.1594 -0.7106
29171SOL     OW92359   0.274   4.822   7.292  0.5184  0.0139  0.4716
29171SOL    HW192360   0.312   4.844   7.377 -3.2737 -0.0953  2.2934
29171SOL    HW292361   0.255   4.907   7.253  0.9017  0.0517  0.3630
29172SOL     OW92362   0.149   4.450   7.754 -0.0450  0.1297  0.9621
29172SOL    HW192363   0.137   4.371   7.702  2.1067 -0.6046  1.5340
29172SOL    HW292364   0.083   4.445   7.822 -0.3716 -0.8218  0.5779
29173SOL     OW92365   8.971   5.990   6.373  0.2945 -0.4415 -0.0003
29173SOL    HW192366   9.037   6.048   6.410 -0.2190  0.0968  0.0837
29173SOL    HW292367   8.888   6.024   6.407  0.0816 -1.8988  0.9642
29174SOL     OW92368   8.721   6.946   7.813 -0.0436  0.5454  0.0067
29174SOL    HW192369   8.665   6.968   7.888 -1.5253  1.3535 -1.2936
29174SOL    HW292370   8.661   6.906   7.749  1.3213 -0.7612 -0.4857
29175SOL     OW92371   0.352   4.466   6.981 -0.3233 -0.6166 -0.4399
29175SOL    HW192372   0.314   4.400   6.923 -1.5663  0.7440 -1.1936
29175SOL    HW292373   0.425   4.503   6.931  0.3889 -1.3988 -0.0087
29176SOL     OW92374   8.694   3.427   5.746  0.7928  0.1688  0.3097
29176SOL    HW192375   8.705   3.508   5.797  1.5562  0.8311 -0.8816
29176SOL    HW292376   8.599   3.416   5.740  0.6836  0.7624  0.8182
29177SOL     OW92377   9.828   6.204   4.145  0.6012  0.2692  0.6001
29177SOL    HW192378   9.868   6.128   4.187 -1.0162 -0.8948  0.0962
29177SOL    HW292379   9.748   6.219   4.195  0.1493  0.6824 -0.2339
29178SOL     OW92380   8.684   6.459   8.400  0.5373  0.3751  0.5521
29178SOL    HW192381   8.709   6.471   8.308 -1.4204  1.5199  0.1523
29178SOL    HW292382   8.716   6.538   8.444 -1.1488  1.2125  0.2912
29179SOL     OW92383   9.054   4.236   8.378  0.4647  0.1288 -0.1402
29179SOL    HW192384   9.066   4.318   8.426 -0.4163  0.1356  0.0613
29179SOL    HW292385   9.050   4.263   8.286 -1.4473  0.4856  0.0329
29180SOL     OW92386   0.292   2.994   6.423 -0.3175 -0.5511  0.5011
29180SOL    HW192387   0.292   3.052   6.347 -0.1739 -1.8598 -0.5260
29180SOL    HW292388   0.267   3.050   6.497 -2.3656  0.3408 -0.8169
29181SOL     OW92389   9.375   3.236   6.795 -0.4188  0.8094  0.0708
29181SOL    HW192390   9.431   3.311   6.772  1.0845  0.2711  1.7928
29181SOL    HW292391   9.436   3.163   6.803 -2.1088 -1.0644 -3.4071
29182SOL     OW92392   8.871   2.632   6.544 -0.6084 -0.1490 -0.6471
29182SOL    HW192393   8.855   2.651   6.451 -1.3528 -1.5065 -0.8150
29182SOL    HW292394   8.921   2.707   6.576 -1.7696  1.1226 -1.7417
29183SOL     OW92395   9.203   5.761   7.393  0.7049 -0.3008  0.3299
29183SOL    HW192396   9.163   5.685   7.435  0.9029  0.7692  2.5643
29183SOL    HW292397   9.297   5.752   7.412  1.0808 -0.8783 -1.7055
29184SOL     OW92398   1.067   2.159   5.455 -0.0687  0.1302 -0.5480
29184SOL    HW192399   0.974   2.176   5.470 -0.8439 -1.6102 -2.9395
29184SOL    HW292400   1.104   2.245   5.435 -1.2115  0.8065  0.1674
29185SOL     OW92401   9.869   6.113   6.480  0.0705 -0.1741 -0.3587
29185SOL    HW192402   9.942   6.101   6.541 -0.1905 -1.5076 -0.2846
29185SOL    HW292403   9.808   6.170   6.527  1.0923  1.0080 -0.4529
29186SOL     OW92404   8.807   3.628   6.491  0.7443 -0.1315 -0.5952
29186SOL    HW192405   8.830   3.660   6.578 -1.6831  0.5856 -0.1668
29186SOL    HW292406   8.887   3.638   6.439  1.2530  2.6936  0.6552
29187SOL     OW92407   8.935   4.287   6.925  0.2474  0.3051 -0.2623
29187SOL    HW192408   8.886   4.267   7.005  0.7210  1.8713  0.4329
29187SOL    HW292409   8.978   4.370   6.944  1.9246 -0.2851 -1.4517
29188SOL     OW92410   9.521   4.855   7.438 -0.3324  0.1996  0.4507
29188SOL    HW192411   9.602   4.849   7.387  0.1448 -0.5640  1.2935
29188SOL    HW292412   9.533   4.794   7.510 -2.6673 -1.8561 -0.8139
29189SOL     OW92413   9.683   3.694   5.825  0.5968 -0.2202  0.3760
29189SOL    HW192414   9.742   3.625   5.796  0.7148 -0.3798  0.9918
29189SOL    HW292415   9.710   3.771   5.774  0.5254 -0.5962 -0.2404
29190SOL     OW92416   9.107   4.838   8.050  0.5217 -1.3802 -0.2003
29190SOL    HW192417   9.158   4.915   8.026 -0.3097 -0.9837 -0.7192
29190SOL    HW292418   9.115   4.833   8.145 -1.4325  0.8078  0.1354
29191SOL     OW92419   9.140   4.795   6.735  0.3753 -0.9507 -0.0949
29191SOL    HW192420   9.165   4.706   6.712  2.1120 -0.3088 -0.7016
29191SOL    HW292421   9.065   4.784   6.795 -0.3006 -2.7580 -1.2366
29192SOL     OW92422   1.098   3.576   5.146  0.0147  0.4692 -0.0422
29192SOL    HW192423   1.106   3.551   5.054 -0.6465 -0.7214  0.2206
29192SOL    HW292424   1.004   3.590   5.159  0.1339  0.9039  0.3960
29193SOL     OW92425   0.454   4.293   6.715  0.2504 -0.5933 -0.4489
29193SOL    HW192426   0.439   4.386   6.732  0.0538 -0.8645  0.9156
29193SOL    HW292427   0.485   4.290   6.624 -0.9613  0.6688 -0.9129
29194SOL     OW92428   9.485   3.494   6.781 -0.4109  0.6002  0.0457
29194SOL    HW192429   9.578   3.483   6.801 -0.5762 -1.2410 -0.1988
29194SOL    HW292430   9.466   3.584   6.808  0.8081  0.1428  2.5937
29195SOL     OW92431   0.312   5.544   6.495 -0.7700 -0.1504  0.1295
29195SOL    HW192432   0.293   5.495   6.415 -2.6345 -0.0496  0.4827
29195SOL    HW292433   0.372   5.613   6.468 -0.5770 -0.7502 -0.9812
29196SOL     OW92434   0.674   3.096   5.250  0.0670  0.5499 -0.8544
29196SOL    HW192435   0.616   3.132   5.184 -0.1222 -1.3639 -1.7732
29196SOL    HW292436   0.630   3.017   5.281 -0.5437  2.1304  2.6287
29197SOL     OW92437   9.247   4.008   5.592 -0.2042 -0.1438  0.3369
29197SOL    HW192438   9.250   4.016   5.687 -1.1741  0.8180  0.3026
29197SOL    HW292439   9.158   4.037   5.569 -0.3227 -1.3439 -0.7705
29198SOL     OW92440   7.902   2.270   7.356 -0.1022  0.1182 -0.4502
29198SOL    HW192441   7.989   2.230   7.367 -0.5605 -1.8942 -3.5718
29198SOL    HW292442   7.920   2.356   7.319  0.6123  0.3197  0.3381
29199SOL     OW92443   9.812   2.943   7.591 -0.4633 -0.1452 -0.1803
29199SOL    HW192444   9.824   2.982   7.504 -0.8443  2.7328  1.0082
29199SOL    HW292445   9.724   2.906   7.589 -0.9890  1.1052 -0.6003
29200SOL     OW92446   9.122   5.690   6.021  0.2021 -0.2590  0.3645
29200SOL    HW192447   9.069   5.760   5.983  0.5091 -0.7868 -1.0651
29200SOL    HW292448   9.187   5.670   5.953  0.1208 -1.9176  0.7647
29201SOL     OW92449   9.342   3.547   6.260  0.0951 -0.0927  0.3505
29201SOL    HW192450   9.386   3.509   6.184  1.1899  2.9719 -0.5802
29201SOL    HW292451   9.249   3.547   6.236  0.1627 -1.3581  0.0356
29202SOL     OW92452   9.397   5.256   7.402 -0.2779 -0.0703 -0.5311
29202SOL    HW192453   9.303   5.238   7.399 -0.4871  0.7527  0.7983
29202SOL    HW292454   9.403   5.350   7.383  0.2477 -0.0507 -0.2625
29203SOL     OW92455   9.167   4.279   6.502  0.0939  0.2449  0.8683
29203SOL    HW192456   9.223   4.259   6.428  2.1862  0.7356  2.2850
29203SOL    HW292457   9.114   4.354   6.474 -0.4142 -0.6940 -0.7330
29204SOL     OW92458   0.252   3.976   6.188 -0.0992  0.3501 -0.0215
29204SOL    HW192459   0.239   4.017   6.273 -0.3858 -0.2085  0.2028
29204SOL    HW292460   0.341   3.939   6.192 -0.4631 -0.4895  0.3745
29205SOL     OW92461   9.010   5.092   7.027 -0.6025  0.2891 -0.3373
29205SOL    HW192462   9.090   5.142   7.046 -0.1646 -0.5015 -0.0930
29205SOL    HW292463   8.987   5.118   6.938  0.9206 -0.7957 -1.0827
29206SOL     OW92464   9.994   3.744   7.325  0.1333 -0.5446 -0.3716
29206SOL    HW192465   9.911   3.741   7.373  0.5333 -0.2828  0.3414
29206SOL    HW292466   9.987   3.823   7.271  0.1038 -0.2612  0.0382
29207SOL     OW92467   9.941   3.826   6.122  0.3469 -0.0604  0.2854
29207SOL    HW192468   9.859   3.855   6.082 -1.6544 -2.0615  2.8236
29207SOL    HW292469   9.962   3.894   6.186  1.7813  1.4326 -1.6784
29208SOL     OW92470   9.023   6.267   6.424 -0.2293  0.7260  0.3575
29208SOL    HW192471   9.038   6.336   6.359  1.0986 -0.9349 -1.1512
29208SOL    HW292472   9.100   6.269   6.480 -0.9692  1.5649  1.3642
29209SOL     OW92473   0.005   4.989   7.082 -0.1243  0.3544  0.3614
29209SOL    HW192474  -0.088   5.004   7.101  0.1055  1.0335  0.9888
29209SOL    HW292475   0.039   5.075   7.056  0.2172  0.0044 -0.3508
29210SOL     OW92476   8.975   3.795   8.931 -0.1189  0.1646 -0.2306
29210SOL    HW192477   9.062   3.819   8.901 -0.0394 -0.3512 -0.4095
29210SOL    HW292478   8.946   3.726   8.871  0.0738 -0.9321  0.9108
29211SOL     OW92479   8.672   4.448   6.928 -0.3944 -0.5180  0.5662
29211SOL    HW192480   8.688   4.531   6.974 -1.1026 -0.2160  0.2763
29211SOL    HW292481   8.705   4.381   6.988 -0.0617 -0.0432  0.9188
29212SOL     OW92482   9.217   5.242   7.057  0.2196  0.8947 -0.3022
29212SOL    HW192483   9.309   5.255   7.033  1.1056 -1.9742  1.2577
29212SOL    HW292484   9.199   5.310   7.121  0.9990  1.9990 -1.2333
29213SOL     OW92485   0.136   4.406   5.042  0.0414  0.1927  0.1450
29213SOL    HW192486   0.177   4.485   5.010 -0.0320  1.0649  2.0992
29213SOL    HW292487   0.059   4.437   5.090 -0.4104 -1.1117  0.2940
29214SOL     OW92488   0.824   5.278   5.518 -0.0466  0.0548 -0.0408
29214SOL    HW192489   0.884   5.348   5.545  0.3182 -0.2261 -0.1249
29214SOL    HW292490   0.747   5.324   5.486  0.1079  0.4167  0.1031
29215SOL     OW92491   9.502   4.515   7.127 -0.2432  0.2650  0.3429
29215SOL    HW192492   9.538   4.583   7.069 -0.3023  1.5166  1.7460
29215SOL    HW292493   9.577   4.488   7.180 -0.6316  0.5496  1.0406
29216SOL     OW92494   8.360   3.126   8.001  0.3102 -0.0092 -0.3986
29216SOL    HW192495   8.367   3.127   8.096  0.8807 -1.6049 -0.4206
29216SOL    HW292496   8.448   3.147   7.970  0.3064 -0.2495 -0.5759
29217SOL     OW92497   0.522   6.409   7.542 -0.1318 -0.1343  0.2260
29217SOL    HW192498   0.576   6.405   7.463 -0.4595  0.3698 -0.0250
29217SOL    HW292499   0.568   6.354   7.606  0.1833 -0.4641 -0.2841
29218SOL     OW92500   8.461   5.210   5.774 -0.0615 -1.0632  0.5469
29218SOL    HW192501   8.410   5.244   5.700  1.8532  0.6902 -0.0256
29218SOL    HW292502   8.440   5.269   5.846 -1.1620 -2.1779  1.1543
29219SOL     OW92503   1.219   4.987   5.937 -0.1534  0.8718 -0.3409
29219SOL    HW192504   1.204   4.948   6.023  1.7421 -1.1999 -0.9309
29219SOL    HW292505   1.153   4.947   5.880 -0.0726  0.6892 -0.3056
29220SOL     OW92506   1.440   3.728   7.427  0.0534 -0.2168 -0.4849
29220SOL    HW192507   1.409   3.657   7.371  1.1323  2.8980 -5.3119
29220SOL    HW292508   1.535   3.722   7.423  0.1420  0.6582  0.2632
29221SOL     OW92509   8.880   3.899   6.070 -0.8863  0.1286  0.1693
29221SOL    HW192510   8.822   3.956   6.021 -0.0065 -0.1494 -1.2356
29221SOL    HW292511   8.926   3.957   6.131 -1.1452  0.6625 -0.1446
29222SOL     OW92512   8.638   5.820   6.684  0.0173  0.1470 -0.4370
29222SOL    HW192513   8.647   5.792   6.593 -0.3505 -1.0058 -0.1290
29222SOL    HW292514   8.626   5.915   6.680  0.7125  0.1911 -1.5428
29223SOL     OW92515   9.469   4.592   6.556  0.7255  0.0381  0.0942
29223SOL    HW192516   9.487   4.681   6.587 -1.1983  0.8692 -1.0586
29223SOL    HW292517   9.503   4.590   6.467 -0.3112  0.0335 -0.3137
29224SOL     OW92518   0.231   5.080   7.248 -1.0204 -0.3344  0.2428
29224SOL    HW192519   0.188   5.162   7.272  1.2419  0.3454  2.1809
29224SOL    HW292520   0.325   5.101   7.250 -0.4400 -2.7958  0.1571
29225SOL     OW92521   0.821   3.455   7.061 -0.1396  0.0220  0.0940
29225SOL    HW192522   0.765   3.454   6.984  0.5411  1.5642 -0.4402
29225SOL    HW292523   0.910   3.456   7.026  0.1797  0.4557  0.8914
29226SOL     OW92524   9.650   2.898   6.011  0.4634 -0.0613  0.9116
29226SOL    HW192525   9.613   2.827   6.063 -0.9976  0.1783  0.2158
29226SOL    HW292526   9.678   2.855   5.929 -0.3238  0.1426  0.5341
29227SOL     OW92527   0.901   3.802   5.654 -0.5642  0.3191 -0.0409
29227SOL    HW192528   0.824   3.748   5.673 -0.4190 -1.0112 -3.0028
29227SOL    HW292529   0.898   3.816   5.559  2.6184  0.5753 -0.1662
29228SOL     OW92530   9.252   4.836   7.357  0.3386 -0.1486  0.3082
29228SOL    HW192531   9.230   4.924   7.387 -0.5419 -0.5522  0.8667
29228SOL    HW292532   9.340   4.820   7.391  0.5053  0.5142  0.1923
29229SOL     OW92533   8.745   3.048   5.720  0.1556  0.5444  0.0639
29229SOL    HW192534   8.782   2.974   5.673 -0.7829  1.2762 -1.8803
29229SOL    HW292535   8.652   3.026   5.730 -0.2890  1.7542 -1.1885
29230SOL     OW92536   9.803   5.923   6.292 -0.1858  1.0827  0.3105
29230SOL    HW192537   9.833   6.007   6.326  0.7351  1.5572 -1.5788
29230SOL    HW292538   9.855   5.858   6.339 -1.8298  1.4581  2.7375
29231SOL     OW92539   8.419   4.773   7.588  0.0398  0.6052  0.0225
29231SOL    HW192540   8.421   4.823   7.506 -0.5827 -0.7295 -0.8312
29231SOL    HW292541   8.501   4.724   7.588  0.2918  1.0252  0.4756
29232SOL     OW92542   9.956   6.449   6.170 -0.3380  0.0699  0.3531
29232SOL    HW192543   9.956   6.451   6.265 -1.4731 -0.1649  0.3619
29232SOL    HW292544   9.864   6.443   6.146  0.0320 -1.7296 -0.7115
29233SOL     OW92545   9.052   4.026   7.583  0.0568 -0.1292  0.0260
29233SOL    HW192546   9.002   4.001   7.505  0.2379 -4.7977  1.2727
29233SOL    HW292547   9.144   4.023   7.554  0.0313 -0.2122 -0.0499
29234SOL     OW92548   9.987   4.260   6.539  0.0037 -0.2284  0.1807
29234SOL    HW192549  10.019   4.321   6.605  0.2866  0.4656 -0.5935
29234SOL    HW292550   9.936   4.314   6.479  0.7338 -0.6505 -0.8384
29235SOL     OW92551   9.204   3.153   8.495 -0.2957 -0.2872 -0.3121
29235SOL    HW192552   9.172   3.177   8.582 -1.0258 -0.9691 -0.3858
29235SOL    HW292553   9.298   3.169   8.498 -0.2243 -0.8797  0.8023
29236SOL     OW92554   9.236   5.064   7.981  0.2566 -0.1183 -0.3195
29236SOL    HW192555   9.178   5.098   7.912  0.3162 -0.1747 -0.3989
29236SOL    HW292556   9.324   5.072   7.944  0.7034  3.8404  1.3976
29237SOL     OW92557   8.408   2.245   8.336 -0.3948 -0.3630 -0.2551
29237SOL    HW192558   8.450   2.195   8.405 -1.0201  1.7826  1.7588
29237SOL    HW292559   8.363   2.316   8.382 -1.8092  0.4458 -2.7753
29238SOL     OW92560   9.859   4.450   0.489 -0.2378  0.1359 -0.2419
29238SOL    HW192561   9.876   4.399   0.568 -0.7549 -1.0914 -0.8998
29238SOL    HW292562   9.890   4.538   0.510  0.2528 -0.3346  1.0816
29239SOL     OW92563   9.554   4.505   2.242 -0.3510 -0.0975  0.3762
29239SOL    HW192564   9.458   4.509   2.247 -0.3966 -1.9851  1.2913
29239SOL    HW292565   9.572   4.437   2.177  0.3912  0.1255  0.3409
29240SOL     OW92566   9.243   4.729   7.108  0.0491 -0.2942  0.2387
29240SOL    HW192567   9.313   4.771   7.057  0.1888  0.3351  0.9374
29240SOL    HW292568   9.252   4.767   7.196 -1.1731 -0.2177  0.3304
29241SOL     OW92569   9.764   3.878   9.391 -0.1013 -0.3823  0.6128
29241SOL    HW192570   9.728   3.792   9.369  2.8651 -1.9364  1.5541
29241SOL    HW292571   9.806   3.866   9.476 -0.8983  2.4170  1.4742
29242SOL     OW92572   9.532   3.930   8.791 -0.4858 -0.2013 -0.4607
29242SOL    HW192573   9.591   3.915   8.865  3.3355 -0.0637 -3.2743
29242SOL    HW292574   9.502   3.843   8.765  0.4287 -0.5217 -0.4640
29243SOL     OW92575   0.202   2.759   6.264  0.6342  0.4308 -0.3900
29243SOL    HW192576   0.136   2.799   6.207  0.4860 -2.3607 -2.2945
29243SOL    HW292577   0.286   2.783   6.224  0.5718 -0.4247 -1.0517
29244SOL     OW92578   9.361   4.852   7.725 -0.4441 -0.5156  0.3670
29244SOL    HW192579   9.391   4.925   7.779  0.8272 -0.0989 -0.8482
29244SOL    HW292580   9.373   4.774   7.780  1.0960 -0.1354  0.6032
29245SOL     OW92581   7.866   4.157   9.559  0.6567 -0.2060  0.3694
29245SOL    HW192582   7.892   4.233   9.507  0.3066  1.4996  2.5896
29245SOL    HW292583   7.941   4.139   9.616 -0.0738 -0.1056  1.3897
29246SOL     OW92584   9.577   5.793   9.493 -0.0184  0.3397 -0.1958
29246SOL    HW192585   9.546   5.883   9.482 -0.0855  0.4364  0.6952
29246SOL    HW292586   9.497   5.741   9.503  0.0650  0.4722  1.2853
29247SOL     OW92587   0.434   3.874   0.227 -0.0916  0.3181 -0.8277
29247SOL    HW192588   0.492   3.947   0.248 -0.1230  0.0052  0.4295
29247SOL    HW292589   0.491   3.797   0.224 -0.7946 -0.5539  3.7474
29248SOL     OW92590   1.899   4.142   6.727  0.0847 -0.5908  0.4969
29248SOL    HW192591   1.887   4.113   6.636 -0.4597  0.9086  0.0714
29248SOL    HW292592   1.986   4.111   6.751  1.1785  0.9927 -1.3131
29249SOL     OW92593   9.936   4.730   7.363 -0.2256 -0.2322 -0.4152
29249SOL    HW192594   9.986   4.784   7.303  0.3042 -1.2372 -0.8981
29249SOL    HW292595   9.886   4.671   7.306 -0.7600 -0.2826  0.0956
29250SOL     OW92596   0.928   6.703   8.419  0.3791 -0.0757  0.0606
29250SOL    HW192597   0.859   6.675   8.359  0.2641 -0.4262  0.3534
29250SOL    HW292598   0.883   6.759   8.482  0.3374 -0.4113  0.3288
29251SOL     OW92599   9.675   3.862   7.888 -0.5429  0.4878  0.1335
29251SOL    HW192600   9.661   3.956   7.899  0.4546  0.7740 -1.0015
29251SOL    HW292601   9.666   3.847   7.794 -1.0399 -0.6149  0.3466
29252SOL     OW92602   9.920   3.450   9.820  1.0678 -0.2452 -0.1745
29252SOL    HW192603   9.975   3.492   9.885  0.6155  0.2486 -0.1107
29252SOL    HW292604   9.833   3.486   9.835  1.4319  1.8565 -2.7167
29253SOL     OW92605   9.977   5.543   9.916  0.0398  0.4212 -0.0527
29253SOL    HW192606   9.979   5.500   9.831  0.2243  0.4800 -0.0781
29253SOL    HW292607   9.884   5.560   9.933 -0.2133 -1.7885  0.8634
29254SOL     OW92608   9.065   3.713   8.149 -0.1900 -0.1170  0.9199
29254SOL    HW192609   9.100   3.643   8.204 -0.0116 -1.3226 -0.6928
29254SOL    HW292610   9.129   3.784   8.157  0.4201 -0.7073  1.3598
29255SOL     OW92611   0.824   5.569   8.763 -0.1872  0.1316 -0.1567
29255SOL    HW192612   0.737   5.594   8.732 -0.4606 -0.3485  0.2107
29255SOL    HW292613   0.869   5.537   8.686  0.3942  2.3360 -0.7867
29256SOL     OW92614   8.930   3.836   9.987 -0.1604  0.7519  0.6362
29256SOL    HW192615   8.995   3.790  10.041  0.3031 -0.0386 -0.5700
29256SOL    HW292616   8.846   3.800  10.015  0.2709 -1.9341 -1.2268
29257SOL     OW92617   0.269   4.878   9.880 -0.5224 -0.6033 -0.3988
29257SOL    HW192618   0.228   4.957   9.845  1.1578  0.1961 -0.5884
29257SOL    HW292619   0.338   4.911   9.939 -1.6327 -1.9156  1.7069
29258SOL     OW92620   9.323   3.752   7.373 -0.4812  0.2172  0.1817
29258SOL    HW192621   9.330   3.708   7.458 -1.3626  0.1799  0.2410
29258SOL    HW292622   9.344   3.684   7.309 -0.5077  0.0548  0.3436
29259SOL     OW92623   9.946   5.462   8.256  0.0790  0.0923  0.0418
29259SOL    HW192624   9.910   5.392   8.202  0.2004 -1.4947  1.9298
29259SOL    HW292625  10.034   5.476   8.223 -0.1361 -0.2730 -0.6954
29260SOL     OW92626   9.188   3.116   8.959 -0.4703 -0.6123 -0.5632
29260SOL    HW192627   9.199   3.177   9.031 -0.0284 -1.1969 -0.1265
29260SOL    HW292628   9.130   3.161   8.897  0.3807  0.5068 -0.5621
29261SOL     OW92629   9.086   3.829   9.573  0.0102  0.3248 -0.4231
29261SOL    HW192630   9.086   3.845   9.479  0.9806  0.8910 -0.3327
29261SOL    HW292631   9.175   3.851   9.601  0.0724 -0.9925  0.4306
29262SOL     OW92632   9.280   2.533   0.248 -0.1894 -0.3412  0.0009
29262SOL    HW192633   9.245   2.472   0.183 -1.6770 -1.6750  1.9732
29262SOL    HW292634   9.245   2.618   0.222 -4.8336 -1.5701  1.6973
29263SOL     OW92635   9.403   6.009   9.741 -0.0774 -0.3855 -0.4677
29263SOL    HW192636   9.445   5.980   9.822 -0.1443  1.3762  0.2180
29263SOL    HW292637   9.315   5.971   9.745  1.0114 -3.0644 -1.3239
29264SOL     OW92638   9.990   4.005   7.725  0.1127 -0.1480  0.3643
29264SOL    HW192639  10.051   4.049   7.784 -1.3596 -1.0079  2.6046
29264SOL    HW292640  10.042   3.937   7.683  1.3317  0.8671  0.1960
29265SOL     OW92641   1.137   3.831   8.489  0.2929  0.6278 -0.3978
29265SOL    HW192642   1.199   3.819   8.561  0.3246  0.2837 -0.4847
29265SOL    HW292643   1.051   3.825   8.531  0.3085  0.0797 -0.4475
29266SOL     OW92644   0.502   4.146   0.354  0.3383 -0.3339 -0.0895
29266SOL    HW192645   0.518   4.122   0.262  1.1691  0.3092 -0.1174
29266SOL    HW292646   0.441   4.220   0.348  0.1201 -0.5164 -0.1115
29267SOL     OW92647   0.102   5.119   8.233  0.0465 -0.5488  0.1787
29267SOL    HW192648   0.024   5.098   8.181 -0.2746 -2.0464  1.2177
29267SOL    HW292649   0.139   5.196   8.190 -2.6741  0.9481  0.3378
29268SOL     OW92650   9.657   6.397   9.525 -0.1801 -1.1187 -0.0309
29268SOL    HW192651   9.584   6.356   9.571 -0.8460  0.5537  0.4017
29268SOL    HW292652   9.628   6.403   9.434 -0.6237 -0.3719  0.1581
29269SOL     OW92653   0.576   4.507   8.960 -0.5009  0.2244 -0.2507
29269SOL    HW192654   0.561   4.438   9.024  0.8020  0.8427  0.7465
29269SOL    HW292655   0.488   4.530   8.929 -1.0446 -0.9271  0.4024
29270SOL     OW92656   7.691   4.083   9.753 -0.1639  0.6086 -0.2521
29270SOL    HW192657   7.716   4.144   9.823  0.0870 -0.6483  0.7658
29270SOL    HW292658   7.741   4.112   9.677 -0.4818  2.0283  0.0553
29271SOL     OW92659   8.700   5.069   9.297 -0.5574  0.4283 -0.3866
29271SOL    HW192660   8.663   5.063   9.209 -1.5276  0.5632  0.0086
29271SOL    HW292661   8.624   5.073   9.355  0.0742  0.4489  0.4522
29272SOL     OW92662   1.430   2.268   8.328  0.3708  0.3398 -0.3103
29272SOL    HW192663   1.494   2.201   8.353  0.3869 -0.1156 -1.5658
29272SOL    HW292664   1.397   2.301   8.412  0.1260 -1.4695  0.3317
29273SOL     OW92665   9.545   4.553   8.401 -0.3470  0.0542 -0.0751
29273SOL    HW192666   9.635   4.576   8.379 -0.0557  1.1331  2.0819
29273SOL    HW292667   9.553   4.478   8.459 -0.9374 -0.9264 -1.2434
29274SOL     OW92668   9.767   5.853   8.276  0.2246  0.3784  0.0313
29274SOL    HW192669   9.770   5.759   8.291  0.6634  0.3071 -0.4681
29274SOL    HW292670   9.822   5.890   8.346 -0.8836  0.3587  0.9203
29275SOL     OW92671   8.828   4.211   0.119 -0.0584 -0.1440 -0.2221
29275SOL    HW192672   8.744   4.170   0.138 -1.3256  2.7416  0.7148
29275SOL    HW292673   8.860   4.241   0.204  1.3876 -0.2364 -0.7207
29276SOL     OW92674   1.137   5.433   9.494 -0.2988  0.0536 -0.4603
29276SOL    HW192675   1.172   5.485   9.422 -0.3669  1.0133  0.2007
29276SOL    HW292676   1.136   5.492   9.569  3.0486 -1.9001  1.2460
29277SOL     OW92677   0.516   6.330   0.974 -0.2301  0.1596 -0.4119
29277SOL    HW192678   0.456   6.331   0.899  0.8503  0.1047 -1.2782
29277SOL    HW292679   0.478   6.394   1.034 -0.9471  0.4248 -1.1211
29278SOL     OW92680   8.464   4.843   7.093  0.1011 -0.2842  0.2924
29278SOL    HW192681   8.499   4.836   7.005 -1.8262 -0.0523 -0.5036
29278SOL    HW292682   8.408   4.766   7.103 -0.3263  0.1126  1.0104
29279SOL     OW92683   1.221   5.516   9.085  0.2308 -0.1091  0.4887
29279SOL    HW192684   1.223   5.420   9.085  0.6625 -0.1016  0.3025
29279SOL    HW292685   1.172   5.538   9.006 -0.2334 -0.1848  0.7561
29280SOL     OW92686   9.474   5.685   8.384 -0.3007 -0.4834 -0.0301
29280SOL    HW192687   9.460   5.768   8.339 -2.7689 -1.0674 -0.4598
29280SOL    HW292688   9.561   5.656   8.355 -1.3568 -0.3305 -3.6835
29281SOL     OW92689   1.336   4.571   9.347 -0.2899 -0.0919  0.3145
29281SOL    HW192690   1.409   4.510   9.359  0.4812  0.7475 -0.0781
29281SOL    HW292691   1.302   4.551   9.259  0.8202  0.9532 -0.3586
29282SOL     OW92692   9.494   4.626   9.139  0.5530 -0.0448 -0.6195
29282SOL    HW192693   9.563   4.580   9.187  2.1700  1.0523 -1.8211
29282SOL    HW292694   9.437   4.663   9.207  0.3554 -2.1275  0.3702
29283SOL     OW92695   9.780   4.604   8.302 -0.0654  0.2253 -0.6171
29283SOL    HW192696   9.857   4.556   8.333 -0.8332 -1.1357 -0.7739
29283SOL    HW292697   9.810   4.648   8.222  1.0557  1.2259  0.3320
29284SOL     OW92698   9.351   4.370   0.364 -0.4691  0.2460 -0.0011
29284SOL    HW192699   9.347   4.288   0.315 -1.3644 -0.5567  1.3816
29284SOL    HW292700   9.375   4.344   0.452 -0.3882  1.5223  0.3642
29285SOL     OW92701   9.567   4.336   8.141  0.0518 -0.0792 -0.5703
29285SOL    HW192702   9.631   4.294   8.199  0.7984 -0.3327 -1.5625
29285SOL    HW292703   9.564   4.427   8.170  0.7559 -0.1041 -0.4262
29286SOL     OW92704   9.520   5.003   9.270 -0.9521  0.2871 -0.2913
29286SOL    HW192705   9.443   5.014   9.214 -0.5300 -1.7300 -1.2899
29286SOL    HW292706   9.523   4.910   9.288  1.1303  0.3869 -0.0441
29287SOL     OW92707   0.563   4.692   9.248  0.2496  0.3518  0.2119
29287SOL    HW192708   0.622   4.631   9.292 -0.9063 -0.4314  0.6873
29287SOL    HW292709   0.621   4.745   9.193  1.4210 -0.2639  0.8221
29288SOL     OW92710   9.682   3.814   8.994 -0.1892  0.5324 -0.6084
29288SOL    HW192711   9.698   3.720   8.987 -0.4973  0.3696  0.7841
29288SOL    HW292712   9.767   3.851   9.018 -0.4024  0.4391  0.2888
29289SOL     OW92713   9.983   6.124   9.398 -0.0480 -0.8045 -0.2411
29289SOL    HW192714   9.934   6.172   9.465 -2.8705 -3.6997 -0.1232
29289SOL    HW292715   9.991   6.186   9.325 -0.7641  0.9028  1.1029
29290SOL     OW92716   9.418   3.265   8.772  0.3731  0.0030 -0.1407
29290SOL    HW192717   9.381   3.177   8.773 -0.5022  0.3697 -0.0647
29290SOL    HW292718   9.430   3.288   8.864 -0.0922  0.2541 -0.1422
29291SOL     OW92719   8.597   3.819   8.017  0.8201 -0.4999  0.8947
29291SOL    HW192720   8.568   3.736   8.055  0.9706  0.6211  3.6279
29291SOL    HW292721   8.691   3.822   8.035  1.0313 -0.2481 -0.2225
29292SOL     OW92722   9.063   4.444   9.565 -0.0242 -0.0161 -0.1449
29292SOL    HW192723   9.062   4.536   9.592  1.8839  0.0306 -0.1648
29292SOL    HW292724   9.091   4.396   9.643  4.1192 -0.0252 -1.5387
29293SOL     OW92725   9.605   2.977   9.393 -0.3039  0.3827  0.3449
29293SOL    HW192726   9.674   3.036   9.424 -1.3278  1.0206  1.4786
29293SOL    HW292727   9.531   3.035   9.375 -1.0227 -0.4517  0.6084
29294SOL     OW92728   9.520   3.630   7.573  0.0989  0.0037  0.0548
29294SOL    HW192729   9.558   3.712   7.604  0.0996 -0.8914  2.5837
29294SOL    HW292730   9.591   3.588   7.524  1.0698  0.2406  1.2050
29295SOL     OW92731   0.314   4.977   8.368 -0.1479 -0.5067  0.1733
29295SOL    HW192732   0.353   5.062   8.351  1.5832 -1.2882  0.1407
29295SOL    HW292733   0.227   4.981   8.328 -0.7652  1.8347  1.6724
29296SOL     OW92734   8.202   5.044   0.620 -0.7793 -0.0242 -0.6057
29296SOL    HW192735   8.231   5.032   0.710  0.0148  1.8683 -0.5713
29296SOL    HW292736   8.190   5.139   0.611 -0.9345 -0.1915 -2.4576
29297SOL     OW92737   1.747   5.742   9.417 -0.0044 -0.0690  0.8829
29297SOL    HW192738   1.790   5.817   9.376 -0.1047  0.3647  1.5690
29297SOL    HW292739   1.655   5.768   9.422 -0.2216 -0.6699  0.1553
29298SOL     OW92740   0.663   4.486   8.687  0.3855  0.1343  0.1126
29298SOL    HW192741   0.639   4.478   8.780 -2.1013 -3.3142 -0.7248
29298SOL    HW292742   0.753   4.453   8.683  1.1966  2.0559  1.5297
29299SOL     OW92743   9.313   5.556   8.911  0.2901 -0.3580 -0.4401
29299SOL    HW192744   9.396   5.597   8.935 -0.9216  2.5006 -0.9479
29299SOL    HW292745   9.330   5.513   8.828  1.5988 -0.9606  0.1201
29300SOL     OW92746   1.990   5.641   9.169  0.3343  0.0374 -0.8632
29300SOL    HW192747   2.064   5.671   9.222 -0.4402  2.4486 -1.0824
29300SOL    HW292748   1.939   5.721   9.152 -2.4683 -1.5888 -0.4858
29301SOL     OW92749   0.772   4.314   8.084  0.0304 -0.6939  0.5993
29301SOL    HW192750   0.860   4.293   8.055 -0.1842  2.6507 -2.8908
29301SOL    HW292751   0.785   4.374   8.158  0.7265  1.0403 -0.9041
29302SOL     OW92752   9.279   4.427   8.048  0.4945  0.4347 -0.0444
29302SOL    HW192753   9.316   4.482   8.117 -1.1191  1.4689  0.0356
29302SOL    HW292754   9.292   4.479   7.968 -0.8355  0.8564  0.0000
29303SOL     OW92755   9.767   4.220   9.109  0.3736  0.5084 -0.4331
29303SOL    HW192756   9.829   4.230   9.036  0.4188  0.7383 -0.3632
29303SOL    HW292757   9.814   4.165   9.172  0.2369  0.0960 -0.6869
29304SOL     OW92758   9.458   3.704   1.052 -0.3773  0.4130  0.2221
29304SOL    HW192759   9.550   3.683   1.067 -0.2553  0.7825 -0.0036
29304SOL    HW292760   9.414   3.619   1.049 -0.0283  0.2319  0.2309
29305SOL     OW92761   9.540   6.393   9.254  0.1755  0.7536 -0.1694
29305SOL    HW192762   9.447   6.370   9.251  0.6087 -1.0784  0.0910
29305SOL    HW292763   9.564   6.410   9.163 -0.7576  2.7420 -0.0777
29306SOL     OW92764   9.393   5.430   0.806 -0.0351 -0.7283 -0.3399
29306SOL    HW192765   9.424   5.463   0.722 -2.6642  1.3008 -0.5780
29306SOL    HW292766   9.336   5.499   0.840 -2.5754 -3.3728  1.0502
29307SOL     OW92767   9.887   4.572   0.835  0.1268 -0.1974  0.4456
29307SOL    HW192768   9.902   4.665   0.848 -0.8991 -0.0273  0.4743
29307SOL    HW292769   9.823   4.548   0.901 -0.5546 -0.6473 -0.3666
29308SOL     OW92770   8.225   6.573   9.510 -0.0650  0.1276 -0.1453
29308SOL    HW192771   8.267   6.512   9.450 -0.1740  1.0114 -1.1326
29308SOL    HW292772   8.270   6.656   9.495  0.7531  0.0855  1.8954
29309SOL     OW92773   0.428   5.017   0.467 -0.5371 -0.2605  0.4758
29309SOL    HW192774   0.438   5.005   0.373 -1.0923 -0.5400  0.4550
29309SOL    HW292775   0.447   5.110   0.481  0.6426 -0.4583  0.2383
29310SOL     OW92776   8.571   5.398   0.253 -0.0782  0.2645 -0.3585
29310SOL    HW192777   8.661   5.376   0.277  0.4420  3.2812  0.6350
29310SOL    HW292778   8.579   5.473   0.194 -2.0174  1.7250  1.1855
29311SOL     OW92779   0.270   3.422   0.944 -0.1874  0.4611 -0.4645
29311SOL    HW192780   0.251   3.357   1.012 -0.9314  0.2709 -0.8413
29311SOL    HW292781   0.223   3.389   0.867 -0.2481  1.2426 -0.7632
29312SOL     OW92782   6.799   5.378   0.794  0.5448 -0.1681  0.5589
29312SOL    HW192783   6.839   5.462   0.770  2.8830 -0.5439  2.8905
29312SOL    HW292784   6.705   5.395   0.796  0.9448  2.2050  0.2765
29313SOL     OW92785   7.309   4.205   9.751 -0.3579 -0.1870  0.6906
29313SOL    HW192786   7.226   4.246   9.725 -0.0251 -0.8727 -1.5274
29313SOL    HW292787   7.289   4.112   9.758  0.4283 -0.4720 -0.7461
29314SOL     OW92788   0.165   5.281   9.954 -0.0006  0.1976 -0.6271
29314SOL    HW192789   0.070   5.291   9.949  0.0365  0.5470 -0.6542
29314SOL    HW292790   0.178   5.205  10.010 -0.3213 -0.5283 -1.5128
29315SOL     OW92791   0.611   4.300   7.620  0.6617 -0.4718 -0.4174
29315SOL    HW192792   0.668   4.339   7.553  0.0598  1.2870  0.0632
29315SOL    HW292793   0.523   4.332   7.598  0.6433  1.1908  1.9463
29316SOL     OW92794   9.709   3.771   0.116 -0.0247  0.8611 -0.2711
29316SOL    HW192795   9.762   3.848   0.132  1.3679  0.6499 -3.5342
29316SOL    HW292796   9.732   3.710   0.186  1.3794  2.1434  0.3862
29317SOL     OW92797   9.652   4.332   0.119  0.6928  0.1131 -0.0408
29317SOL    HW192798   9.743   4.359   0.119  0.7204  0.0200  0.7312
29317SOL    HW292799   9.643   4.276   0.196 -0.2346  0.8936  0.4367
29318SOL     OW92800   9.168   1.758   8.819 -0.1725 -0.1674 -0.3786
29318SOL    HW192801   9.195   1.798   8.736 -0.5062  1.0042  0.0812
29318SOL    HW292802   9.242   1.701   8.843  0.0652 -0.2711 -1.3069
29319SOL     OW92803   0.873   5.780   0.018  0.0243 -0.4105 -0.0506
29319SOL    HW192804   0.928   5.818   0.086  1.3277  0.3714 -1.4858
29319SOL    HW292805   0.858   5.690   0.046  1.4294 -0.4036  0.7526
29320SOL     OW92806   8.114   4.639   9.642 -0.5080  0.0908  0.3286
29320SOL    HW192807   8.199   4.673   9.672  0.1251 -1.6464  0.5364
29320SOL    HW292808   8.092   4.570   9.705 -2.3333  0.8502  0.5603
29321SOL     OW92809   0.188   4.382   9.719  0.5694 -0.1038 -0.5562
29321SOL    HW192810   0.197   4.386   9.815 -0.2672  0.1418 -0.4834
29321SOL    HW292811   0.113   4.323   9.705  1.4173 -1.0777 -1.0951
29322SOL     OW92812   8.182   4.702   9.362 -0.0880 -0.2599 -0.7850
29322SOL    HW192813   8.194   4.626   9.305 -1.5483 -1.2233  0.1611
29322SOL    HW292814   8.166   4.665   9.448  1.4856  1.1855  0.1587
29323SOL     OW92815   0.043   4.234   0.325 -0.1081 -0.1361 -0.5551
29323SOL    HW192816   0.089   4.154   0.350 -0.0330 -0.6054 -2.1042
29323SOL    HW292817  -0.049   4.216   0.344  0.0140 -0.2738 -0.1066
29324SOL     OW92818   8.071   5.799   9.659 -0.5074 -0.1563 -0.1571
29324SOL    HW192819   8.014   5.754   9.722  0.3666  0.4641  1.0864
29324SOL    HW292820   8.109   5.728   9.607 -3.5019 -0.5214 -1.9785
29325SOL     OW92821   0.326   5.963   8.515 -0.1557 -0.2196 -0.0069
29325SOL    HW192822   0.322   5.977   8.421 -2.9032  0.0544  0.0984
29325SOL    HW292823   0.234   5.967   8.544  0.4175 -2.5319  2.3475
29326SOL     OW92824   1.255   4.070   0.381 -0.1934 -0.1751 -0.3125
29326SOL    HW192825   1.224   4.027   0.302 -1.2695  0.5686 -0.3031
29326SOL    HW292826   1.176   4.085   0.433  0.3923  0.1474  0.5083
29327SOL     OW92827   9.910   4.517   9.490 -0.1991 -0.2008 -1.0854
29327SOL    HW192828   9.867   4.533   9.574 -2.3749 -2.3354 -1.7356
29327SOL    HW292829   9.976   4.450   9.508 -0.1892 -0.1508 -0.9439
29328SOL     OW92830   9.373   7.577   7.701  0.6717  0.2074  0.4488
29328SOL    HW192831   9.369   7.672   7.698  0.8757  0.2452  1.2859
29328SOL    HW292832   9.301   7.552   7.759 -0.5977 -0.2612 -1.2638
29329SOL     OW92833   9.236   3.282   9.726  0.3907  0.7415  0.0185
29329SOL    HW192834   9.213   3.356   9.782 -0.1757 -0.4911  1.4403
29329SOL    HW292835   9.154   3.236   9.712  0.9364 -0.2863  0.1386
29330SOL     OW92836   0.218   3.834   0.561 -0.0387  0.0758  1.0233
29330SOL    HW192837   0.178   3.835   0.647 -2.0323  0.4004  0.1168
29330SOL    HW292838   0.242   3.742   0.546  0.2492  0.0097  1.8792
29331SOL     OW92839   0.396   4.645   0.804 -0.1510  0.3748  0.1472
29331SOL    HW192840   0.304   4.642   0.832  0.2322 -0.1598  1.3821
29331SOL    HW292841   0.415   4.556   0.776 -0.1504  0.6017 -0.5670
29332SOL     OW92842   9.780   4.992   0.122 -0.7993  0.0955 -0.3931
29332SOL    HW192843   9.775   5.085   0.146 -1.8221 -0.0291 -0.1224
29332SOL    HW292844   9.817   4.949   0.199 -0.8890  0.1893 -0.2973
29333SOL     OW92845   1.193   3.462   9.597  0.7643 -0.1841  0.4607
29333SOL    HW192846   1.258   3.477   9.666  1.2409 -4.2758  1.0225
29333SOL    HW292847   1.110   3.457   9.644  0.1880  3.1119 -0.0511
29334SOL     OW92848   9.249   3.560   8.509  0.0556 -0.0778 -0.3636
29334SOL    HW192849   9.299   3.480   8.527  0.0427 -0.2541 -1.1125
29334SOL    HW292850   9.248   3.567   8.414  0.8760  1.3422 -0.2847
29335SOL     OW92851   8.817   6.508   9.585  0.4573 -0.2540 -0.0267
29335SOL    HW192852   8.892   6.567   9.571  2.0255 -2.2243 -0.2329
29335SOL    HW292853   8.750   6.563   9.624  1.8273  1.7026 -0.3491
29336SOL     OW92854   8.254   6.710   0.850 -0.3017 -0.2043 -0.3474
29336SOL    HW192855   8.338   6.682   0.813 -0.3315 -0.2976 -0.3452
29336SOL    HW292856   8.195   6.637   0.832 -0.0580 -0.7124  0.8244
29337SOL     OW92857   9.090   6.382   1.938  0.2717  0.2115 -0.4954
29337SOL    HW192858   9.172   6.344   1.905  1.0473  1.5787 -0.1687
29337SOL    HW292859   9.101   6.383   2.033 -0.3108  0.0025 -0.4259
29338SOL     OW92860   1.264   7.000   1.331  0.3644 -0.0301  0.3840
29338SOL    HW192861   1.302   6.912   1.322  0.7114 -0.0124  1.5855
29338SOL    HW292862   1.174   6.984   1.358  0.5696 -0.0177  1.0928
29339SOL     OW92863   8.478   8.288   0.328 -0.0565  0.5055  0.2498
29339SOL    HW192864   8.406   8.322   0.380 -0.8556 -0.3761 -0.2619
29339SOL    HW292865   8.438   8.265   0.244  0.7003 -0.5247  0.1610
29340SOL     OW92866   9.997   5.605   9.321  0.2458 -0.5372 -0.0302
29340SOL    HW192867   9.922   5.552   9.346  0.7334 -1.7709 -1.0896
29340SOL    HW292868   9.964   5.695   9.319 -0.7026 -0.8394  1.3656
29341SOL     OW92869   9.984   7.045   9.822 -0.2367 -0.2434 -0.0624
29341SOL    HW192870  10.014   6.988   9.751  0.9668  1.0691 -0.6306
29341SOL    HW292871   9.904   7.086   9.788 -0.1290 -0.2573 -0.3332
29342SOL     OW92872   9.171   6.642   3.252  0.3325  0.6161 -0.5264
29342SOL    HW192873   9.192   6.586   3.177 -0.9611  0.1795 -0.5825
29342SOL    HW292874   9.254   6.655   3.297  0.8049 -0.6272 -1.0226
29343SOL     OW92875   0.096   6.800   0.272 -0.6306  0.6631  0.1237
29343SOL    HW192876   0.031   6.768   0.335  0.6178  0.4528  1.3318
29343SOL    HW292877   0.079   6.749   0.193 -3.1142  1.8944 -0.2004
29344SOL     OW92878   1.088   5.642   1.104  0.1207  0.3076 -0.6851
29344SOL    HW192879   1.150   5.666   1.035  0.1030  1.5879 -0.2802
29344SOL    HW292880   1.142   5.636   1.183 -0.0494  0.0769 -0.5869
29345SOL     OW92881   9.315   5.984   1.530 -0.0660 -0.5786 -0.1668
29345SOL    HW192882   9.376   5.910   1.526  1.3465  0.6101 -1.4080
29345SOL    HW292883   9.263   5.968   1.608  0.8655 -2.3908  0.1127
29346SOL     OW92884   9.680   5.627   0.823 -0.3121 -0.2375 -0.3018
29346SOL    HW192885   9.633   5.640   0.905  0.2184  1.7670 -0.3068
29346SOL    HW292886   9.613   5.640   0.755 -0.3249 -0.0040 -0.2432
29347SOL     OW92887   0.162   7.166   1.040 -0.7035  0.2406  0.0472
29347SOL    HW192888   0.205   7.084   1.016 -0.6379 -0.2642  1.8255
29347SOL    HW292889   0.069   7.145   1.038 -0.6392 -0.2220  1.7028
29348SOL     OW92890   0.161   6.568   9.753 -0.1605  0.3407 -0.6183
29348SOL    HW192891   0.147   6.620   9.832 -0.5505  0.8368 -1.0077
29348SOL    HW292892   0.102   6.494   9.763  1.6171 -0.9258  0.7209
29349SOL     OW92893   0.098   6.337   0.516 -0.0820 -0.2767  0.0760
29349SOL    HW192894   0.073   6.392   0.590  0.9386  1.8275 -1.1011
29349SOL    HW292895   0.194   6.344   0.513 -0.1402 -0.1361 -1.5924
29350SOL     OW92896   0.924   8.244   2.213 -0.4667 -0.6709 -0.1598
29350SOL    HW192897   0.917   8.267   2.120  2.6059 -0.0386 -0.2836
29350SOL    HW292898   1.018   8.248   2.232 -1.1439  0.6337  3.3536
29351SOL     OW92899   9.875   6.834   9.939  0.1104  0.1567  0.6867
29351SOL    HW192900   9.923   6.916   9.925 -0.5153  0.5202  0.6610
29351SOL    HW292901   9.925   6.788  10.006  1.4148 -0.2109 -0.5265
29352SOL     OW92902   0.153   7.923   3.426 -0.4424  0.8144  0.0034
29352SOL    HW192903   0.152   7.987   3.354  0.7481  1.6600  0.7198
29352SOL    HW292904   0.108   7.967   3.498  0.4912  0.8931  0.5413
29353SOL     OW92905   0.258   5.384   1.208 -0.6176  0.3015 -0.3117
29353SOL    HW192906   0.238   5.292   1.225 -0.9762  0.7148  1.6011
29353SOL    HW292907   0.213   5.403   1.125  0.0707 -1.4162 -1.1138
29354SOL     OW92908   0.160   7.220   0.440 -0.4552  0.2762  0.3714
29354SOL    HW192909   0.128   7.257   0.522 -1.9351  0.4023 -0.2463
29354SOL    HW292910   0.091   7.160   0.412  1.5401 -2.3993  0.9673
29355SOL     OW92911   9.513   8.229   1.856  0.1473 -0.2762  0.2638
29355SOL    HW192912   9.564   8.302   1.892  1.0582  0.3296 -2.1426
29355SOL    HW292913   9.440   8.271   1.810 -0.5475 -0.9774  0.7191
29356SOL     OW92914   9.548   4.172   0.601 -1.0977 -0.2516  0.1624
29356SOL    HW192915   9.570   4.176   0.694  1.7919  2.1258 -0.5451
29356SOL    HW292916   9.484   4.241   0.588 -1.5153 -0.5960  0.4023
29357SOL     OW92917   0.450   4.452   0.314  0.3116 -0.3065 -0.3218
29357SOL    HW192918   0.371   4.430   0.363 -0.7254  2.4463 -0.6777
29357SOL    HW292919   0.522   4.437   0.376 -0.8971  2.1298  1.7623
29358SOL     OW92920   9.675   7.206   0.421  0.3692  0.1885 -0.7861
29358SOL    HW192921   9.599   7.161   0.385 -0.7790  2.4415 -1.2256
29358SOL    HW292922   9.734   7.217   0.346  0.3927 -0.0259 -0.8001
29359SOL     OW92923   0.286   5.646   1.267  0.3246 -0.2194  0.2155
29359SOL    HW192924   0.285   5.552   1.254  0.3268 -0.3316  0.9628
29359SOL    HW292925   0.226   5.661   1.340  0.3243  0.3569  0.1039
29360SOL     OW92926   1.486   7.143   0.290 -0.0096 -0.2253  0.5102
29360SOL    HW192927   1.555   7.192   0.247 -2.2889  2.1122 -0.6483
29360SOL    HW292928   1.462   7.196   0.367 -0.4169 -1.0713  0.9815
29361SOL     OW92929   9.736   6.952   1.620 -0.0259  0.1778 -0.2439
29361SOL    HW192930   9.691   6.875   1.655 -0.4732  0.1744 -0.8113
29361SOL    HW292931   9.695   6.967   1.534  0.7268  0.4637 -0.5581
29362SOL     OW92932   0.187   5.175   1.817 -0.8198 -0.0808 -0.0917
29362SOL    HW192933   0.108   5.128   1.842 -0.4333  0.2821  1.9338
29362SOL    HW292934   0.175   5.197   1.725 -2.2124 -1.7229 -0.3074
29363SOL     OW92935   0.429   5.160   9.226  0.8713 -0.4969 -0.4454
29363SOL    HW192936   0.476   5.162   9.143  1.3271 -2.4548 -0.2505
29363SOL    HW292937   0.475   5.094   9.278  0.6614  0.7698  1.4094
29364SOL     OW92938   9.399   6.495   1.443  0.4031 -0.2650  0.4954
29364SOL    HW192939   9.474   6.530   1.395  0.0071 -0.5042 -0.3077
29364SOL    HW292940   9.427   6.410   1.475  0.4648 -0.3693  0.1628
29365SOL     OW92941   9.787   6.264   1.123  0.6979 -0.3614  0.6317
29365SOL    HW192942   9.775   6.208   1.046  0.8380  0.6173 -0.1205
29365SOL    HW292943   9.701   6.268   1.164  0.4180 -0.2108  0.0390
29366SOL     OW92944   9.483   7.417   1.124  0.2825  0.5562 -0.4015
29366SOL    HW192945   9.404   7.408   1.071  0.2104  0.0221 -0.2159
29366SOL    HW292946   9.459   7.480   1.192 -0.5166 -0.7987  0.6029
29367SOL     OW92947   9.283   5.171   1.546  0.0679  0.5486  0.0628
29367SOL    HW192948   9.268   5.158   1.640 -0.7583 -1.0093 -0.2652
29367SOL    HW292949   9.372   5.205   1.540 -0.1529  1.4014  1.4635
29368SOL     OW92950   9.965   6.207   0.789  0.4244  0.0888 -0.1290
29368SOL    HW192951   9.952   6.171   0.701  0.4421 -0.6010  0.1447
29368SOL    HW292952   9.925   6.143   0.847 -0.9955  1.3119  0.2736
29369SOL     OW92953   8.813   6.722   0.371 -0.7398 -0.0182  0.0668
29369SOL    HW192954   8.877   6.705   0.440  2.7468  1.8867 -2.5567
29369SOL    HW292955   8.853   6.789   0.316 -3.9534 -0.5089 -3.1172
29370SOL     OW92956   9.639   7.027   9.725 -0.2651  0.1853 -0.3814
29370SOL    HW192957   9.565   6.969   9.746  0.7676 -0.7820  0.6489
29370SOL    HW292958   9.678   6.990   9.646 -0.0371 -0.1187 -0.1273
29371SOL     OW92959   0.021   6.457   0.909  0.3225  0.1443 -0.5997
29371SOL    HW192960   0.023   6.379   0.854  0.8530  0.1336 -0.5648
29371SOL    HW292961   0.078   6.519   0.866  0.3116  0.3284 -0.3504
29372SOL     OW92962   0.019   5.894   1.133  0.4248 -0.4071  0.2032
29372SOL    HW192963  -0.001   5.801   1.123  0.8095 -0.7529  2.5091
29372SOL    HW292964  -0.051   5.929   1.187  0.3151  0.6554 -0.6040
29373SOL     OW92965   9.725   6.936   0.299  0.7112 -0.4865  0.0257
29373SOL    HW192966   9.635   6.904   0.293 -0.0045  1.5927 -0.6439
29373SOL    HW292967   9.772   6.865   0.344 -1.0706 -1.9264 -0.3067
29374SOL     OW92968   9.625   6.479   1.708  0.6655  0.0609 -0.2824
29374SOL    HW192969   9.670   6.401   1.676  0.6052  0.1502 -0.5843
29374SOL    HW292970   9.534   6.451   1.721  1.1437 -0.5908  1.9596
29375SOL     OW92971   0.041   6.912   1.162 -0.1189  0.0217  0.3066
29375SOL    HW192972   0.075   6.892   1.075  0.2780 -1.4967  0.7998
29375SOL    HW292973  -0.052   6.931   1.147  0.4272  2.0144 -0.7410
29376SOL     OW92974   9.569   6.074   9.397 -0.0424 -0.4243  0.1715
29376SOL    HW192975   9.578   6.131   9.473  0.2841 -1.1489  0.6795
29376SOL    HW292976   9.599   6.128   9.324 -0.5431  0.3387  0.5240
29377SOL     OW92977   0.249   6.847   1.318  0.0838 -0.0260 -0.2432
29377SOL    HW192978   0.169   6.888   1.285 -0.6679 -0.0318  1.5528
29377SOL    HW292979   0.259   6.880   1.407  1.1666 -1.3316  0.1393
29378SOL     OW92980   9.711   5.839   1.121  0.1653 -0.1668 -0.1804
29378SOL    HW192981   9.662   5.905   1.170  0.7731  0.4434 -0.3850
29378SOL    HW292982   9.649   5.767   1.109 -0.3419  0.1495  0.4956
29379SOL     OW92983   9.939   6.890   2.369 -0.3107 -0.2600 -0.4194
29379SOL    HW192984   9.846   6.909   2.378 -0.3731 -1.0713  0.8272
29379SOL    HW292985   9.976   6.908   2.456  0.0060 -3.4466  0.1883
29380SOL     OW92986   9.440   5.473   9.519  0.1178 -0.2446 -0.3538
29380SOL    HW192987   9.406   5.551   9.563 -1.7312 -0.9719 -0.4280
29380SOL    HW292988   9.477   5.419   9.589 -1.1946 -0.5904  0.0812
29381SOL     OW92989   9.271   7.367   0.957 -0.1732 -0.6509 -0.2958
29381SOL    HW192990   9.260   7.300   0.890 -1.0661  0.3719 -1.1886
29381SOL    HW292991   9.333   7.430   0.919  0.6687 -0.9522  0.5414
29382SOL     OW92992   9.677   7.509   0.886  0.5436 -0.5245 -0.1417
29382SOL    HW192993   9.630   7.592   0.893 -1.4882 -1.6106 -0.2872
29382SOL    HW292994   9.700   7.487   0.977  0.8913  0.0842 -0.0813
29383SOL     OW92995   9.390   7.835   2.296 -0.5290 -0.2335  0.5181
29383SOL    HW192996   9.369   7.909   2.353 -1.9646  0.6526 -1.1234
29383SOL    HW292997   9.485   7.842   2.282 -1.0737  3.3043 -2.2407
29384SOL     OW92998   9.762   6.954   1.095  0.0517  0.1863  0.1218
29384SOL    HW192999   9.701   6.887   1.064 -2.6542  4.0718 -3.5238
29384SOL    HW293000   9.728   6.980   1.180 -0.6058 -1.0307  0.2379
29385SOL     OW93001   9.382   5.827   1.279  0.2977 -0.4685 -0.4047
29385SOL    HW193002   9.451   5.887   1.307 -0.3159 -0.3101  0.8496
29385SOL    HW293003   9.378   5.837   1.184  1.1327  0.4587 -0.3501
29386SOL     OW93004   8.536   7.697   1.653  0.0284  0.2558  0.7095
29386SOL    HW193005   8.601   7.631   1.630 -0.3561  0.1747 -0.1319
29386SOL    HW293006   8.568   7.733   1.736  0.7618 -0.2887  0.6698
29387SOL     OW93007   9.717   6.778   0.596 -0.1643  0.2787 -0.3384
29387SOL    HW193008   9.764   6.761   0.514 -0.0426 -0.5585 -0.0957
29387SOL    HW293009   9.633   6.816   0.567  0.1472  0.6145 -0.8188
29388SOL     OW93010   0.361   7.425   8.925  0.5685  0.0237 -0.2773
29388SOL    HW193011   0.447   7.396   8.955  0.6350 -0.2282 -0.7051
29388SOL    HW293012   0.375   7.515   8.895  0.6379  0.0553 -0.1496
29389SOL     OW93013   9.551   7.635   1.626 -0.0675 -0.0746 -0.2549
29389SOL    HW193014   9.550   7.540   1.623 -1.5873 -0.0817 -0.0365
29389SOL    HW293015   9.618   7.661   1.563 -1.2951 -1.2223 -2.0588
29390SOL     OW93016   9.531   6.681   9.424 -0.9026  0.0406 -0.3470
29390SOL    HW193017   9.579   6.734   9.488 -0.8291 -0.8998  0.3871
29390SOL    HW293018   9.594   6.664   9.354 -0.7867  0.5254 -0.3607
29391SOL     OW93019   8.425   7.777   9.877  0.3680 -0.0156 -0.4474
29391SOL    HW193020   8.426   7.872   9.864  0.8755 -0.1165 -1.1951
29391SOL    HW293021   8.517   7.753   9.887  0.1081 -0.1723  1.8247
29392SOL     OW93022   0.380   4.393   1.190 -0.0380 -0.8702  0.2355
29392SOL    HW193023   0.434   4.380   1.268  0.0454  0.4314  0.4020
29392SOL    HW293024   0.296   4.354   1.212  0.0935 -0.8079  0.8499
29393SOL     OW93025   9.167   7.831   1.528 -0.3168 -0.0580 -0.1176
29393SOL    HW193026   9.175   7.737   1.512 -2.6099 -0.3617  0.3697
29393SOL    HW293027   9.193   7.842   1.619  0.1944 -0.1797 -0.2462
29394SOL     OW93028   0.039   5.838   9.807 -0.2837 -0.4573 -0.1287
29394SOL    HW193029   0.087   5.766   9.848 -1.0931 -0.7234  0.3580
29394SOL    HW293030  -0.022   5.795   9.748 -0.7776 -0.1711  0.1755
29395SOL     OW93031   9.018   6.795   1.380  0.1654 -0.3981 -0.2496
29395SOL    HW193032   9.102   6.763   1.348  1.4783  3.1118 -0.4586
29395SOL    HW293033   9.032   6.811   1.474 -0.2678  0.1425 -0.2731
29396SOL     OW93034   8.915   6.148   1.536  0.1930 -0.1999 -0.2222
29396SOL    HW193035   8.976   6.197   1.482 -0.4852 -0.6894 -1.4637
29396SOL    HW293036   8.829   6.184   1.513 -0.2498 -1.5098 -0.6693
29397SOL     OW93037   0.353   3.157   0.165 -0.8955 -0.2000 -0.7729
29397SOL    HW193038   0.445   3.137   0.149 -1.0337  0.3653 -2.4030
29397SOL    HW293039   0.352   3.250   0.189 -0.8591 -0.6682  1.1655
29398SOL     OW93040   9.640   6.142   2.237 -0.8568  0.1217 -0.3767
29398SOL    HW193041   9.645   6.094   2.320 -1.2286 -0.4446 -0.6757
29398SOL    HW293042   9.724   6.125   2.194 -1.0055 -0.3047 -0.5009
29399SOL     OW93043   9.187   6.980   0.290  0.5565  0.7110  0.5580
29399SOL    HW193044   9.164   7.068   0.320  1.4273  0.6739  1.3871
29399SOL    HW293045   9.164   6.923   0.363  0.3305  0.3010  0.1632
29400SOL     OW93046   0.393   6.669   3.244  0.4698  0.0662  0.2672
29400SOL    HW193047   0.366   6.716   3.165 -1.3226 -0.4972  0.5276
29400SOL    HW293048   0.344   6.711   3.314 -0.7141 -1.8239  0.5768
29401SOL     OW93049   9.047   7.119   1.194  0.0690  0.4452 -0.0481
29401SOL    HW193050   9.041   7.084   1.283  0.7646 -0.8838 -0.5122
29401SOL    HW293051   8.991   7.061   1.142  0.7682  0.3737 -0.7253
29402SOL     OW93052   9.517   6.969   3.082  0.3429  0.2438 -0.2276
29402SOL    HW193053   9.437   6.927   3.049  0.6076  0.1485 -0.7616
29402SOL    HW293054   9.551   7.017   3.006 -1.1295  3.2493  0.9135
29403SOL     OW93055   1.559   8.296   3.731 -0.2730  0.0157  0.6635
29403SOL    HW193056   1.581   8.269   3.820  0.1343 -1.7907  0.0312
29403SOL    HW293057   1.643   8.326   3.694  0.1518 -1.9450 -0.0304
29404SOL     OW93058   9.812   7.291   2.835  0.4868 -0.0783 -0.3290
29404SOL    HW193059   9.762   7.345   2.774  0.2965 -1.7213 -1.6476
29404SOL    HW293060   9.902   7.294   2.803  0.3758 -1.0005 -0.7289
29405SOL     OW93061   9.519   6.614   3.130  0.6074 -0.2235 -0.4324
29405SOL    HW193062   9.473   6.532   3.151 -0.5207  0.3492 -0.6124
29405SOL    HW293063   9.459   6.660   3.071  1.2252  0.7453 -0.3125
29406SOL     OW93064   8.435   7.190   1.656 -0.3097  0.6940  0.5447
29406SOL    HW193065   8.418   7.107   1.702 -1.7087  0.5436 -0.2215
29406SOL    HW293066   8.504   7.231   1.707 -0.8919 -0.0912  2.0171
29407SOL     OW93067   9.133   7.361   1.993  0.3221 -0.4569 -0.4074
29407SOL    HW193068   9.060   7.346   1.932 -0.0028  2.3140 -0.7408
29407SOL    HW293069   9.205   7.391   1.937  0.7198 -0.0418  0.3210
29408SOL     OW93070   0.356   5.742   3.944 -0.4447  0.0492 -0.0209
29408SOL    HW193071   0.394   5.813   3.995 -1.0205  0.1820  0.2267
29408SOL    HW293072   0.420   5.725   3.875  0.1058  0.2001  0.4522
29409SOL     OW93073   1.204   6.354   3.693  0.3475  0.2402 -0.3725
29409SOL    HW193074   1.190   6.448   3.706  0.0938  0.4616 -2.1016
29409SOL    HW293075   1.289   6.349   3.649  1.5847 -0.5193  2.0315
29410SOL     OW93076   9.650   8.491   2.046  0.6498 -0.3020  0.3640
29410SOL    HW193077   9.625   8.576   2.009  0.6895 -0.6145 -0.3908
29410SOL    HW293078   9.729   8.509   2.096  0.6254  0.1139  0.2562
29411SOL     OW93079   0.201   6.777   3.373  0.3406 -0.3662  0.2814
29411SOL    HW193080   0.117   6.805   3.335  0.3070 -1.2624 -0.3055
29411SOL    HW293081   0.179   6.750   3.462 -0.3785 -2.6450 -0.5589
29412SOL     OW93082   0.487   4.685   2.252  0.1597 -0.0666 -0.2059
29412SOL    HW193083   0.448   4.741   2.319 -0.9194 -0.1916 -0.7060
29412SOL    HW293084   0.575   4.667   2.283  0.5236  1.9435 -0.0563
29413SOL     OW93085   9.963   6.918   3.050 -0.0058 -0.1460  0.5925
29413SOL    HW193086  10.027   6.986   3.028 -0.7183  0.5334  0.5852
29413SOL    HW293087   9.953   6.868   2.970  1.6730 -1.2318  1.0254
29414SOL     OW93088   9.415   6.792   1.897  0.2788  0.2617  0.0373
29414SOL    HW193089   9.446   6.774   1.808  0.4287  1.2463 -0.1155
29414SOL    HW293090   9.440   6.882   1.913 -1.0542  0.5569  0.5329
29415SOL     OW93091   9.379   5.558   3.588  0.0086  0.3423 -0.1052
29415SOL    HW193092   9.458   5.605   3.617 -0.5236  1.4444 -0.4230
29415SOL    HW293093   9.409   5.508   3.512  0.6876 -0.2091  0.5086
29416SOL     OW93094   0.636   8.058   4.745 -0.0806 -0.5088 -0.4847
29416SOL    HW193095   0.691   8.075   4.669 -0.4792 -1.5126 -0.9983
29416SOL    HW293096   0.554   8.024   4.709 -1.1115  1.1114  0.2682
29417SOL     OW93097   9.309   8.101   1.185 -0.8440  0.3677 -0.0979
29417SOL    HW193098   9.375   8.170   1.176 -1.6311  1.4813  2.3851
29417SOL    HW293099   9.226   8.148   1.195 -1.4387 -0.9292  1.2834
29418SOL     OW93100   9.752   6.290   3.021  0.3857  0.3444 -0.1488
29418SOL    HW193101   9.730   6.364   3.078 -0.0583  0.1315 -0.0472
29418SOL    HW293102   9.692   6.221   3.047  0.8067 -0.0561 -0.2437
29419SOL     OW93103   0.807   7.339   5.902  0.2160  0.4642  0.4934
29419SOL    HW193104   0.739   7.407   5.906  0.6168  0.8082  1.6607
29419SOL    HW293105   0.781   7.284   5.828 -0.9865  0.9676  0.5235
29420SOL     OW93106   9.999   5.547   4.069 -0.2359  0.5341  0.0784
29420SOL    HW193107  10.042   5.463   4.056 -1.5457 -0.2279  0.5378
29420SOL    HW293108  10.052   5.610   4.020  1.2977 -0.3937  0.5283
29421SOL     OW93109   9.124   7.381   1.220 -0.3250  0.5680 -0.4524
29421SOL    HW193110   9.165   7.399   1.136  0.7877 -0.2355 -0.0920
29421SOL    HW293111   9.068   7.305   1.204 -0.5613  0.7770 -0.6079
29422SOL     OW93112   9.534   7.798   5.767  0.1164  0.2973  0.5342
29422SOL    HW193113   9.466   7.858   5.736  0.5327  0.7000  0.3933
29422SOL    HW293114   9.604   7.856   5.798  0.0450 -0.1030  1.4618
29423SOL     OW93115   0.144   6.329   1.435  0.9745 -0.3723 -0.8814
29423SOL    HW193116   0.164   6.345   1.343 -0.0318 -0.9664 -1.2128
29423SOL    HW293117   0.050   6.349   1.443  0.8917 -1.0341 -0.1609
29424SOL     OW93118   9.378   5.614   2.000 -0.3039  0.8950 -0.3447
29424SOL    HW193119   9.462   5.617   1.954 -0.3401 -0.0348 -0.4733
29424SOL    HW293120   9.321   5.563   1.943 -0.8423  1.1730 -0.0613
29425SOL     OW93121   9.821   5.619   1.976 -0.7070 -0.4652  0.6606
29425SOL    HW193122   9.775   5.679   2.035 -0.1447  0.8939 -0.2526
29425SOL    HW293123   9.913   5.644   1.984 -0.2557 -2.3300  1.5306
29426SOL     OW93124   0.243   7.235   3.091  0.2340 -0.1945 -0.0729
29426SOL    HW193125   0.210   7.191   3.013  0.1362 -0.7293  0.2717
29426SOL    HW293126   0.169   7.289   3.121 -0.0195 -0.6746  0.1626
29427SOL     OW93127   9.296   6.906   3.331 -0.8744 -0.7335  0.2553
29427SOL    HW193128   9.298   6.831   3.390 -0.5586 -2.0149 -1.3199
29427SOL    HW293129   9.363   6.965   3.365 -1.7719 -0.7430  2.0519
29428SOL     OW93130   9.481   6.736   2.286 -0.8139 -0.4527  0.3300
29428SOL    HW193131   9.401   6.748   2.235 -0.2824 -0.6495 -0.5589
29428SOL    HW293132   9.536   6.679   2.232 -0.2262 -0.6326  1.1049
29429SOL     OW93133   9.587   7.106   2.501  0.6922  0.2028 -0.0066
29429SOL    HW193134   9.602   7.122   2.408 -1.9324  1.3926 -0.2767
29429SOL    HW293135   9.675   7.096   2.538  1.7178 -1.9548 -2.8622
29430SOL     OW93136   9.380   6.603   4.046  0.2411 -0.0752  0.6019
29430SOL    HW193137   9.427   6.558   4.116 -0.8776 -1.8394  0.2628
29430SOL    HW293138   9.438   6.598   3.971  0.6193  0.0684  0.8879
29431SOL     OW93139   9.059   5.939   2.944 -0.4825  0.5727 -1.0610
29431SOL    HW193140   9.091   5.867   2.998 -1.0891  0.4116 -0.9128
29431SOL    HW293141   8.986   5.902   2.894  0.5788  0.4998 -2.5962
29432SOL     OW93142   9.489   6.073   4.036 -0.8983 -0.5021 -0.2530
29432SOL    HW193143   9.564   6.097   4.091 -0.2860 -2.5398 -0.1607
29432SOL    HW293144   9.461   6.156   3.997  2.8132  0.0205 -2.0526
29433SOL     OW93145   0.775   7.786   2.461  0.4089  0.3653 -0.2770
29433SOL    HW193146   0.708   7.723   2.433  2.0328 -1.6284  0.2131
29433SOL    HW293147   0.809   7.823   2.379  0.8125 -0.8565 -0.6685
29434SOL     OW93148   9.330   6.692   3.505  0.1696 -0.5848  0.3427
29434SOL    HW193149   9.425   6.694   3.500  0.2803  1.9726  2.1744
29434SOL    HW293150   9.311   6.646   3.587 -0.2793 -2.9660 -1.0471
29435SOL     OW93151   7.956   6.397   2.898 -0.2736 -0.2605 -0.8396
29435SOL    HW193152   7.921   6.486   2.897 -0.5742 -0.3735 -0.5512
29435SOL    HW293153   8.019   6.397   2.970  0.6298  0.0600 -1.6315
29436SOL     OW93154   0.769   5.870   3.756  0.3046  0.0694 -0.2683
29436SOL    HW193155   0.722   5.946   3.789 -1.7865  0.1252 -3.1971
29436SOL    HW293156   0.701   5.807   3.735  1.8711 -1.6908 -0.2059
29437SOL     OW93157   8.633   7.021   2.102 -0.2994 -0.0276  0.2404
29437SOL    HW193158   8.674   6.938   2.077 -1.5149 -0.5709 -0.0012
29437SOL    HW293159   8.668   7.040   2.189  0.8604 -0.1979 -0.1756
29438SOL     OW93160   1.290   6.369   3.000  0.0171  0.4678 -0.0396
29438SOL    HW193161   1.253   6.413   2.924 -1.1210  0.2506  0.3771
29438SOL    HW293162   1.237   6.290   3.011  1.2402 -0.3675 -0.0245
29439SOL     OW93163   9.110   6.915   3.096 -0.0440 -0.1266 -0.1216
29439SOL    HW193164   9.186   6.879   3.143  0.1116 -0.7084 -0.8005
29439SOL    HW293165   9.064   6.838   3.063 -0.3616  0.2619 -0.5930
29440SOL     OW93166   8.619   7.537   3.260 -0.4366 -0.1396  0.0770
29440SOL    HW193167   8.657   7.599   3.323 -1.1998 -0.6282  1.0150
29440SOL    HW293168   8.618   7.586   3.177  0.5433  0.5126  0.4326
29441SOL     OW93169   1.113   7.797   3.748 -0.5276  0.2229  0.0366
29441SOL    HW193170   1.108   7.715   3.797  0.6473  0.4225  0.5035
29441SOL    HW293171   1.029   7.840   3.764 -1.7137 -1.4850 -1.2893
29442SOL     OW93172   9.330   6.313   4.406  0.6698  0.0335 -0.1781
29442SOL    HW193173   9.293   6.391   4.365 -0.0216  0.7661  1.7906
29442SOL    HW293174   9.284   6.305   4.490  2.2495 -1.2519  0.6057
29443SOL     OW93175   2.495   5.480   2.801  0.0678 -0.4880  0.4433
29443SOL    HW193176   2.491   5.499   2.707 -0.9243  0.1253  0.5984
29443SOL    HW293177   2.572   5.527   2.832 -0.5956  0.7476  0.2478
29444SOL     OW93178   9.565   7.094   2.234  0.0102  0.1348 -0.2939
29444SOL    HW193179   9.610   7.012   2.213  0.4207 -0.0032  1.0771
29444SOL    HW293180   9.613   7.161   2.185 -0.9326 -0.5550 -2.1983
29445SOL     OW93181   9.574   6.070   2.981 -0.2886  0.0579 -0.1340
29445SOL    HW193182   9.603   5.987   3.019  0.4485  0.7871  0.9121
29445SOL    HW293183   9.479   6.063   2.978 -0.2500 -0.6619  0.3372
29446SOL     OW93184   0.056   6.628   3.582 -0.1689 -0.1717  0.8002
29446SOL    HW193185  -0.011   6.619   3.514  2.1259  0.1609 -1.5821
29446SOL    HW293186   0.030   6.708   3.629 -0.0847  1.4227 -1.7314
29447SOL     OW93187   0.082   6.440   4.614 -0.0619 -0.7057 -0.4138
29447SOL    HW193188  -0.008   6.470   4.628  0.4461  0.5208  0.2227
29447SOL    HW293189   0.074   6.373   4.545 -1.4536 -0.5893 -0.3773
29448SOL     OW93190   0.248   7.706   4.091 -0.7997 -0.4318  0.0147
29448SOL    HW193191   0.232   7.730   4.000  1.9620  0.9711 -0.1718
29448SOL    HW293192   0.240   7.611   4.093 -2.1801 -0.3688 -1.3923
29449SOL     OW93193   0.128   7.820   2.836 -0.1165  0.1291 -0.2337
29449SOL    HW193194   0.224   7.822   2.832 -0.1299  1.0302 -0.2180
29449SOL    HW293195   0.106   7.727   2.835  0.7539 -0.0810 -0.3882
29450SOL     OW93196   9.991   6.402   2.425  0.2741  0.2529  0.3475
29450SOL    HW193197  10.027   6.398   2.336 -1.3970 -0.3797 -0.3402
29450SOL    HW293198   9.970   6.495   2.437 -0.1141  0.2388 -0.1901
29451SOL     OW93199   0.362   5.515   2.255  0.1338 -0.9243  0.3352
29451SOL    HW193200   0.397   5.440   2.304 -1.8257 -1.4252  1.0341
29451SOL    HW293201   0.267   5.507   2.264 -0.1439  0.9596 -0.6355
29452SOL     OW93202   1.445   6.924   3.675 -0.0883 -0.1005 -0.5541
29452SOL    HW193203   1.420   6.832   3.678 -0.9197  0.1356 -0.1765
29452SOL    HW293204   1.364   6.972   3.694 -0.0446  0.7528 -2.4261
29453SOL     OW93205   9.386   5.583   1.413  0.6827  0.2456  0.2270
29453SOL    HW193206   9.473   5.543   1.415  1.1679  1.2885  0.4137
29453SOL    HW293207   9.393   5.652   1.347  0.5777  1.6263  1.6424
29454SOL     OW93208   9.903   5.976   2.400 -0.8982 -0.3978  0.5824
29454SOL    HW193209   9.926   5.973   2.307  1.6658 -2.9125  1.2394
29454SOL    HW293210   9.865   5.890   2.418 -1.8225  0.2457  1.7691
29455SOL     OW93211   9.429   6.599   5.193  0.4375 -0.0405  0.6582
29455SOL    HW193212   9.396   6.634   5.110  1.1371  1.5782  1.0440
29455SOL    HW293213   9.378   6.644   5.260 -0.5082 -1.7405  1.1245
29456SOL     OW93214   9.657   7.817   4.987 -0.2690 -0.1053 -0.0640
29456SOL    HW193215   9.730   7.758   4.968 -0.0902  0.1323 -0.1125
29456SOL    HW293216   9.653   7.876   4.912 -0.8445 -0.4484 -0.3105
29457SOL     OW93217   9.465   6.106   2.524 -0.6501  0.0526 -0.1935
29457SOL    HW193218   9.377   6.084   2.555 -1.2076 -0.1327 -1.8370
29457SOL    HW293219   9.519   6.033   2.552 -0.7857  0.6844  1.7907
29458SOL     OW93220   9.544   8.327   3.085 -0.2260  0.1498 -0.2041
29458SOL    HW193221   9.471   8.269   3.108 -3.2782  3.2845 -1.6407
29458SOL    HW293222   9.564   8.305   2.994 -0.2775  0.2384 -0.2366
29459SOL     OW93223   7.988   5.464   2.375  0.2720 -0.2848  0.0235
29459SOL    HW193224   8.069   5.512   2.356 -1.0166  1.6529 -0.8068
29459SOL    HW293225   7.953   5.443   2.288 -0.7501  0.0428  0.3514
29460SOL     OW93226   9.428   5.112   2.781  0.2022  0.1179  0.1636
29460SOL    HW193227   9.456   5.198   2.749 -0.0108 -0.1092 -0.6303
29460SOL    HW293228   9.342   5.129   2.821 -0.9639 -0.1546 -2.1554
29461SOL     OW93229   9.945   6.461   4.309  0.2449 -0.6052  0.6337
29461SOL    HW193230   9.906   6.378   4.281  0.6361 -1.2600  2.0257
29461SOL    HW293231   9.895   6.486   4.386  0.9932 -0.2097  0.9926
29462SOL     OW93232   9.797   6.488   1.912  0.4090  0.1540  0.1777
29462SOL    HW193233   9.806   6.392   1.913 -0.9085  0.0061 -0.8710
29462SOL    HW293234   9.740   6.505   1.838  1.9318  1.8856 -0.6270
29463SOL     OW93235   8.805   7.951   1.610 -0.0896  0.2169  0.1647
29463SOL    HW193236   8.843   8.006   1.542 -1.8514 -1.2516 -2.0933
29463SOL    HW293237   8.836   7.863   1.589 -1.1777 -0.3409  0.8786
29464SOL     OW93238   0.710   7.424   4.804  0.4338 -0.7238 -0.4759
29464SOL    HW193239   0.753   7.450   4.886  0.7560  1.2187 -1.2204
29464SOL    HW293240   0.694   7.507   4.759 -0.7232 -1.6956 -1.8976
29465SOL     OW93241   0.398   7.123   3.313 -0.0638  0.1850 -0.3500
29465SOL    HW193242   0.333   7.141   3.245 -0.3172 -0.4147 -0.2698
29465SOL    HW293243   0.482   7.131   3.268 -0.2164  0.2222 -0.6328
29466SOL     OW93244   0.350   7.425   3.754 -0.1709 -0.2410 -0.2707
29466SOL    HW193245   0.409   7.424   3.678 -0.8797 -3.4454 -0.8292
29466SOL    HW293246   0.278   7.482   3.728  2.1661  3.0617  0.1074
29467SOL     OW93247   8.909   3.990   7.796 -0.0920  0.3966 -0.1551
29467SOL    HW193248   8.820   4.018   7.776 -0.2056 -0.5103 -0.9952
29467SOL    HW293249   8.956   3.995   7.712 -0.0808 -1.6855 -0.3004
29468SOL     OW93250   9.571   9.167   5.256  0.7210  0.5108  0.2970
29468SOL    HW193251   9.626   9.204   5.187  0.0997  1.2902  0.2061
29468SOL    HW293252   9.609   9.200   5.338 -0.0656  1.7219  0.2005
29469SOL     OW93253   0.592   6.921   5.606 -0.1706  0.4546 -0.1773
29469SOL    HW193254   0.650   6.872   5.547 -1.1167 -1.1682  0.2040
29469SOL    HW293255   0.610   6.886   5.693 -2.7406 -1.1484 -0.2264
29470SOL     OW93256   0.161   9.022   5.454  0.1891 -0.2212  0.0543
29470SOL    HW193257   0.251   9.051   5.442  0.8435 -1.5874  1.4618
29470SOL    HW293258   0.108   9.095   5.423  1.8019  2.2413  2.8175
29471SOL     OW93259   9.396   6.944   4.080 -0.0876  0.1027 -0.0775
29471SOL    HW193260   9.336   6.960   4.006 -0.1951  1.3892  0.2828
29471SOL    HW293261   9.465   7.009   4.069  0.4271 -0.3586  0.4083
29472SOL     OW93262   0.160   6.495   4.106  0.7938  0.0272  0.5245
29472SOL    HW193263   0.131   6.406   4.129 -0.1996  0.1230 -0.2753
29472SOL    HW293264   0.090   6.551   4.139  1.3797  0.5054  0.9467
29473SOL     OW93265   1.069   7.387   4.119  0.5905  0.2434  0.1688
29473SOL    HW193266   1.103   7.378   4.030  2.0584  0.0727  0.7335
29473SOL    HW293267   1.023   7.471   4.119 -0.9244 -0.5533 -1.2166
29474SOL     OW93268   8.773   5.121   2.895 -0.1419 -0.1792  0.0320
29474SOL    HW193269   8.718   5.197   2.911 -0.5976 -0.5617  0.2835
29474SOL    HW293270   8.791   5.085   2.982  1.0262  0.3136 -0.0036
29475SOL     OW93271   7.762   6.218   5.821 -0.1252 -0.1700  0.6309
29475SOL    HW193272   7.772   6.174   5.905 -1.8689 -0.6054  0.6273
29475SOL    HW293273   7.799   6.157   5.757  2.3119  0.6839  1.1937
29476SOL     OW93274   9.751   6.076   6.034  0.1794 -0.4687  0.1603
29476SOL    HW193275   9.819   6.019   6.000  0.8842 -0.4829  1.5642
29476SOL    HW293276   9.730   6.039   6.120  0.0656  0.9034  0.7297
29477SOL     OW93277   9.420   5.678   5.335  0.0683  0.4416 -0.2863
29477SOL    HW193278   9.415   5.608   5.399  0.4143  2.2480  1.7985
29477SOL    HW293279   9.330   5.706   5.321  0.1009  0.9491  0.4801
29478SOL     OW93280   9.487   5.422   5.538 -0.8804  0.3888  0.4032
29478SOL    HW193281   9.469   5.347   5.481 -2.4408  0.1869  1.1625
29478SOL    HW293282   9.540   5.385   5.609 -0.8934  0.1968  0.3153
29479SOL     OW93283   9.991   6.948   3.324 -0.1089  0.3957 -0.6588
29479SOL    HW193284   9.908   6.958   3.371  0.1273 -0.7356  0.0260
29479SOL    HW293285   9.965   6.927   3.234 -0.5732  0.0423 -0.4447
29480SOL     OW93286   9.195   7.014   5.151 -0.0910 -0.4925 -0.3550
29480SOL    HW193287   9.162   6.963   5.077  0.7747 -2.3262  0.5050
29480SOL    HW293288   9.117   7.035   5.202 -0.5326 -0.3603 -1.0764
29481SOL     OW93289   9.161   6.738   4.534  0.0641 -0.2880 -0.1662
29481SOL    HW193290   9.068   6.733   4.557  0.5422 -0.8156  1.7290
29481SOL    HW293291   9.175   6.831   4.514 -0.9481 -0.2715 -0.8505
29482SOL     OW93292   0.488   7.879   4.012 -0.2755  0.0805  0.8035
29482SOL    HW193293   0.405   7.845   3.977 -1.1374  2.0729  0.8476
29482SOL    HW293294   0.554   7.819   3.979 -1.5623 -0.5734 -0.6412
29483SOL     OW93295   0.172   8.088   5.148 -0.2391 -0.6691  0.3696
29483SOL    HW193296   0.197   8.167   5.195  1.6769 -0.5796 -0.7101
29483SOL    HW293297   0.093   8.112   5.100 -0.1475  0.3330  0.7140
29484SOL     OW93298   9.849   6.267   4.733  0.4096  0.2687 -0.3585
29484SOL    HW193299   9.814   6.243   4.648  0.0222  0.8599 -0.3743
29484SOL    HW293300   9.832   6.361   4.740  3.9506  1.0597 -1.2849
29485SOL     OW93301   9.485   6.093   4.648  0.3027 -0.0485 -0.0087
29485SOL    HW193302   9.414   6.156   4.655  0.3986 -0.1317  1.9576
29485SOL    HW293303   9.557   6.141   4.606 -0.8848  0.0329 -2.0227
29486SOL     OW93304   9.779   7.056   3.457  0.5318  0.3934 -0.1272
29486SOL    HW193305   9.764   7.115   3.530 -0.9191  1.0281 -0.9286
29486SOL    HW293306   9.713   7.080   3.392  0.1368 -1.8701 -0.6014
29487SOL     OW93307   9.203   6.149   2.482 -0.2582  0.2756  0.0538
29487SOL    HW193308   9.251   6.166   2.401  2.2761 -0.1163  1.4254
29487SOL    HW293309   9.171   6.059   2.474  1.3005 -0.2906  0.1285
29488SOL     OW93310   8.914   3.900   5.215  0.2136 -0.2206 -0.2224
29488SOL    HW193311   8.948   3.990   5.211 -0.7017  0.0713 -2.0573
29488SOL    HW293312   8.880   3.891   5.304  2.5989  0.3931  0.7775
29489SOL     OW93313   9.636   8.263   4.134  0.7570 -0.0818  0.1539
29489SOL    HW193314   9.597   8.211   4.064  1.3976  0.8909 -0.9180
29489SOL    HW293315   9.692   8.326   4.090 -0.6127  2.0671  1.3770
29490SOL     OW93316   9.941   5.992   4.316  0.1292  0.3161  0.7691
29490SOL    HW193317   9.918   5.981   4.408 -1.2084 -0.4221  0.3546
29490SOL    HW293318   9.996   5.915   4.297  2.0383  1.4670  1.4393
29491SOL     OW93319   9.375   5.145   6.047 -0.5239  0.0313  0.3116
29491SOL    HW193320   9.359   5.103   6.132  0.4923  0.3744  0.6832
29491SOL    HW293321   9.357   5.077   5.983 -0.8179 -0.3816  0.8267
29492SOL     OW93322   0.051   5.510   3.259  0.0190  0.4595  0.1913
29492SOL    HW193323   0.003   5.593   3.256 -0.3269  0.2585  0.2738
29492SOL    HW293324   0.091   5.503   3.172 -1.0649  0.0405 -0.2825
29493SOL     OW93325   9.344   6.097   6.179  0.4181 -0.2352  0.6359
29493SOL    HW193326   9.345   6.017   6.232  0.4436 -0.1748  0.7271
29493SOL    HW293327   9.355   6.168   6.243  0.5317 -0.1679  0.5411
29494SOL     OW93328   9.465   6.051   4.961 -0.0351 -0.6077 -0.4346
29494SOL    HW193329   9.432   6.140   4.948 -0.3620 -0.5320  0.8146
29494SOL    HW293330   9.430   6.001   4.887 -2.4171 -0.3692  0.4838
29495SOL     OW93331   0.050   4.855   3.495  0.1779 -0.3692 -0.0917
29495SOL    HW193332   0.039   4.807   3.413 -0.5143 -0.6108  0.1377
29495SOL    HW293333   0.110   4.802   3.547  0.8100 -0.0920 -0.5392
29496SOL     OW93334   0.121   5.550   5.315  0.5878 -0.6593  0.7441
29496SOL    HW193335   0.158   5.462   5.319  0.5695 -0.7926 -1.3112
29496SOL    HW293336   0.033   5.540   5.351  1.0916 -1.1709  1.8623
29497SOL     OW93337   9.371   8.865   5.243  0.1550  0.1339 -0.0748
29497SOL    HW193338   9.367   8.862   5.148  2.0533 -1.6439 -0.1186
29497SOL    HW293339   9.311   8.795   5.272 -0.3962  0.6517  0.0560
29498SOL     OW93340   9.344   7.048   4.574 -0.0110 -0.1277 -0.1104
29498SOL    HW193341   9.291   7.106   4.628 -0.6674  0.1862 -1.0990
29498SOL    HW293342   9.284   7.014   4.508  0.8660 -0.2531 -0.8575
29499SOL     OW93343   9.342   7.261   5.092  0.0393  0.0443  0.3425
29499SOL    HW193344   9.300   7.183   5.130  1.3101 -0.0534  1.5980
29499SOL    HW293345   9.435   7.246   5.105  0.2719  2.1455  1.3092
29500SOL     OW93346   9.959   8.423   5.603 -0.4152 -0.2018  0.8546
29500SOL    HW193347  10.002   8.397   5.685 -0.1416 -1.0209  0.4565
29500SOL    HW293348   9.902   8.496   5.628  2.4313  2.0413  1.1209
29501SOL     OW93349   8.740   6.474   4.958  0.1817  0.2277  0.3081
29501SOL    HW193350   8.741   6.570   4.960 -2.3104  0.3067 -0.9394
29501SOL    HW293351   8.767   6.451   4.870  2.6141 -0.2990  1.1620
29502SOL     OW93352   0.653   4.820   5.250  0.0795 -0.2772 -0.1814
29502SOL    HW193353   0.663   4.899   5.303  0.8836  0.7303 -1.7835
29502SOL    HW293354   0.722   4.762   5.280  0.4312  0.2271  0.0024
29503SOL     OW93355   9.522   6.630   5.695  0.3354 -0.3952 -0.0096
29503SOL    HW193356   9.441   6.652   5.742  1.6199  1.4425  1.4258
29503SOL    HW293357   9.523   6.689   5.620  1.5377  1.3794  1.3513
29504SOL     OW93358   9.892   3.372   4.716  0.5527 -0.2728 -0.2428
29504SOL    HW193359   9.868   3.462   4.696 -0.3727 -0.6652 -0.9602
29504SOL    HW293360   9.839   3.350   4.793  0.1739 -0.4579 -0.5538
29505SOL     OW93361   9.133   6.443   4.675  0.0080  0.2399  0.5198
29505SOL    HW193362   9.204   6.474   4.731  0.0975  1.3489 -0.1932
29505SOL    HW293363   9.071   6.517   4.672 -0.9611 -0.5502  0.7750
29506SOL     OW93364   9.603   5.658   5.694  0.0335 -0.8186  0.3376
29506SOL    HW193365   9.575   5.581   5.644 -0.9250  0.0523 -0.4761
29506SOL    HW293366   9.522   5.707   5.711  0.6166 -0.0638  0.9806
29507SOL     OW93367   8.639   7.307   3.439  0.6122 -0.3312  0.0568
29507SOL    HW193368   8.702   7.366   3.481  0.1670  0.7908 -0.8327
29507SOL    HW293369   8.610   7.354   3.361 -1.5503 -0.6928  0.6098
29508SOL     OW93370   0.468   6.341   3.409  0.5350 -0.4883  0.8749
29508SOL    HW193371   0.397   6.394   3.447 -0.3560 -0.8821 -0.2181
29508SOL    HW293372   0.490   6.279   3.478  0.5734  0.3502  1.6288
29509SOL     OW93373   9.563   7.219   5.687  0.4472  0.0055 -0.0722
29509SOL    HW193374   9.619   7.141   5.683 -0.3357 -0.5433 -0.3002
29509SOL    HW293375   9.489   7.198   5.631  0.0863  0.8003  0.1143
29510SOL     OW93376   9.199   5.176   4.973 -0.0646 -0.5261  0.3891
29510SOL    HW193377   9.159   5.131   4.899 -0.5751 -1.3306  1.1284
29510SOL    HW293378   9.264   5.234   4.935  2.9740 -4.2924 -0.4053
29511SOL     OW93379   0.234   5.627   3.635  0.4161 -0.2853 -0.9494
29511SOL    HW193380   0.206   5.535   3.636  1.0131 -0.5049 -2.3382
29511SOL    HW293381   0.326   5.625   3.661  0.6153 -0.1691 -1.6204
29512SOL     OW93382   8.400   6.710   4.479 -0.0657  0.3467  0.4083
29512SOL    HW193383   8.306   6.695   4.471 -0.0430  1.1545 -1.7858
29512SOL    HW293384   8.412   6.801   4.452  1.1511  0.8188  2.4256
29513SOL     OW93385   8.836   5.179   3.940  0.7555  0.1131  0.3222
29513SOL    HW193386   8.923   5.189   3.979  0.5077  3.0685  0.2667
29513SOL    HW293387   8.838   5.236   3.862 -0.9653 -0.3835 -0.1070
29514SOL     OW93388   9.322   6.316   5.203  0.0087 -0.5094 -0.2361
29514SOL    HW193389   9.343   6.318   5.110  0.1310  0.7501 -0.1883
29514SOL    HW293390   9.275   6.398   5.219  0.9642 -0.1863  1.0327
29515SOL     OW93391   0.535   5.835   4.798 -0.4789  0.0201 -0.1247
29515SOL    HW193392   0.526   5.767   4.731 -0.5910  1.4779 -1.6395
29515SOL    HW293393   0.610   5.808   4.851 -0.2205 -1.0131 -1.0000
29516SOL     OW93394   1.708   6.468   4.950  0.2466 -0.1167  0.0375
29516SOL    HW193395   1.698   6.420   5.032 -2.0477 -0.2923 -0.3259
29516SOL    HW293396   1.779   6.530   4.967  3.3326 -3.6422  0.4906
29517SOL     OW93397   7.560   5.480   3.437  0.1148 -0.4286  0.3873
29517SOL    HW193398   7.629   5.521   3.488  1.0727 -0.1114 -1.1272
29517SOL    HW293399   7.578   5.386   3.443  1.1556 -0.3013 -0.6616
29518SOL     OW93400   9.020   7.248   5.768 -0.6295 -0.0513  0.1146
29518SOL    HW193401   9.002   7.335   5.804  2.1646  0.3654  0.5613
29518SOL    HW293402   9.096   7.216   5.817 -0.2133 -1.8017 -1.6062
29519SOL     OW93403   0.999   6.305   3.880  0.3908 -0.0689  0.4492
29519SOL    HW193404   1.055   6.241   3.923  1.1358  0.3714  0.1383
29519SOL    HW293405   1.054   6.344   3.813 -0.7987 -0.8260 -0.9960
29520SOL     OW93406   0.143   6.790   3.866  0.1286 -0.0351  0.7314
29520SOL    HW193407   0.165   6.697   3.855  0.1793  0.0214  0.3573
29520SOL    HW293408   0.054   6.789   3.902 -1.0712 -0.1897 -2.1104
29521SOL     OW93409   8.294   5.427   6.015 -1.3958 -0.4119  0.2987
29521SOL    HW193410   8.248   5.510   6.000 -1.0740 -0.2535  0.1815
29521SOL    HW293411   8.386   5.452   6.021 -1.3120 -0.7470  0.3906
29522SOL     OW93412   0.516   5.647   4.589 -0.4403 -0.0161  0.7470
29522SOL    HW193413   0.527   5.556   4.615  1.6126  0.1727  0.6778
29522SOL    HW293414   0.541   5.648   4.496 -0.8217  0.5388  0.6493
29523SOL     OW93415   7.596   6.155   3.561  0.3124 -0.2366 -0.2857
29523SOL    HW193416   7.501   6.144   3.556  0.2001  1.1295 -1.3998
29523SOL    HW293417   7.631   6.072   3.529 -0.5077 -0.7303  0.0933
29524SOL     OW93418   9.767   5.936   3.207  0.4812 -0.5434 -0.2324
29524SOL    HW193419   9.692   5.880   3.186 -1.5064  1.2476  1.8434
29524SOL    HW293420   9.755   5.958   3.299  2.8315  0.9252 -0.2466
29525SOL     OW93421   9.907   5.703   5.073  0.0298  0.2324  0.7091
29525SOL    HW193422   9.955   5.775   5.115 -0.1664 -0.3027  1.8848
29525SOL    HW293423   9.949   5.693   4.988 -0.0774  1.8775  0.4408
29526SOL     OW93424   8.572   7.044   5.197 -0.3057 -0.0600  0.4540
29526SOL    HW193425   8.485   7.005   5.198 -0.1564 -0.3897  0.5203
29526SOL    HW293426   8.563   7.122   5.252 -0.7708  0.3699 -0.2291
29527SOL     OW93427   0.778   6.784   3.972 -0.1578  0.3958 -0.7664
29527SOL    HW193428   0.799   6.830   3.891 -0.3530 -0.5559 -1.3593
29527SOL    HW293429   0.825   6.701   3.966  1.0583  0.9341  0.7735
29528SOL     OW93430   7.581   6.701   5.504  0.2657  0.3825 -0.7871
29528SOL    HW193431   7.548   6.709   5.414  1.5602 -0.5920 -1.3638
29528SOL    HW293432   7.657   6.644   5.496  0.2788  0.1475  0.9707
29529SOL     OW93433   0.381   8.087   4.617 -0.5687 -0.0574  0.3531
29529SOL    HW193434   0.329   8.156   4.658 -0.9862  0.1693 -0.5411
29529SOL    HW293435   0.430   8.132   4.549  0.1713 -0.4189  0.6422
29530SOL     OW93436   0.273   6.339   2.414 -0.0337 -0.5966  0.3798
29530SOL    HW193437   0.288   6.368   2.504 -0.7283 -1.6290  0.8418
29530SOL    HW293438   0.202   6.396   2.383 -0.7749 -1.1706  0.9785
29531SOL     OW93439   9.707   6.649   3.724 -0.3850  0.1155 -0.7844
29531SOL    HW193440   9.800   6.669   3.716 -0.2789 -0.3128 -0.6227
29531SOL    HW293441   9.665   6.700   3.655  0.0982 -0.6375 -1.6344
29532SOL     OW93442   9.845   6.058   3.776  0.6411 -0.4992  0.2837
29532SOL    HW193443   9.896   6.036   3.854 -0.5929 -2.1734  0.6593
29532SOL    HW293444   9.779   5.988   3.770 -1.3306  1.3582 -0.4123
29533SOL     OW93445   0.592   6.356   6.658  0.0203  0.0596  0.1743
29533SOL    HW193446   0.578   6.273   6.702 -0.8419 -1.5021 -2.8719
29533SOL    HW293447   0.516   6.366   6.600  1.3979  1.6603 -1.4266
29534SOL     OW93448   9.545   6.340   7.353  0.0099  0.1691 -0.1327
29534SOL    HW193449   9.587   6.422   7.325 -0.0597  0.8275  1.6553
29534SOL    HW293450   9.530   6.292   7.271  0.1200  1.9033 -1.1978
29535SOL     OW93451   0.024   5.839   5.961 -0.2167 -0.2472 -0.0304
29535SOL    HW193452  -0.056   5.821   5.911 -1.6600  0.7589  1.8608
29535SOL    HW293453   0.071   5.756   5.963 -1.3535 -0.9240 -0.9173
29536SOL     OW93454   1.593   7.559   6.277  0.1317  0.4760  0.1422
29536SOL    HW193455   1.627   7.514   6.200  1.5373  3.1406 -0.8429
29536SOL    HW293456   1.532   7.624   6.242 -0.8675  0.2928  1.4639
29537SOL     OW93457   9.283   7.117   7.154 -0.4236  0.3144 -0.0475
29537SOL    HW193458   9.340   7.057   7.104  0.6973  1.7829 -0.5792
29537SOL    HW293459   9.206   7.064   7.175  0.8233 -1.5173  0.0786
29538SOL     OW93460   9.327   5.907   6.392 -0.3821 -0.2827  0.6898
29538SOL    HW193461   9.336   5.845   6.465  3.2697  1.3309  1.7486
29538SOL    HW293462   9.307   5.991   6.435 -2.0295 -0.0381 -0.4996
29539SOL     OW93463   9.945   8.485   7.079 -0.8875 -0.7805  0.2152
29539SOL    HW193464   9.955   8.521   7.167  0.1370 -0.1039 -0.1745
29539SOL    HW293465   9.977   8.554   7.021  0.5219 -2.0655 -0.5762
29540SOL     OW93466   9.710   6.707   6.512  0.3805  0.1449 -0.8414
29540SOL    HW193467   9.654   6.772   6.554  0.2506  0.1555 -1.0312
29540SOL    HW293468   9.789   6.706   6.565 -0.2903 -0.7595  0.1521
29541SOL     OW93469   9.235   5.170   6.646 -0.2466  0.1422 -0.5920
29541SOL    HW193470   9.189   5.233   6.702  0.0782 -0.0811 -0.0725
29541SOL    HW293471   9.318   5.213   6.626 -0.0102 -0.1263 -0.2098
29542SOL     OW93472   8.451   7.619   6.180  0.2724  0.3718  0.7001
29542SOL    HW193473   8.447   7.596   6.087 -5.7216  2.2310  0.2950
29542SOL    HW293474   8.428   7.538   6.225  1.6726 -0.1271  0.5595
29543SOL     OW93475   9.988   7.014   6.990 -0.4604  0.0377 -0.3117
29543SOL    HW193476   9.992   7.076   6.917 -2.1123  1.2885  0.6265
29543SOL    HW293477   9.895   6.996   7.001 -0.5989  2.5394  3.6404
29544SOL     OW93478   9.729   8.266   6.303  0.2767  0.5060  0.1208
29544SOL    HW193479   9.808   8.296   6.258  0.4214 -0.0396  0.0145
29544SOL    HW293480   9.713   8.333   6.370  0.3985  1.0042 -0.3513
29545SOL     OW93481   0.775   4.546   5.853  0.2406  0.6751  0.5164
29545SOL    HW193482   0.832   4.621   5.872  1.5664 -0.0405 -0.5095
29545SOL    HW293483   0.812   4.475   5.905 -1.5015  0.9240  2.1123
29546SOL     OW93484   9.308   6.270   7.143  0.2966 -0.5045  0.0908
29546SOL    HW193485   9.366   6.201   7.176  1.7121  1.1547  1.1731
29546SOL    HW293486   9.362   6.320   7.082 -0.4880  0.0816 -0.1307
29547SOL     OW93487   9.351   5.905   5.803 -0.3272 -0.2225 -0.1306
29547SOL    HW193488   9.354   5.829   5.862 -0.8224  0.4013  0.7091
29547SOL    HW293489   9.305   5.873   5.725 -1.0857 -0.6284  0.4696
29548SOL     OW93490   9.810   7.109   6.787  0.4576  0.0159 -0.3054
29548SOL    HW193491   9.856   7.118   6.705  0.2160 -1.7990 -0.6736
29548SOL    HW293492   9.724   7.074   6.763 -0.2373  1.0957  0.5613
29549SOL     OW93493   0.641   3.287   5.568 -0.1826 -0.1554 -0.3222
29549SOL    HW193494   0.623   3.321   5.481  0.2197  2.7918  0.6862
29549SOL    HW293495   0.727   3.246   5.561 -2.0139 -3.8340 -2.3123
29550SOL     OW93496   0.253   4.736   6.476 -0.1695  0.2722 -0.5775
29550SOL    HW193497   0.345   4.760   6.474 -0.3129  0.8168 -0.8395
29550SOL    HW293498   0.252   4.642   6.455  0.4044 -0.0150  0.6326
29551SOL     OW93499   9.136   8.051   7.416 -0.0389  0.0088  0.3444
29551SOL    HW193500   9.079   7.978   7.392  0.4225 -0.3521  0.3448
29551SOL    HW293501   9.076   8.118   7.449 -0.4126 -0.5611  0.8205
29552SOL     OW93502   9.455   7.786   4.731 -0.4271  0.3583  0.5902
29552SOL    HW193503   9.391   7.850   4.699  0.2634  1.0426  0.5596
29552SOL    HW293504   9.528   7.839   4.763  1.3524 -0.4346 -1.9123
29553SOL     OW93505   0.014   6.366   7.632 -0.0082 -0.1855 -0.1497
29553SOL    HW193506  -0.065   6.405   7.595 -0.2144 -0.0157  0.4693
29553SOL    HW293507   0.047   6.308   7.563  0.2247  0.9799 -1.0134
29554SOL     OW93508   9.713   6.601   6.099  0.0925  0.2696  0.0547
29554SOL    HW193509   9.740   6.692   6.112 -0.9021  0.5905 -0.1100
29554SOL    HW293510   9.626   6.607   6.061  1.1016 -0.7255 -2.5276
29555SOL     OW93511   8.550   8.339   8.452 -0.1276  0.3083 -0.5850
29555SOL    HW193512   8.634   8.347   8.408  0.1476  1.3446  0.1135
29555SOL    HW293513   8.565   8.374   8.540 -1.1993  0.1902 -0.3400
29556SOL     OW93514   0.849   6.233   6.891  0.3817 -0.0416  0.4034
29556SOL    HW193515   0.916   6.174   6.925  0.3520 -0.7327 -0.7152
29556SOL    HW293516   0.767   6.202   6.930  0.6876  0.8355  1.8115
29557SOL     OW93517   0.584   6.263   6.041 -0.0734  0.4353 -0.0339
29557SOL    HW193518   0.548   6.175   6.030  1.0559 -0.2403  1.5449
29557SOL    HW293519   0.570   6.283   6.134 -0.2538  1.8900 -0.3719
29558SOL     OW93520   9.786   5.835   5.815  0.6615 -0.5330  0.4858
29558SOL    HW193521   9.729   5.760   5.798  0.5522  0.0609 -2.0450
29558SOL    HW293522   9.732   5.911   5.795  1.1944  0.1678  1.6829
29559SOL     OW93523   9.209   5.405   6.415  0.2317  0.1946 -0.2939
29559SOL    HW193524   9.131   5.450   6.384 -0.6043 -2.3826 -2.1199
29559SOL    HW293525   9.272   5.415   6.344  0.6180 -0.0880  0.0097
29560SOL     OW93526   0.509   7.450   5.165 -0.3291  0.9408 -0.1582
29560SOL    HW193527   0.582   7.448   5.228  0.3881  1.3608 -0.9656
29560SOL    HW293528   0.548   7.483   5.084 -0.6767 -1.9101 -1.5451
29561SOL     OW93529   1.626   5.775   4.871  0.3753  0.1340  0.0146
29561SOL    HW193530   1.713   5.746   4.844  0.0620 -1.1862  0.3947
29561SOL    HW293531   1.630   5.871   4.864  2.3355  0.1904  1.4825
29562SOL     OW93532   0.243   7.559   5.577  0.5380 -0.5226 -0.3153
29562SOL    HW193533   0.191   7.536   5.500 -0.2200 -0.0699  0.0605
29562SOL    HW293534   0.327   7.588   5.541  0.6979 -1.6828 -0.9002
29563SOL     OW93535   8.152   6.333   8.332 -0.6775 -0.2035  0.0422
29563SOL    HW193536   8.231   6.309   8.284  0.1327 -1.9512  2.1115
29563SOL    HW293537   8.084   6.340   8.265  0.3199 -2.8836 -1.3489
29564SOL     OW93538   0.701   6.280   5.027 -0.5791 -0.2956  0.4474
29564SOL    HW193539   0.705   6.318   4.940  1.4196  0.1226  0.6889
29564SOL    HW293540   0.768   6.212   5.027 -1.1727 -0.8996  1.3906
29565SOL     OW93541   0.271   5.523   5.066 -0.1202 -0.2364 -0.2912
29565SOL    HW193542   0.245   5.435   5.092  0.6562 -0.5062 -0.4240
29565SOL    HW293543   0.211   5.581   5.115 -0.4902 -0.8250 -0.0443
29566SOL     OW93544   1.161   7.140   6.091  0.0508 -0.0588 -0.3196
29566SOL    HW193545   1.096   7.086   6.136 -1.2857  0.8430 -1.1331
29566SOL    HW293546   1.163   7.221   6.141  1.0978 -0.3481  0.1272
29567SOL     OW93547   9.497   6.835   5.471  1.1509  0.3626  0.1644
29567SOL    HW193548   9.423   6.775   5.463  2.0805 -1.0091  1.5569
29567SOL    HW293549   9.457   6.923   5.471 -0.2270 -0.2402 -1.7343
29568SOL     OW93550   1.522   5.654   6.866  0.5441  0.4125  0.0726
29568SOL    HW193551   1.522   5.748   6.881 -0.5637  0.5579 -0.7822
29568SOL    HW293552   1.475   5.618   6.941 -3.5530  1.0045 -2.0427
29569SOL     OW93553   1.019   5.802   5.660  0.5013  0.4701  0.0056
29569SOL    HW193554   1.072   5.843   5.591  2.0033  0.0722  0.8885
29569SOL    HW293555   0.960   5.743   5.613  0.2074  1.5837 -1.0677
29570SOL     OW93556   1.749   7.510   6.508  0.4688 -0.0966  0.6951
29570SOL    HW193557   1.689   7.522   6.435  1.0477  0.2683  0.2719
29570SOL    HW293558   1.712   7.564   6.578 -0.9251 -1.6579  1.1877
29571SOL     OW93559   0.673   5.013   6.411 -0.3035 -0.1733 -0.2729
29571SOL    HW193560   0.721   5.065   6.475  0.5254 -1.6976  0.3393
29571SOL    HW293561   0.686   5.060   6.328 -0.3523  1.1133  0.4436
29572SOL     OW93562   1.842   7.091   8.059  0.2348  0.2499  0.8632
29572SOL    HW193563   1.780   7.018   8.060  0.7919 -0.2496  2.6724
29572SOL    HW293564   1.801   7.158   8.112  0.5031  0.5525  0.6884
29573SOL     OW93565   9.724   5.435   6.495 -0.3511 -0.2413  0.1369
29573SOL    HW193566   9.685   5.492   6.429  0.9556  1.8687  1.1236
29573SOL    HW293567   9.688   5.466   6.578 -0.3770 -1.5109  0.6160
29574SOL     OW93568   9.947   6.814   6.357  0.3707 -0.3260 -0.3176
29574SOL    HW193569   9.880   6.879   6.378  0.4786  0.2177 -1.6558
29574SOL    HW293570   9.955   6.817   6.262  0.6106 -2.0674 -0.3668
29575SOL     OW93571   8.304   7.384   5.161 -0.0697  0.0633 -0.7191
29575SOL    HW193572   8.395   7.404   5.137 -1.0263  1.2807 -3.5652
29575SOL    HW293573   8.287   7.299   5.121  0.3951 -1.1187  1.5228
29576SOL     OW93574   9.462   7.236   6.199  0.0405  0.1074 -0.8191
29576SOL    HW193575   9.448   7.250   6.105  0.2513 -0.0971 -0.8815
29576SOL    HW293576   9.548   7.194   6.204  0.3204  0.7244 -0.4856
29577SOL     OW93577   8.411   8.818   6.986 -0.3739 -0.2005 -0.1101
29577SOL    HW193578   8.496   8.857   7.006 -0.9818  0.7695  0.5989
29577SOL    HW293579   8.416   8.796   6.893  0.5437  0.1373 -0.1431
29578SOL     OW93580   9.386   6.575   7.017  0.0468 -0.2049 -0.0761
29578SOL    HW193581   9.457   6.629   7.052 -0.6497 -1.0588  2.8055
29578SOL    HW293582   9.428   6.492   6.996  0.4363  0.2564 -1.1832
29579SOL     OW93583   9.181   4.606   7.584 -0.3006  0.1029  0.1882
29579SOL    HW193584   9.226   4.615   7.668 -1.5351 -0.5764  0.9313
29579SOL    HW293585   9.248   4.572   7.525  0.0580 -1.3447  1.3972
29580SOL     OW93586   9.947   5.933   5.300  0.0333 -0.7347  0.7060
29580SOL    HW193587   9.880   6.001   5.296  0.2259 -0.4846  1.6139
29580SOL    HW293588   9.932   5.889   5.384  0.5687 -1.1322  0.5979
29581SOL     OW93589   8.006   6.292   9.292 -0.1358  0.1147  0.4345
29581SOL    HW193590   7.933   6.350   9.315 -0.6345 -0.1255 -0.5021
29581SOL    HW293591   8.065   6.347   9.240  2.0612  1.2637  3.9938
29582SOL     OW93592   9.950   5.633   6.860  0.1706  0.0823  0.0640
29582SOL    HW193593   9.899   5.593   6.930 -1.0197  0.1616 -0.7498
29582SOL    HW293594   9.975   5.560   6.803  1.6615 -0.0635  0.8989
29583SOL     OW93595   9.089   7.460   7.189 -0.3143  0.1325 -0.4768
29583SOL    HW193596   9.077   7.502   7.103 -0.2847  0.5328 -0.2873
29583SOL    HW293597   9.000   7.446   7.221 -0.3206  0.8195 -0.1729
29584SOL     OW93598   9.155   6.361   7.396 -0.4146  0.3189  0.3600
29584SOL    HW193599   9.219   6.367   7.467  0.1025  0.3038 -0.0999
29584SOL    HW293600   9.201   6.314   7.326 -1.6403 -1.5940  0.8020
29585SOL     OW93601   0.075   6.583   5.400 -0.1517 -0.1882 -0.0615
29585SOL    HW193602  -0.002   6.533   5.374 -0.1644 -1.0649  1.6255
29585SOL    HW293603   0.076   6.580   5.496  1.1425  1.0799 -0.0006
29586SOL     OW93604   0.202   6.412   6.067  0.7151  0.1996 -0.1646
29586SOL    HW193605   0.196   6.316   6.076  1.0077  0.2304  0.3440
29586SOL    HW293606   0.123   6.445   6.108 -0.2766  0.0897 -1.9207
29587SOL     OW93607   9.719   7.362   6.855  0.0026 -0.5487  0.2666
29587SOL    HW193608   9.624   7.355   6.867 -0.0645 -2.6385 -1.1953
29587SOL    HW293609   9.748   7.273   6.837  2.4925 -0.1886  2.2285
29588SOL     OW93610   8.160   6.922   6.710  0.0290 -0.6939 -0.4798
29588SOL    HW193611   8.244   6.936   6.753 -0.2513 -0.9535  0.1597
29588SOL    HW293612   8.182   6.879   6.628  0.6362  0.5417 -0.9865
29589SOL     OW93613   8.806   5.290   7.120  0.5034  0.5398 -0.3609
29589SOL    HW193614   8.859   5.212   7.107  0.6955  0.7818 -1.0389
29589SOL    HW293615   8.812   5.308   7.214 -1.2228 -1.4498  0.1708
29590SOL     OW93616   9.222   5.018   7.553  0.1588 -0.6484 -0.2363
29590SOL    HW193617   9.251   5.107   7.574  1.1140 -0.8648 -0.6093
29590SOL    HW293618   9.280   4.961   7.603 -1.4167 -1.0544  1.1900
29591SOL     OW93619   0.292   5.938   4.910 -0.1742  0.0598  0.1201
29591SOL    HW193620   0.370   5.905   4.866 -0.4222  1.3052 -1.2617
29591SOL    HW293621   0.223   5.875   4.886  0.1475 -0.4310  0.4626
29592SOL     OW93622   1.199   6.296   5.508 -0.4469 -0.4900  0.0216
29592SOL    HW193623   1.121   6.338   5.473 -1.9479 -1.5145  2.0456
29592SOL    HW293624   1.170   6.209   5.535  1.7133 -1.4068 -0.4644
29593SOL     OW93625   9.415   7.970   7.271 -0.0641 -0.8022 -0.5236
29593SOL    HW193626   9.399   7.964   7.177  0.5853 -0.6871 -0.6467
29593SOL    HW293627   9.507   7.996   7.278 -1.5153  4.6810  0.0454
29594SOL     OW93628   0.681   5.301   7.012  0.4018  0.6119  0.4350
29594SOL    HW193629   0.656   5.209   7.004  1.3540  0.4037 -0.2222
29594SOL    HW293630   0.704   5.327   6.923  1.2464  1.1691  0.8107
29595SOL     OW93631   9.841   6.142   7.254  0.4766  0.1135  0.3951
29595SOL    HW193632   9.781   6.067   7.251 -0.0495  0.5358  0.2297
29595SOL    HW293633   9.836   6.172   7.345 -0.8645  1.1875 -0.0180
29596SOL     OW93634   0.074   7.974   8.272 -0.2118  0.1648 -0.4100
29596SOL    HW193635   0.122   8.023   8.339 -0.1060 -1.6414  0.8670
29596SOL    HW293636   0.112   8.003   8.189  0.4223  1.6140  0.3677
29597SOL     OW93637   9.061   5.308   6.199  0.1552  0.4176 -0.1132
29597SOL    HW193638   9.060   5.245   6.127 -0.1879 -0.0208  0.2737
29597SOL    HW293639   8.990   5.279   6.257 -0.7008  1.7658 -0.4678
29598SOL     OW93640   9.206   6.085   7.543  0.0876  0.0121 -0.2925
29598SOL    HW193641   9.280   6.025   7.555  0.6205  0.4808 -1.2023
29598SOL    HW293642   9.242   6.172   7.561 -0.7026  0.0575  1.0984
29599SOL     OW93643   9.082   6.919   8.874 -0.5703 -0.2750  0.2272
29599SOL    HW193644   9.029   6.992   8.907 -2.9368 -1.6128 -0.4413
29599SOL    HW293645   9.138   6.895   8.947  1.4710  3.2431 -0.0666
29600SOL     OW93646   1.953   6.896   9.176 -0.3274 -0.3800  0.8854
29600SOL    HW193647   2.030   6.845   9.201 -0.1556 -1.0873 -0.9869
29600SOL    HW293648   1.940   6.958   9.248  2.5424  0.3595  0.8160
29601SOL     OW93649   0.196   7.542   9.564  0.2689 -0.1149 -0.0819
29601SOL    HW193650   0.234   7.591   9.491  0.2070  0.3229  0.1777
29601SOL    HW293651   0.154   7.609   9.618  1.5485 -0.2759  1.1094
29602SOL     OW93652   8.444   7.423   8.537 -1.1250  0.7299  0.2287
29602SOL    HW193653   8.365   7.415   8.484 -0.5843 -2.2755 -0.2129
29602SOL    HW293654   8.510   7.457   8.477 -0.9556 -1.0176 -0.5912
29603SOL     OW93655   8.500   6.257   8.540  0.5142  0.5551 -0.1609
29603SOL    HW193656   8.508   6.321   8.470  1.3876  0.8746  0.2250
29603SOL    HW293657   8.571   6.278   8.601  0.5356 -0.4994  0.1941
29604SOL     OW93658   9.723   5.762   9.183 -0.3462 -0.2319 -0.0208
29604SOL    HW193659   9.664   5.802   9.248 -2.0638  1.1463 -2.3519
29604SOL    HW293660   9.791   5.828   9.170  0.8546 -1.1555  1.4923
29605SOL     OW93661   8.655   7.163   0.026  0.2951  0.1965 -0.1893
29605SOL    HW193662   8.651   7.187   0.118 -0.4693  0.1444 -0.2032
29605SOL    HW293663   8.653   7.067   0.026  0.1893  0.1992 -0.2631
29606SOL     OW93664   0.465   5.637   8.372  0.1739  0.2188  0.5570
29606SOL    HW193665   0.543   5.630   8.316 -0.2563 -0.6853  0.0424
29606SOL    HW293666   0.404   5.690   8.321 -0.2149 -0.5977  0.1649
29607SOL     OW93667   9.227   5.636   7.857  0.0335 -0.5030  0.3752
29607SOL    HW193668   9.286   5.584   7.803  0.1792 -0.6490  0.6784
29607SOL    HW293669   9.181   5.692   7.794  0.8640 -0.0176  0.1902
29608SOL     OW93670   9.078   7.525   7.551  0.2436 -0.3500  0.5325
29608SOL    HW193671   9.162   7.557   7.518 -0.7127 -0.1127 -1.7356
29608SOL    HW293672   9.037   7.602   7.590  0.7061 -0.2808  0.8898
29609SOL     OW93673   9.214   6.248   0.047 -0.2083  0.4695 -0.7117
29609SOL    HW193674   9.258   6.310   0.105 -1.6410  0.9630 -0.1274
29609SOL    HW293675   9.244   6.162   0.077  1.3623  0.8345 -1.1720
29610SOL     OW93676   0.852   7.917   7.942  0.1323 -0.6076  0.3191
29610SOL    HW193677   0.920   7.936   8.008  0.2900 -0.3432  0.0805
29610SOL    HW293678   0.868   7.980   7.872 -2.3287  1.5949  1.6522
29611SOL     OW93679   8.181   6.161   9.917  0.0542  0.1097 -0.2867
29611SOL    HW193680   8.171   6.082   9.864 -1.7029  0.0010  0.1670
29611SOL    HW293681   8.212   6.130  10.002 -3.1944 -0.4402  0.7758
29612SOL     OW93682   9.204   5.347   9.424 -0.0617  0.4431  0.0048
29612SOL    HW193683   9.163   5.294   9.493 -1.1784 -0.4174 -1.2898
29612SOL    HW293684   9.259   5.410   9.471 -0.6605 -0.2514  1.6654
29613SOL     OW93685   1.016   5.532   7.616 -0.4719 -0.0572 -0.4156
29613SOL    HW193686   1.105   5.550   7.645 -0.0936 -0.3432 -1.4002
29613SOL    HW293687   1.025   5.492   7.530 -1.5719  0.5146 -0.8207
29614SOL     OW93688   9.359   6.341   8.234  0.1023 -0.6424  0.2446
29614SOL    HW193689   9.292   6.284   8.271  0.4344  0.0565  1.9416
29614SOL    HW293690   9.312   6.422   8.213  0.4585 -0.0822  1.6164
29615SOL     OW93691   7.339   8.513   1.387  0.2799  0.2367  0.0878
29615SOL    HW193692   7.383   8.568   1.322 -0.0446  1.3089  0.7820
29615SOL    HW293693   7.404   8.446   1.409  0.8811  0.6905 -0.3081
29616SOL     OW93694   0.985   6.658   9.010 -0.6288 -0.2038  0.3806
29616SOL    HW193695   1.070   6.700   9.022 -0.6603  0.0713 -0.3531
29616SOL    HW293696   0.969   6.612   9.093  0.6944 -1.1026  0.1403
29617SOL     OW93697   0.584   7.811   7.933 -0.6143 -0.9498 -0.3743
29617SOL    HW193698   0.553   7.757   8.006 -0.4214 -0.2847  0.2084
29617SOL    HW293699   0.669   7.844   7.963 -0.6373 -0.4945 -0.8149
29618SOL     OW93700   0.322   6.676   9.360  0.2200 -0.2103  0.8341
29618SOL    HW193701   0.335   6.751   9.302  1.3155 -1.0724 -0.0319
29618SOL    HW293702   0.410   6.652   9.389  0.0868 -2.4630 -0.5380
29619SOL     OW93703   8.486   7.719   7.867 -0.0231  0.2905  0.1423
29619SOL    HW193704   8.432   7.669   7.806 -0.3918 -0.5312  1.1366
29619SOL    HW293705   8.516   7.794   7.816  2.1728 -1.9560 -1.9349
29620SOL     OW93706   9.480   7.918   0.641 -0.5015 -0.5009  0.0081
29620SOL    HW193707   9.518   7.833   0.618 -2.2102 -1.0975 -0.7311
29620SOL    HW293708   9.507   7.976   0.570  2.0967  0.0258  1.3843
29621SOL     OW93709   9.286   4.558   8.980 -0.1383  0.6492  0.2569
29621SOL    HW193710   9.349   4.542   9.050 -0.5213  1.5705  0.8111
29621SOL    HW293711   9.319   4.636   8.936  1.1664 -1.0051 -1.8197
29622SOL     OW93712   1.012   7.770   7.521  0.4668 -0.4627  0.3730
29622SOL    HW193713   1.003   7.865   7.520  0.2439 -0.4936 -1.1120
29622SOL    HW293714   0.957   7.741   7.594  0.0924  0.4915  0.4733
29623SOL     OW93715   9.800   8.370   7.869 -0.2150  0.1437  0.1552
29623SOL    HW193716   9.867   8.428   7.832  0.4842 -1.8597 -1.7884
29623SOL    HW293717   9.848   8.295   7.902 -1.3465 -0.4876  0.3901
29624SOL     OW93718   9.777   5.511   7.972  0.6982  0.1814 -0.2148
29624SOL    HW193719   9.794   5.565   8.049  0.2806  2.4270 -1.6806
29624SOL    HW293720   9.786   5.421   8.005  0.6344  1.0823  2.4268
29625SOL     OW93721   9.942   5.430   7.609 -0.1525 -0.4673 -0.0486
29625SOL    HW193722   9.928   5.353   7.554 -1.6226 -0.6845  0.6302
29625SOL    HW293723   9.989   5.491   7.552 -1.0155 -0.9770 -1.3246
29626SOL     OW93724   9.577   6.701   8.030  0.7495  0.3162 -0.3087
29626SOL    HW193725   9.653   6.651   8.002  1.0466  0.2375  0.6570
29626SOL    HW293726   9.580   6.701   8.125 -0.1909  0.7216 -0.2675
29627SOL     OW93727   0.040   5.397   6.741 -0.0081  0.7617  0.1573
29627SOL    HW193728   0.068   5.392   6.650 -0.0003  1.6274  0.1041
29627SOL    HW293729   0.122   5.403   6.791  0.0319 -0.9852  0.3224
29628SOL     OW93730   8.757   7.725   7.985 -0.2945  0.0516  0.3441
29628SOL    HW193731   8.797   7.812   7.994  0.7111 -0.1670 -1.7775
29628SOL    HW293732   8.691   7.736   7.917 -0.8791 -0.6210  0.7941
29629SOL     OW93733   9.325   5.854   8.718  0.6955 -0.6402  1.0251
29629SOL    HW193734   9.250   5.896   8.761  0.6627 -0.7234  1.0498
29629SOL    HW293735   9.383   5.828   8.789  0.7871 -0.5042  1.0009
29630SOL     OW93736   9.673   7.816   9.491  0.4977  0.0704 -0.2319
29630SOL    HW193737   9.717   7.887   9.444  0.4086  1.1757  1.2937
29630SOL    HW293738   9.740   7.748   9.500  0.5896 -0.0399 -1.7089
29631SOL     OW93739   9.903   6.528   9.287 -0.1930 -0.6330 -0.3545
29631SOL    HW193740   9.838   6.490   9.228  0.0461  1.0515 -1.7531
29631SOL    HW293741   9.986   6.518   9.241 -0.0558  1.0751 -0.5216
29632SOL     OW93742   8.783   8.405   8.298 -0.3207 -0.7692  0.0362
29632SOL    HW193743   8.742   8.481   8.256  2.0249 -0.3919 -1.6355
29632SOL    HW293744   8.822   8.439   8.378  1.0607 -0.1021 -0.9048
29633SOL     OW93745   9.792   6.286   7.486 -0.0371 -0.5881  0.0672
29633SOL    HW193746   9.774   6.226   7.559 -1.2536  0.0515  0.3237
29633SOL    HW293747   9.705   6.312   7.456  0.4770  0.0704 -0.8515
29634SOL     OW93748   1.621   6.105   0.041  0.1609  0.4678 -1.1147
29634SOL    HW193749   1.570   6.058   0.107  1.1701  0.6283 -0.2017
29634SOL    HW293750   1.677   6.038   0.002  2.1729  1.0010  0.7384
29635SOL     OW93751   9.408   6.951   9.848  0.5114 -0.0668  0.3367
29635SOL    HW193752   9.363   7.035   9.858  0.1218  0.0539 -2.0744
29635SOL    HW293753   9.376   6.897   9.920 -1.6082  0.8506  0.1005
29636SOL     OW93754   9.781   7.204   8.661  0.1801 -0.2533  0.1459
29636SOL    HW193755   9.820   7.200   8.748  1.0183 -2.8061 -0.3173
29636SOL    HW293756   9.704   7.147   8.667  1.1768 -1.7718 -1.2275
29637SOL     OW93757   9.431   5.036   8.923 -0.4561 -1.1723 -0.8167
29637SOL    HW193758   9.494   5.036   8.850 -0.0575 -0.0387 -0.4780
29637SOL    HW293759   9.408   5.128   8.934 -1.1426 -1.4395 -0.0401
29638SOL     OW93760   6.782   4.702   9.486  0.6615 -0.5913 -0.1940
29638SOL    HW193761   6.865   4.750   9.483  0.7601 -0.6983  0.6884
29638SOL    HW293762   6.795   4.627   9.429  0.3429  0.6760 -1.9732
29639SOL     OW93763   8.336   8.096   8.629  0.4106  0.0064  0.0889
29639SOL    HW193764   8.336   8.020   8.571  0.2524 -0.8513  1.1983
29639SOL    HW293765   8.429   8.109   8.652  0.2703 -0.9276  1.2616
29640SOL     OW93766   9.353   5.317   8.013 -0.0565  0.0040 -0.0496
29640SOL    HW193767   9.390   5.345   7.929 -1.3784 -0.4531 -0.7964
29640SOL    HW293768   9.344   5.222   8.005  0.5487 -0.1385  0.9135
29641SOL     OW93769   9.404   6.539   9.864  0.4280  0.1630 -0.3449
29641SOL    HW193770   9.475   6.576   9.918 -0.1692  0.2959  0.3489
29641SOL    HW293771   9.324   6.573   9.903 -0.3604 -4.1363  2.1884
29642SOL     OW93772   0.343   7.964   9.621 -0.4602  0.0148  0.4105
29642SOL    HW193773   0.391   7.922   9.693 -0.2863  0.1696  0.3837
29642SOL    HW293774   0.397   8.039   9.597 -0.3804 -0.1920 -0.0665
29643SOL     OW93775   9.451   7.135   7.734 -0.4417  0.7094  0.0292
29643SOL    HW193776   9.385   7.114   7.800  0.2984  0.1257  0.5853
29643SOL    HW293777   9.484   7.221   7.759 -0.1797  0.4995  0.4082
29644SOL     OW93778   9.208   7.584   6.944 -0.5531 -0.3906  0.3703
29644SOL    HW193779   9.276   7.621   6.999  1.5692 -0.4715 -2.1031
29644SOL    HW293780   9.192   7.497   6.979 -0.2834  0.0960  1.7131
29645SOL     OW93781   9.454   9.603   8.545  0.0635 -0.9010  0.5582
29645SOL    HW193782   9.380   9.544   8.528  0.1113 -0.6935 -0.3952
29645SOL    HW293783   9.522   9.574   8.484 -0.0388  0.3723 -0.1699
29646SOL     OW93784   9.255   6.889   8.389  0.5117  1.0258 -0.9090
29646SOL    HW193785   9.192   6.893   8.461  2.7836  0.1274  1.1917
29646SOL    HW293786   9.242   6.971   8.341 -0.6867  1.8713  0.8116
29647SOL     OW93787   0.233   6.809   8.248  0.0252 -0.2896 -0.4663
29647SOL    HW193788   0.209   6.757   8.325  0.2843  0.3297  0.0389
29647SOL    HW293789   0.155   6.863   8.231  0.6964  1.0756  0.6347
29648SOL     OW93790   7.857   6.532   0.347 -0.0298  0.1085 -0.0005
29648SOL    HW193791   7.916   6.457   0.333  2.2482  1.5684  1.4666
29648SOL    HW293792   7.838   6.530   0.441 -0.1408  1.2458  0.0034
29649SOL     OW93793   0.218   4.004   8.878  0.1459  0.1657  0.2938
29649SOL    HW193794   0.254   3.925   8.919  0.3582  0.6546  1.0641
29649SOL    HW293795   0.279   4.074   8.902 -1.3304  1.0260  1.6999
29650SOL     OW93796   9.175   6.574   0.034 -0.8928  0.3618  0.6136
29650SOL    HW193797   9.189   6.656   0.082  0.2991  0.3240  0.3475
29650SOL    HW293798   9.231   6.510   0.079  0.4183  0.3764 -0.9533
29651SOL     OW93799   1.578   4.934   6.231 -0.4565  0.3167 -0.8736
29651SOL    HW193800   1.526   4.855   6.239 -0.1364  0.1402 -0.4962
29651SOL    HW293801   1.521   4.997   6.187 -1.0676  0.2045 -0.2474
29652SOL     OW93802   8.234   6.838   9.463 -0.1226 -0.0823 -0.0439
29652SOL    HW193803   8.298   6.871   9.400 -0.0513  4.3870  2.1148
29652SOL    HW293804   8.157   6.893   9.450 -0.4224  0.3154  3.0474
29653SOL     OW93805   8.973   6.916   9.422 -0.3754 -0.2285 -0.3263
29653SOL    HW193806   9.049   6.970   9.403 -0.5588  0.4332  0.8089
29653SOL    HW293807   9.002   6.857   9.491 -1.0975  0.4893  0.5980
29654SOL     OW93808   8.930   6.149   9.993 -0.3786 -0.6736 -0.2831
29654SOL    HW193809   8.997   6.169   9.927  0.8072  2.0578  1.6642
29654SOL    HW293810   8.980   6.130  10.073 -1.8686 -1.4068  0.4910
29655SOL     OW93811   0.565   5.171   8.979  0.3209  0.3694 -0.2103
29655SOL    HW193812   0.638   5.226   8.952 -1.7161  2.0016 -2.6478
29655SOL    HW293813   0.559   5.103   8.911 -0.1938  0.0241  0.1728
29656SOL     OW93814   9.981   6.428   9.536 -0.2453  0.0610  0.1106
29656SOL    HW193815   9.941   6.444   9.451  1.0651  3.1185 -0.0097
29656SOL    HW293816  10.075   6.424   9.519 -0.0874 -1.1142  1.1710
29657SOL     OW93817   0.082   6.027   7.207  0.6749 -1.0828  0.0392
29657SOL    HW193818   0.105   6.015   7.115  1.8805  0.5637  0.1048
29657SOL    HW293819  -0.007   6.063   7.205  0.5315 -1.4622 -0.4568
29658SOL     OW93820   8.900   6.936   0.214  0.2076  0.2791 -0.3588
29658SOL    HW193821   8.993   6.931   0.193  0.5653  0.7348  1.0846
29658SOL    HW293822   8.886   7.026   0.241 -0.5552  0.0907 -0.1238
29659SOL     OW93823   0.252   7.483   0.807 -0.2958 -0.2008 -0.3842
29659SOL    HW193824   0.230   7.537   0.883 -1.0352  0.8876 -1.3483
29659SOL    HW293825   0.186   7.414   0.808  0.1710 -0.6433  0.4049
29660SOL     OW93826   8.819   7.108   6.377 -0.5576  0.0748 -0.4240
29660SOL    HW193827   8.898   7.113   6.323  0.3960  1.3447  1.0335
29660SOL    HW293828   8.793   7.200   6.390 -1.2935 -0.2557  0.5115
29661SOL     OW93829   9.116   5.860   9.417 -0.0330  0.2387  0.6645
29661SOL    HW193830   9.022   5.847   9.432 -0.3416  0.4715 -0.9433
29661SOL    HW293831   9.132   5.819   9.331  1.5889 -0.9142  1.4954
29662SOL     OW93832   9.747   8.117   8.954  0.9406  0.1305  0.5688
29662SOL    HW193833   9.800   8.154   8.884  0.9339 -0.4510  0.2475
29662SOL    HW293834   9.786   8.030   8.970 -0.2114 -0.4993 -0.0106
29663SOL     OW93835   9.611   6.702   8.301 -0.1177  0.6110  0.3391
29663SOL    HW193836   9.658   6.729   8.380 -1.4614  1.8514  0.7312
29663SOL    HW293837   9.522   6.682   8.331  0.3918 -2.7686 -0.2217
29664SOL     OW93838   8.941   7.266   0.047 -0.8434 -0.1208  0.1308
29664SOL    HW193839   8.949   7.242   0.139 -2.2034  1.7240  0.7758
29664SOL    HW293840   8.859   7.315   0.042  0.4853  2.0579 -1.5643
29665SOL     OW93841   7.466   8.599   7.636 -0.2473  0.8296  0.2069
29665SOL    HW193842   7.459   8.509   7.667  0.8576  0.4826 -0.5396
29665SOL    HW293843   7.440   8.652   7.712  0.6711 -0.0705  1.1712
29666SOL     OW93844   9.956   7.257   7.809  0.0665 -0.3573  0.5026
29666SOL    HW193845   9.956   7.343   7.850 -1.2353  0.6936 -1.5832
29666SOL    HW293846   9.996   7.199   7.874 -0.1259  1.5784  2.4138
29667SOL     OW93847   9.226   7.630   9.196  0.3927 -0.0789 -0.6002
29667SOL    HW193848   9.204   7.598   9.109  0.0981 -1.0686 -0.1671
29667SOL    HW293849   9.241   7.551   9.248 -2.7115  0.3636  1.1097
29668SOL     OW93850   9.513   6.429   7.782  0.2973 -0.5046  1.0583
29668SOL    HW193851   9.538   6.519   7.798 -0.0826 -0.0884 -0.5356
29668SOL    HW293852   9.557   6.378   7.851  1.6705  0.7224  1.1066
29669SOL     OW93853   9.526   7.030   8.115  0.2360  0.1809  0.2437
29669SOL    HW193854   9.551   7.003   8.204  2.6054  0.2764 -0.3686
29669SOL    HW293855   9.575   6.971   8.058 -3.2532 -1.6371 -1.0358
29670SOL     OW93856   7.757   6.543   9.551  0.1622 -0.4978 -0.0168
29670SOL    HW193857   7.833   6.577   9.503  0.8179 -1.1563  0.5356
29670SOL    HW293858   7.756   6.450   9.530 -1.9172 -0.0852 -1.9119
29671SOL     OW93859   8.777   6.053   0.259  0.0833  0.0226 -0.3574
29671SOL    HW193860   8.825   6.128   0.223 -1.0855  0.6411 -0.6578
29671SOL    HW293861   8.828   6.027   0.336 -0.6547  2.5595  1.0807
29672SOL     OW93862   9.691   7.117   9.104  0.2777  0.1287 -0.1709
29672SOL    HW193863   9.745   7.147   9.178 -0.8646 -1.8963  1.5132
29672SOL    HW293864   9.754   7.108   9.032  1.6948  0.5700  0.9696
29673SOL     OW93865   9.611   6.695   0.001 -0.0399 -0.1410  0.4514
29673SOL    HW193866   9.627   6.691   0.095 -3.0545  0.8838  1.0582
29673SOL    HW293867   9.668   6.766  -0.030 -0.9437  1.2438  1.9421
29674SOL     OW93868   8.472   4.920   0.534 -0.3542 -0.8792  0.4238
29674SOL    HW193869   8.383   4.938   0.563  0.3152 -0.4680  2.2904
29674SOL    HW293870   8.499   4.998   0.486 -0.9103 -0.9169  0.0453
29675SOL     OW93871   9.834   6.632   9.759  0.6486 -0.1731  0.1621
29675SOL    HW193872   9.909   6.691   9.749  1.5976 -0.6960  3.5844
29675SOL    HW293873   9.788   6.664   9.836 -2.3515 -0.2551 -1.5505
29676SOL     OW93874   9.306   6.612   9.591 -0.6218  0.3607 -0.5002
29676SOL    HW193875   9.361   6.603   9.669 -1.9576  0.6385  0.4888
29676SOL    HW293876   9.365   6.646   9.524  0.5620  0.0407  0.3728
29677SOL     OW93877   0.536   5.417   9.107  0.5315 -0.1531  0.2463
29677SOL    HW193878   0.532   5.486   9.041 -1.1817 -1.5457 -1.1651
29677SOL    HW293879   0.567   5.340   9.059 -1.9906 -1.5144  0.6987
29678SOL     OW93880   9.597   7.227   0.871  0.2763 -0.1624  0.6092
29678SOL    HW193881   9.656   7.271   0.932  1.3960  0.1668 -0.6916
29678SOL    HW293882   9.568   7.296   0.812 -2.0523 -0.1611  1.6919
29679SOL     OW93883   1.221   5.255   9.104 -0.3411  0.3738  0.0861
29679SOL    HW193884   1.130   5.232   9.122 -0.1239 -1.0422 -0.5696
29679SOL    HW293885   1.270   5.221   9.179 -0.2255  0.2729 -0.0357
29680SOL     OW93886   0.229   8.073   0.357  0.5437 -0.4451 -0.6846
29680SOL    HW193887   0.239   7.988   0.314  0.2939 -0.3440 -0.9461
29680SOL    HW293888   0.272   8.135   0.298  2.3326 -0.6299  0.3726
29681SOL     OW93889   9.776   6.163   9.652 -0.1001  0.2460 -0.2891
29681SOL    HW193890   9.750   6.174   9.744  1.7765 -0.5660  0.3590
29681SOL    HW293891   9.730   6.085   9.623  0.8370 -0.6353  0.5658
29682SOL     OW93892   0.048   5.398   8.957 -0.2476  0.3636 -0.4904
29682SOL    HW193893  -0.033   5.411   8.908 -1.9042 -0.7019  1.8725
29682SOL    HW293894   0.093   5.327   8.910 -0.5513  1.1083 -1.9347
29683SOL     OW93895   8.870   5.008   0.037 -0.2591 -0.3528 -0.2277
29683SOL    HW193896   8.812   5.037   0.107  0.1144 -1.0928  0.3975
29683SOL    HW293897   8.817   4.950  -0.017 -0.2939 -0.4880 -0.0470
29684SOL     OW93898   9.288   4.479   9.316 -0.4040 -0.1910 -0.1430
29684SOL    HW193899   9.312   4.571   9.322 -0.7489  0.0421 -2.2071
29684SOL    HW293900   9.324   4.440   9.396  0.6345  1.5140  0.2423
29685SOL     OW93901   1.157   6.836   0.838  0.2379  0.3244  0.0005
29685SOL    HW193902   1.164   6.833   0.934  2.3330  1.6923 -0.0889
29685SOL    HW293903   1.080   6.782   0.819  0.8427 -1.4874  2.3209
29686SOL     OW93904   1.672   7.606   0.566  0.2517 -0.1283  0.5063
29686SOL    HW193905   1.629   7.540   0.622 -0.2140  0.0020  0.3015
29686SOL    HW293906   1.618   7.684   0.575 -0.0999 -0.2552 -0.5182
29687SOL     OW93907   9.354   7.749   8.858 -0.5249  0.2464 -0.9345
29687SOL    HW193908   9.317   7.814   8.917  1.4279 -0.9829  1.7511
29687SOL    HW293909   9.285   7.733   8.793 -2.4762  2.1259  0.6174
29688SOL     OW93910   9.602   6.059   0.632  0.4344  0.1686  0.0714
29688SOL    HW193911   9.601   6.030   0.723  0.1071  0.7337  0.2525
29688SOL    HW293912   9.644   6.146   0.636  1.5282 -0.3245 -0.4720
29689SOL     OW93913   0.301   6.074   8.273  0.3861 -0.1931 -0.0942
29689SOL    HW193914   0.284   6.058   8.180 -2.2206 -0.4044  0.3750
29689SOL    HW293915   0.246   6.149   8.295  2.8361  1.4083  0.7314
29690SOL     OW93916   9.675   5.818   7.833  0.0741 -0.0012  0.1213
29690SOL    HW193917   9.748   5.878   7.848  0.5151 -0.1072 -1.4495
29690SOL    HW293918   9.625   5.820   7.914  1.0883  1.0995  0.7412
29691SOL     OW93919   9.867   5.623   0.468 -0.2647  0.0990 -0.4684
29691SOL    HW193920   9.876   5.529   0.451 -1.3580 -0.0295 -0.4221
29691SOL    HW293921   9.929   5.664   0.409  0.8603 -0.6962  0.1299
29692SOL     OW93922   8.656   5.729   9.751  0.4969  0.1972 -0.0170
29692SOL    HW193923   8.588   5.724   9.683 -0.4146 -0.7347  0.9474
29692SOL    HW293924   8.674   5.822   9.759 -1.0968  0.5012  0.1314
29693SOL     OW93925   0.566   7.364   9.291  0.2489 -0.2567  0.1001
29693SOL    HW193926   0.651   7.359   9.334 -0.0199 -0.7066  0.5848
29693SOL    HW293927   0.572   7.440   9.234  0.8532 -0.0789  0.4012
29694SOL     OW93928   9.415   4.505   1.218  0.0822 -0.6665  0.1795
29694SOL    HW193929   9.401   4.544   1.304  0.0912  1.4704 -0.7574
29694SOL    HW293930   9.327   4.481   1.188 -0.4433  2.3678 -0.9100
29695SOL     OW93931   1.648   5.520   9.241  0.1844  0.0829 -0.0401
29695SOL    HW193932   1.701   5.580   9.293  1.1190 -0.9575  0.2229
29695SOL    HW293933   1.605   5.576   9.176  0.2103  1.1784  0.8748
29696SOL     OW93934   1.257   4.893   8.199  0.1309  0.3694 -0.4491
29696SOL    HW193935   1.196   4.920   8.267 -0.8356 -2.7398  0.0181
29696SOL    HW293936   1.202   4.864   8.126  1.0793  0.1166 -1.0815
29697SOL     OW93937   9.888   6.928   9.314  0.4170 -0.3002  0.5366
29697SOL    HW193938   9.976   6.963   9.300 -0.2955  0.7940 -1.4993
29697SOL    HW293939   9.873   6.870   9.239 -0.5903 -0.4337  0.8365
29698SOL     OW93940   0.611   8.604   9.883  0.0314 -1.0231  0.5229
29698SOL    HW193941   0.636   8.690   9.917 -1.7299 -1.0344  1.9033
29698SOL    HW293942   0.616   8.614   9.787 -1.3817  1.0077  0.6316
29699SOL     OW93943   0.742   6.864   9.540  0.1736 -0.0773  0.8337
29699SOL    HW193944   0.750   6.819   9.625  0.5987 -0.9465  0.3420
29699SOL    HW293945   0.681   6.935   9.556  0.0375 -0.4058  1.8096
29700SOL     OW93946   1.324   8.836   0.700 -0.3836 -0.5424 -0.5585
29700SOL    HW193947   1.246   8.850   0.646 -0.5710 -3.0089 -1.0031
29700SOL    HW293948   1.395   8.875   0.650 -1.1307  0.6092 -0.7443
29701SOL     OW93949   0.298   6.565   1.251 -0.4320 -0.0706  0.7830
29701SOL    HW193950   0.303   6.584   1.157  0.4761 -0.0891  0.8272
29701SOL    HW293951   0.265   6.645   1.290  0.5617  0.4200  0.6175
29702SOL     OW93952   8.645   7.489   9.229 -0.1519  0.2443  0.3599
29702SOL    HW193953   8.618   7.541   9.305 -0.6227  2.0437 -1.0216
29702SOL    HW293954   8.575   7.425   9.218 -0.4257  0.4184  1.0110
29703SOL     OW93955   9.514   9.250   1.263  0.3496  0.0822  0.0276
29703SOL    HW193956   9.564   9.241   1.183 -2.4635 -1.5027 -1.6473
29703SOL    HW293957   9.456   9.325   1.247  0.2348  0.1746  0.8335
29704SOL     OW93958   0.047   8.120   1.424 -0.0715 -0.2519  0.9669
29704SOL    HW193959   0.025   8.027   1.423  0.7616 -0.4753  1.8093
29704SOL    HW293960   0.067   8.142   1.333  1.4504 -1.3378  1.0197
29705SOL     OW93961   0.051   7.614   0.993 -0.6465  0.1779  0.0489
29705SOL    HW193962   0.068   7.658   1.077  1.6938 -0.8100  0.1252
29705SOL    HW293963   0.006   7.680   0.940  1.8767  2.3502  0.5079
29706SOL     OW93964   0.750   0.529   0.079 -0.3917  0.0159  0.4769
29706SOL    HW193965   0.675   0.568   0.124 -1.5032 -1.2594 -0.2412
29706SOL    HW293966   0.734   0.547  -0.014  0.7712  0.7151  0.3999
29707SOL     OW93967   9.920   8.747   0.586  0.2943  0.2293 -0.6353
29707SOL    HW193968   9.900   8.730   0.494 -0.3753  0.0042 -0.4554
29707SOL    HW293969  10.010   8.717   0.598  0.1706 -0.3074 -1.0674
29708SOL     OW93970   9.070   7.035   9.931  0.4636 -0.0228 -0.4067
29708SOL    HW193971   9.007   6.966   9.909  0.1529 -0.6287  2.2047
29708SOL    HW293972   9.016   7.112   9.948  0.6927  0.4059 -1.5830
29709SOL     OW93973   9.978   6.366   9.856  0.0065 -0.2905 -0.2148
29709SOL    HW193974   9.963   6.272   9.842 -0.6568 -0.0507 -1.1661
29709SOL    HW293975  10.050   6.370   9.919 -1.1042 -1.4554  1.1623
29710SOL     OW93976   0.027   1.319   9.818  0.1969 -0.2514  0.1089
29710SOL    HW193977  -0.006   1.400   9.779  1.8712  1.2320  1.6636
29710SOL    HW293978  -0.031   1.303   9.892 -0.7610 -1.0656 -0.7992
29711SOL     OW93979   8.126   8.454   0.585  0.0757  0.6261  0.6163
29711SOL    HW193980   8.093   8.367   0.607  1.4088  0.0605  0.4477
29711SOL    HW293981   8.201   8.466   0.644 -0.1657  1.6963  0.7001
29712SOL     OW93982   9.762   7.454   1.847  0.0358 -0.5357  0.7260
29712SOL    HW193983   9.690   7.517   1.845 -0.0407 -0.5516  2.3810
29712SOL    HW293984   9.785   7.447   1.940  1.6427 -1.1350  0.2927
29713SOL     OW93985   0.777   8.251   0.500 -0.4176 -0.1617  0.4174
29713SOL    HW193986   0.762   8.304   0.421 -0.2187  0.4943  0.8159
29713SOL    HW293987   0.710   8.183   0.496 -0.1695 -0.3578 -0.5157
29714SOL     OW93988   0.341   7.650   9.958 -0.1350  0.3025 -0.3799
29714SOL    HW193989   0.346   7.625  10.050 -0.6760 -0.1948 -0.4774
29714SOL    HW293990   0.288   7.581   9.918  0.5480  0.2311 -1.1655
29715SOL     OW93991   0.487   8.202   9.622  0.6877  0.1588 -0.3277
29715SOL    HW193992   0.431   8.229   9.695  1.4728 -0.5020  0.5325
29715SOL    HW293993   0.487   8.276   9.562  0.4542  0.9101  0.6041
29716SOL     OW93994   0.282   8.482   1.967  0.0071 -0.2764  0.2730
29716SOL    HW193995   0.193   8.508   1.943  0.5788  1.0232 -0.5667
29716SOL    HW293996   0.315   8.556   2.019  0.3847 -1.0238  1.1012
29717SOL     OW93997   9.064   9.899   1.470 -0.1439 -0.2901  0.1815
29717SOL    HW193998   9.065   9.936   1.382 -1.3694  0.9699  0.6858
29717SOL    HW293999   9.038   9.808   1.457 -0.0523 -0.1821 -0.7838
29718SOL     OW94000   9.038   7.038   0.869  0.0563 -0.5155 -0.0887
29718SOL    HW194001   8.992   7.070   0.791 -0.6572 -0.6688  0.2671
29718SOL    HW294002   9.121   7.086   0.869 -0.8939  1.1695  0.2971
29719SOL     OW94003   9.134   8.090   0.044 -0.0556  0.4365  0.1356
29719SOL    HW194004   9.218   8.084  -0.001 -0.3445  1.9266 -0.6336
29719SOL    HW294005   9.148   8.157   0.112 -0.3528  0.0114  0.6208
29720SOL     OW94006   8.707   9.903   0.393 -0.1922 -0.1419 -0.1945
29720SOL    HW194007   8.641   9.947   0.446 -0.7521  0.5601 -1.4368
29720SOL    HW294008   8.674   9.813   0.382 -0.1994 -0.2135  0.4251
29721SOL     OW94009   8.781   0.039   9.683  0.6842 -0.0716 -0.1563
29721SOL    HW194010   8.709   0.099   9.705  1.1335  0.8196 -1.0778
29721SOL    HW294011   8.827   0.027   9.766  1.7258  2.4248 -0.3106
29722SOL     OW94012   9.377   9.587   2.012  0.0393 -0.0897  0.5187
29722SOL    HW194013   9.300   9.552   1.967  0.5194 -0.4003 -0.0746
29722SOL    HW294014   9.381   9.679   1.984  0.5178 -0.3614 -0.3485
29723SOL     OW94015   7.964   7.122   1.533  0.0234  0.2953  0.6897
29723SOL    HW194016   8.055   7.133   1.506 -0.0208  1.2010  0.8944
29723SOL    HW294017   7.913   7.143   1.454 -0.0260  0.3754  0.7430
29724SOL     OW94018   1.400   9.357   0.146  0.1115  0.3675  0.6756
29724SOL    HW194019   1.352   9.439   0.139 -1.5420 -0.5547  0.8760
29724SOL    HW294020   1.410   9.342   0.240 -0.2612 -0.0423  0.6501
29725SOL     OW94021   9.668   9.328   0.783 -0.2147  0.1631  0.0765
29725SOL    HW194022   9.603   9.391   0.750  1.1266 -0.4469 -4.0786
29725SOL    HW294023   9.749   9.353   0.739  0.8484 -3.0635  0.0709
29726SOL     OW94024   0.973   7.760   0.457  0.1961  0.8359  0.1993
29726SOL    HW194025   1.009   7.673   0.473  0.1188  0.9352  0.9278
29726SOL    HW294026   0.884   7.756   0.491 -0.0601  0.9685 -0.4624
29727SOL     OW94027   0.892   7.994   9.499 -0.2484  0.3798 -0.3307
29727SOL    HW194028   0.797   8.007   9.497 -0.0086  2.2054 -0.7446
29727SOL    HW294029   0.917   7.982   9.408  0.0233  0.6352 -0.2895
29728SOL     OW94030   8.451   7.292   9.258 -0.0003  0.0085 -0.6827
29728SOL    HW194031   8.383   7.226   9.269  1.8680 -1.8471 -0.1605
29728SOL    HW294032   8.467   7.325   9.346 -0.5740  0.8099 -0.8737
29729SOL     OW94033   0.844   7.238   1.108  0.2427 -0.0234  0.1259
29729SOL    HW194034   0.934   7.268   1.117  0.3525 -0.7941  1.6767
29729SOL    HW294035   0.843   7.151   1.148 -0.8259 -0.7152 -1.3238
29730SOL     OW94036   9.755   7.050   0.682  0.2925 -0.0390  0.1321
29730SOL    HW194037   9.743   6.955   0.674  0.5148 -0.0320 -0.2939
29730SOL    HW294038   9.769   7.080   0.592  2.1554  0.1382  0.4594
29731SOL     OW94039   7.866   7.211   0.312 -0.4958 -0.0414  0.0090
29731SOL    HW194040   7.959   7.232   0.312 -0.8836  1.7884  0.2457
29731SOL    HW294041   7.845   7.193   0.221 -0.2719  1.2415 -0.2967
29732SOL     OW94042   7.929   8.627   0.521 -0.1343  0.3776  0.6723
29732SOL    HW194043   7.992   8.561   0.552 -0.0934 -0.2627 -0.7117
29732SOL    HW294044   7.844   8.595   0.551 -0.0670 -0.1174  0.3584
29733SOL     OW94045   8.452   5.554   0.841 -0.2307  0.2696 -0.0583
29733SOL    HW194046   8.546   5.537   0.844 -0.4130 -0.6599  0.7044
29733SOL    HW294047   8.422   5.509   0.762 -0.1782 -0.2021  0.1883
29734SOL     OW94048   9.971   8.323   1.605 -0.1642  0.1523  0.7061
29734SOL    HW194049  10.000   8.274   1.528 -0.0052  1.2491  0.0604
29734SOL    HW294050   9.887   8.361   1.579 -0.3207  0.1785  1.2318
29735SOL     OW94051   0.134   8.867   1.903 -0.4762 -0.1389 -0.3900
29735SOL    HW194052   0.130   8.825   1.988 -1.4125  0.0510 -0.3373
29735SOL    HW294053   0.077   8.944   1.911 -1.0139 -0.4245 -1.3462
29736SOL     OW94054   0.133   8.720   1.353 -0.5950 -0.0228 -0.5704
29736SOL    HW194055   0.059   8.775   1.379 -1.6676 -1.1004 -1.2710
29736SOL    HW294056   0.201   8.739   1.417 -1.5139  0.9106  0.1453
29737SOL     OW94057   9.706   8.302   1.346  0.6125  0.0102 -0.1735
29737SOL    HW194058   9.705   8.210   1.319  2.2474 -0.4615  1.3045
29737SOL    HW294059   9.798   8.327   1.344  0.0183  2.1835 -2.3240
29738SOL     OW94060   0.124   8.506   3.571 -0.5346  0.7508  0.9146
29738SOL    HW194061   0.067   8.430   3.568  0.1853  0.2603 -1.1286
29738SOL    HW294062   0.135   8.525   3.664  0.1888 -2.3130  1.4779
29739SOL     OW94063   0.944   7.320   1.583 -0.0542 -0.4776  0.1241
29739SOL    HW194064   0.916   7.229   1.579  0.1551 -0.5444  0.2162
29739SOL    HW294065   0.872   7.365   1.629  0.6164 -0.8956  1.6163
29740SOL     OW94066   0.115   9.183   2.524  0.1112  0.0595  0.1402
29740SOL    HW194067   0.182   9.188   2.593  0.5232 -1.4552 -0.1234
29740SOL    HW294068   0.048   9.125   2.561 -1.4074  2.1219  0.6781
29741SOL     OW94069   9.701   9.805   9.747 -0.3031 -0.3286  0.4816
29741SOL    HW194070   9.791   9.837   9.752 -0.4005 -0.1554  1.2060
29741SOL    HW294071   9.649   9.872   9.793 -1.0436  0.4502 -1.4103
29742SOL     OW94072   0.241   7.810   0.523  0.1919  0.0687  0.4022
29742SOL    HW194073   0.244   7.725   0.567 -1.3457 -0.5716 -0.6842
29742SOL    HW294074   0.332   7.827   0.498  0.6784 -0.7329  1.5804
29743SOL     OW94075   8.517   8.408   9.641 -0.5082 -0.3801  0.0359
29743SOL    HW194076   8.488   8.477   9.581  2.9925 -0.6238 -2.0959
29743SOL    HW294077   8.583   8.451   9.696  1.0575 -1.7602 -0.7207
29744SOL     OW94078   0.087   7.278   0.719 -0.2058  0.0966 -0.2217
29744SOL    HW194079   0.086   7.201   0.775 -1.8723  0.5189  0.3477
29744SOL    HW294080  -0.005   7.292   0.695  0.2492  1.0579 -1.4840
29745SOL     OW94081   9.306   7.612   1.872  0.2309  0.0732  0.0091
29745SOL    HW194082   9.306   7.699   1.833  2.0275  1.1874  2.3380
29745SOL    HW294083   9.270   7.555   1.804 -1.2005  2.6523 -1.4681
29746SOL     OW94084   9.134   7.763   1.040  0.0107  0.4594 -0.1090
29746SOL    HW194085   9.142   7.725   0.953 -0.0071  1.6538 -0.6487
29746SOL    HW294086   9.221   7.752   1.079 -0.7973 -2.8491  0.9223
29747SOL     OW94087   0.061   7.444   1.289  0.0016 -0.9511 -0.2475
29747SOL    HW194088   0.047   7.425   1.196  0.4213 -2.4237 -0.0288
29747SOL    HW294089  -0.027   7.449   1.327 -0.2717  1.9339 -1.1201
29748SOL     OW94090   9.939   9.002   0.709  0.0802 -0.6378 -0.1371
29748SOL    HW194091   9.928   8.910   0.686 -2.3560 -0.1349 -1.1518
29748SOL    HW294092   9.903   9.009   0.798  0.8782 -0.7822  0.2008
29749SOL     OW94093   8.817   8.908   2.152  0.3958 -0.4770 -0.5140
29749SOL    HW194094   8.732   8.910   2.110 -0.0058  0.6728  0.2990
29749SOL    HW294095   8.835   9.000   2.173 -0.1841 -1.1185  3.2390
29750SOL     OW94096   8.595   9.434   1.868  0.1744 -0.3836  0.1021
29750SOL    HW194097   8.503   9.452   1.885  0.7265  1.0676  1.7786
29750SOL    HW294098   8.614   9.480   1.786 -0.7056 -1.1051 -0.5096
29751SOL     OW94099   1.069   7.828   2.790 -0.6162 -0.2224 -0.1174
29751SOL    HW194100   1.128   7.898   2.762 -1.7101 -0.0224 -2.0396
29751SOL    HW294101   1.040   7.854   2.878  1.3131  0.1980  0.4077
29752SOL     OW94102   0.401   7.348   1.029  0.1579  0.4148  0.0046
29752SOL    HW194103   0.397   7.418   1.093  1.1553  1.3575 -0.9372
29752SOL    HW294104   0.313   7.311   1.028  0.3059 -0.0989  2.4253
29753SOL     OW94105   9.032   8.397   2.065 -0.5763 -0.4755  0.1097
29753SOL    HW194106   9.009   8.489   2.055 -0.8411 -0.4605  0.7686
29753SOL    HW294107   9.125   8.397   2.087 -0.8681 -0.2772  1.3869
29754SOL     OW94108   9.024   7.721   9.916 -0.5949  0.2600 -0.0057
29754SOL    HW194109   9.118   7.729   9.928 -0.5021 -1.1056  0.2384
29754SOL    HW294110   9.006   7.627   9.926 -1.7395  0.2573 -1.8249
29755SOL     OW94111   9.930   7.870   1.387  0.0741  0.3257 -0.3670
29755SOL    HW194112   9.985   7.816   1.330  1.1909  0.5257  0.4919
29755SOL    HW294113   9.947   7.837   1.475 -0.3587  1.1155  0.0235
29756SOL     OW94114   9.764   8.032   2.795 -0.2385  0.4565  0.1255
29756SOL    HW194115   9.790   8.117   2.830  0.1540 -0.8279  3.0852
29756SOL    HW294116   9.676   8.017   2.831  1.0961 -1.9144  2.5531
29757SOL     OW94117   9.418   9.301   2.065  0.3467  0.4543 -0.3029
29757SOL    HW194118   9.346   9.302   2.127 -1.6870  0.8561 -2.6050
29757SOL    HW294119   9.447   9.210   2.062 -0.9726  0.0381 -0.3926
29758SOL     OW94120   8.819   0.407   1.750 -0.0424  0.7204 -0.7345
29758SOL    HW194121   8.756   0.472   1.719  0.6149  1.7509  0.0591
29758SOL    HW294122   8.851   0.443   1.833 -1.1585 -1.5697  0.7352
29759SOL     OW94123   8.469   7.393   1.198 -0.1050 -0.5476 -0.4973
29759SOL    HW194124   8.509   7.320   1.247 -0.8810  0.9198  2.4511
29759SOL    HW294125   8.382   7.361   1.175 -0.9600 -0.0896  2.0001
29760SOL     OW94126   9.096   7.854   9.571 -0.0395 -0.8796 -0.3670
29760SOL    HW194127   9.127   7.875   9.660 -0.4144 -1.3352 -0.1282
29760SOL    HW294128   9.172   7.868   9.515 -0.6963  2.7975 -0.4639
29761SOL     OW94129   7.666   9.419   9.163  0.0560  0.4056  0.5069
29761SOL    HW194130   7.646   9.468   9.084  0.1408 -1.9401 -1.0212
29761SOL    HW294131   7.581   9.410   9.208  0.1797  2.6190  1.2471
29762SOL     OW94132   0.089   9.066   0.459  0.0802  0.0080 -0.1038
29762SOL    HW194133   0.111   9.158   0.466  0.7534 -0.2597  1.4509
29762SOL    HW294134   0.038   9.047   0.538 -2.2096 -0.3749 -1.5956
29763SOL     OW94135   8.234   7.801   1.340 -0.2984  0.2304 -0.6326
29763SOL    HW194136   8.228   7.810   1.245  1.4698  1.0179 -0.6917
29763SOL    HW294137   8.153   7.840   1.373  0.1176  2.1010 -1.7245
29764SOL     OW94138   8.702   7.728   1.881 -0.1618  0.5302  0.3699
29764SOL    HW194139   8.748   7.717   1.964 -2.6589 -1.5899  1.5488
29764SOL    HW294140   8.754   7.677   1.818 -0.1266 -0.7209  1.3916
29765SOL     OW94141   7.412   8.635   0.759 -0.2954  1.1695 -0.1833
29765SOL    HW194142   7.396   8.616   0.667  1.6169 -2.4339  0.1198
29765SOL    HW294143   7.334   8.683   0.788 -1.3031  1.5974 -3.4346
29766SOL     OW94144   0.819   7.985   9.781  0.2911  0.0807 -0.6139
29766SOL    HW194145   0.754   7.995   9.850 -0.0299 -0.4803 -0.8296
29766SOL    HW294146   0.857   8.072   9.770  1.7421 -0.2512  1.6354
29767SOL     OW94147   8.886   8.755   2.597  0.0040 -0.1188 -0.0803
29767SOL    HW194148   8.938   8.691   2.645  1.4377  0.7900 -0.3749
29767SOL    HW294149   8.847   8.810   2.664  2.6200  1.6297  0.1071
29768SOL     OW94150   1.469   0.609   1.968  0.3059  0.0207  0.0217
29768SOL    HW194151   1.475   0.587   1.875  1.8342 -3.2961  0.8401
29768SOL    HW294152   1.543   0.667   1.984  0.7399 -0.3619 -0.5697
29769SOL     OW94153   9.352   7.963   9.527 -0.4891  0.4857 -0.0132
29769SOL    HW194154   9.441   7.997   9.538 -0.2477  0.3065 -1.3971
29769SOL    HW294155   9.357   7.904   9.452 -1.7137  0.2292  0.0876
29770SOL     OW94156   8.500   8.098   1.979 -0.0809 -0.1647  0.2176
29770SOL    HW194157   8.459   8.105   2.064 -1.5846 -4.6595 -0.0315
29770SOL    HW294158   8.588   8.064   1.997 -0.1434 -0.4346  0.0190
29771SOL     OW94159   0.463   8.115   8.735  0.8895 -0.2613  0.5226
29771SOL    HW194160   0.483   8.103   8.828 -0.0330  1.1182  0.9187
29771SOL    HW294161   0.431   8.205   8.729  2.5078  0.2190 -1.4201
29772SOL     OW94162   9.575   9.111   2.337 -0.2789 -0.1696  0.0478
29772SOL    HW194163   9.522   9.175   2.384 -1.2726 -1.1574  0.2887
29772SOL    HW294164   9.571   9.032   2.391  0.5270 -0.5955 -0.4948
29773SOL     OW94165   9.245   7.678   0.408  0.2675  0.0467 -0.5486
29773SOL    HW194166   9.336   7.704   0.395  0.4727  0.2148  1.0878
29773SOL    HW294167   9.196   7.729   0.343  1.3593 -0.2513 -1.6245
29774SOL     OW94168   9.903   7.401   1.041 -0.3062 -0.1079  0.2731
29774SOL    HW194169   9.954   7.468   0.995 -1.5343 -0.1077 -1.1148
29774SOL    HW294170   9.913   7.322   0.988 -0.0272 -0.6664  1.1401
29775SOL     OW94171   8.719   7.552   8.711 -0.1256 -0.9640 -0.0906
29775SOL    HW194172   8.624   7.554   8.721 -0.3732 -1.2608 -2.2468
29775SOL    HW294173   8.747   7.483   8.771 -1.1298 -0.0632  1.4577
29776SOL     OW94174   8.362   9.768   1.957  0.4650  0.2383 -0.2530
29776SOL    HW194175   8.290   9.799   1.902 -0.3777 -2.1782 -0.5592
29776SOL    HW294176   8.440   9.812   1.922 -0.3008 -0.0266 -2.3454
29777SOL     OW94177   0.753   6.181   3.676 -0.2085  0.1241 -0.2634
29777SOL    HW194178   0.687   6.222   3.732 -0.4182 -0.5084 -0.0367
29777SOL    HW294179   0.756   6.090   3.706  0.3996  0.0261 -0.6149
29778SOL     OW94180   1.089   6.589   3.761  0.2920 -0.2115 -0.7503
29778SOL    HW194181   1.043   6.612   3.842  4.1060 -0.4906  1.6139
29778SOL    HW294182   1.049   6.645   3.694 -1.3158  1.8082  1.8019
29779SOL     OW94183   9.691   7.185   3.697  0.1230 -0.0275 -0.0992
29779SOL    HW194184   9.684   7.119   3.766 -1.8008 -0.5948 -0.8007
29779SOL    HW294185   9.606   7.229   3.697  0.6655  1.0512 -1.0383
29780SOL     OW94186   0.369   8.246   4.063  0.1221  0.3377  0.3084
29780SOL    HW194187   0.408   8.310   4.123  4.8918 -1.2960 -0.8520
29780SOL    HW294188   0.342   8.298   3.987 -0.4911  1.5755  1.3461
29781SOL     OW94189   9.536   0.151   2.068  0.1264 -0.0315 -0.1569
29781SOL    HW194190   9.501   0.219   2.010  1.0968  1.3514  0.8271
29781SOL    HW294191   9.600   0.197   2.123  0.7398 -1.7314  0.6011
29782SOL     OW94192   8.816   8.911   4.537  0.2830  0.4593  0.1772
29782SOL    HW194193   8.833   9.004   4.521 -2.2818  0.9515  0.1427
29782SOL    HW294194   8.837   8.869   4.454  1.2457  1.0237  0.1236
29783SOL     OW94195   8.629   9.608   1.652  0.3205 -0.2821 -0.4604
29783SOL    HW194196   8.550   9.570   1.613  0.8819  0.0354 -1.9264
29783SOL    HW294197   8.669   9.660   1.582  1.2704  0.4302  0.5772
29784SOL     OW94198   8.879   7.706   1.521 -0.0030 -0.4667 -0.0189
29784SOL    HW194199   8.921   7.656   1.590  0.3789 -0.4568 -0.2448
29784SOL    HW294200   8.803   7.653   1.495 -0.6482 -0.0622  1.0017
29785SOL     OW94201   1.274   9.190   2.497  0.0074  0.3298  0.0565
29785SOL    HW194202   1.286   9.104   2.538  1.2817 -0.4073 -1.7656
29785SOL    HW294203   1.221   9.171   2.419  1.5261  0.9147 -1.1623
29786SOL     OW94204   9.156   8.574   3.509 -0.2888  0.3946 -0.5693
29786SOL    HW194205   9.066   8.553   3.486  0.1974 -1.2996 -0.9657
29786SOL    HW294206   9.164   8.549   3.602  0.0107 -0.2474 -0.7675
29787SOL     OW94207   0.545   9.446   3.233  0.5141  0.4090  0.4192
29787SOL    HW194208   0.531   9.354   3.211  1.5855  0.4336 -0.3646
29787SOL    HW294209   0.457   9.480   3.251 -0.4508  0.3930 -3.8121
29788SOL     OW94210   9.526   8.585   3.107 -0.4725 -0.6933 -0.0935
29788SOL    HW194211   9.555   8.494   3.112 -0.2402 -0.7487 -2.0634
29788SOL    HW294212   9.505   8.599   3.015  0.1360  1.4431  0.0482
29789SOL     OW94213   0.572   7.989   3.174  0.2034  0.0229  0.2222
29789SOL    HW194214   0.651   8.010   3.225  1.2215  0.4196 -1.4442
29789SOL    HW294215   0.574   7.894   3.165 -0.4836 -0.1396  1.6843
29790SOL     OW94216   1.133   7.982   3.978  0.0453 -0.3815  0.3280
29790SOL    HW194217   1.186   8.048   3.934  0.7745 -1.3840 -0.3162
29790SOL    HW294218   1.045   7.993   3.941  0.0606  0.5233  0.5570
29791SOL     OW94219   8.681   5.650   2.419 -0.4449  0.4220  0.3859
29791SOL    HW194220   8.648   5.738   2.436  0.3349  0.9493 -0.7312
29791SOL    HW294221   8.761   5.664   2.370 -0.6682 -0.9318 -0.3920
29792SOL     OW94222   8.834   6.219   1.162 -0.0259 -0.3775 -0.2219
29792SOL    HW194223   8.769   6.156   1.131  0.3394 -0.4305 -0.8967
29792SOL    HW294224   8.798   6.304   1.138 -0.4700 -0.3264  0.5961
29793SOL     OW94225   8.399   9.080   3.464  0.1841  0.0614 -0.2342
29793SOL    HW194226   8.344   9.156   3.446 -0.3156 -0.4269 -0.7874
29793SOL    HW294227   8.394   9.027   3.384 -0.5180 -1.1903  0.6231
29794SOL     OW94228   9.895   7.832   1.995  0.5252 -0.1082  0.9004
29794SOL    HW194229   9.833   7.859   1.927  0.2902  0.2222  1.2428
29794SOL    HW294230   9.979   7.828   1.950  0.1415 -1.3166  0.2395
29795SOL     OW94231   9.916   8.633   3.713  0.2676  0.3189  0.1990
29795SOL    HW194232   9.999   8.604   3.752 -0.1231 -1.5333 -0.3238
29795SOL    HW294233   9.859   8.556   3.717 -2.4173  2.3278  3.1300
29796SOL     OW94234   9.442   7.247   2.688  0.0415 -0.3796 -0.4910
29796SOL    HW194235   9.516   7.192   2.660 -0.1482 -0.4412 -0.8785
29796SOL    HW294236   9.413   7.290   2.608  0.3295  0.4661 -0.1426
29797SOL     OW94237   0.085   1.207   2.291 -0.0326  0.4930  0.0150
29797SOL    HW194238   0.141   1.201   2.214  0.9558  0.8090  0.7023
29797SOL    HW294239   0.145   1.200   2.365 -1.1984 -1.7147  0.7683
29798SOL     OW94240   0.311   8.198   1.534 -0.3741 -0.4355  0.0447
29798SOL    HW194241   0.264   8.280   1.549  1.2104  0.4007  0.4561
29798SOL    HW294242   0.241   8.133   1.525 -1.6099  0.6601  1.3455
29799SOL     OW94243   9.667   7.585   2.169 -0.8584  0.6789  0.1025
29799SOL    HW194244   9.738   7.648   2.182 -1.7813  1.5674  0.9136
29799SOL    HW294245   9.624   7.614   2.088  0.2574 -0.4187 -0.9165
29800SOL     OW94246   0.539   8.031   2.278  0.0714 -0.5320  0.2400
29800SOL    HW194247   0.564   8.110   2.327  0.4662 -1.1988  1.1387
29800SOL    HW294248   0.453   8.051   2.241 -0.2991 -0.0649  1.3394
29801SOL     OW94249   9.524   7.517   2.897 -0.0948  0.6090 -0.2431
29801SOL    HW194250   9.591   7.577   2.931  0.0141  0.8431 -0.8613
29801SOL    HW294251   9.566   7.476   2.821 -0.3303  0.0785 -0.0896
29802SOL     OW94252   8.420   6.419   1.348  0.1697 -0.1131 -0.0215
29802SOL    HW194253   8.379   6.335   1.328  0.1133 -0.5231  1.7839
29802SOL    HW294254   8.405   6.471   1.269 -0.7675 -1.4138 -0.7344
29803SOL     OW94255   0.989   7.966   3.003 -0.0810 -0.0416  0.3036
29803SOL    HW194256   0.917   8.018   2.968 -1.0265 -0.9362  0.8884
29803SOL    HW294257   1.004   8.001   3.091 -2.3600 -2.3067  1.6550
29804SOL     OW94258   9.608   6.846   3.544 -0.1548  0.4314 -0.1377
29804SOL    HW194259   9.538   6.908   3.564 -2.3263 -0.8625 -3.2941
29804SOL    HW294260   9.677   6.899   3.503 -1.2480  1.0616 -1.1906
29805SOL     OW94261   1.196   8.430   1.472 -0.1362  0.3925  0.4867
29805SOL    HW194262   1.288   8.437   1.447 -0.1821 -2.2710 -0.5072
29805SOL    HW294263   1.185   8.495   1.542  1.6313  3.1418 -1.6943
29806SOL     OW94264   0.085   8.439   2.243  0.2209 -0.8775 -0.0926
29806SOL    HW194265   0.111   8.457   2.333  3.0309  0.8533 -1.1641
29806SOL    HW294266   0.001   8.483   2.233  1.2896  1.4574  0.8643
29807SOL     OW94267   0.951   8.011   2.519  0.0275 -1.5004 -0.9981
29807SOL    HW194268   0.935   7.998   2.426 -0.5895  0.8896 -1.2637
29807SOL    HW294269   0.864   8.030   2.556  0.6700  0.6343 -0.5090
29808SOL     OW94270   0.700   8.351   3.505 -0.0531 -0.8495 -0.1059
29808SOL    HW194271   0.687   8.445   3.518 -2.5280 -1.4513  2.3061
29808SOL    HW294272   0.774   8.329   3.562  0.9284 -0.2882 -1.1415
29809SOL     OW94273   0.186   7.794   3.836 -0.3378  0.1286 -0.2318
29809SOL    HW194274   0.178   7.732   3.763 -0.0803 -0.4957  0.2646
29809SOL    HW294275   0.126   7.865   3.813 -0.0403  0.0763 -1.1890
29810SOL     OW94276   0.121   7.150   3.458 -0.5731 -0.0547 -0.4074
29810SOL    HW194277   0.054   7.218   3.457 -1.0470 -0.5249 -2.5288
29810SOL    HW294278   0.084   7.079   3.405  1.1024 -0.7997 -0.6024
29811SOL     OW94279   2.090   8.213   2.985 -0.1231  0.3363 -0.9714
29811SOL    HW194280   2.136   8.285   3.027 -0.5955  1.0715 -1.6834
29811SOL    HW294281   2.153   8.141   2.983  0.2093  0.5948  0.1256
29812SOL     OW94282   9.269   6.413   2.237 -0.2213 -0.0028  0.3209
29812SOL    HW194283   9.235   6.502   2.238 -1.1272 -0.3244 -0.8093
29812SOL    HW294284   9.342   6.415   2.299  0.0399  1.6302 -0.0052
29813SOL     OW94285   8.967   9.907   2.366 -0.0442  0.1387 -0.5819
29813SOL    HW194286   8.940   9.978   2.424 -1.3081 -0.4554 -0.4197
29813SOL    HW294287   8.893   9.846   2.367  1.0252 -1.1939 -0.7049
29814SOL     OW94288   9.313   7.981   2.536  0.1078  0.2032 -0.5739
29814SOL    HW194289   9.383   8.014   2.591 -0.9043  1.4185  0.0197
29814SOL    HW294290   9.266   8.059   2.507 -0.2841 -0.5158 -1.9258
29815SOL     OW94291   9.509   8.435   1.546 -0.1794  0.5118  0.1387
29815SOL    HW194292   9.508   8.375   1.471 -1.3796 -0.9355  1.2605
29815SOL    HW294293   9.528   8.521   1.508 -1.1733 -0.1192 -1.8776
29816SOL     OW94294   0.323   8.823   2.717 -0.2548 -0.4051  0.1314
29816SOL    HW194295   0.268   8.805   2.641  1.6517 -2.2365 -0.8742
29816SOL    HW294296   0.372   8.902   2.694 -1.0583  0.1379  0.2601
29817SOL     OW94297   9.816   9.857   3.356 -0.1705 -0.1611 -0.6128
29817SOL    HW194298   9.773   9.901   3.429 -0.2611 -1.1234 -0.0907
29817SOL    HW294299   9.865   9.785   3.396  1.1838  0.3472 -1.2898
29818SOL     OW94300   8.774   9.914   2.840 -0.5103  0.1434 -0.0291
29818SOL    HW194301   8.762  10.007   2.855  1.2112  0.3362  0.2592
29818SOL    HW294302   8.772   9.875   2.927  1.1975  0.2264  0.0610
29819SOL     OW94303   0.214   9.915   2.770  0.2872 -0.0175 -0.7133
29819SOL    HW194304   0.170   9.838   2.735 -0.0535 -0.2443  0.2102
29819SOL    HW294305   0.156   9.947   2.839 -0.3189  1.9765 -2.1144
29820SOL     OW94306   9.910   7.655   3.113 -0.1494  0.4216 -0.4108
29820SOL    HW194307   9.839   7.671   3.175 -0.5476 -1.2604 -0.4068
29820SOL    HW294308   9.913   7.733   3.058 -2.3773  0.2815 -0.7710
29821SOL     OW94309   9.621   8.051   3.196  0.0775  0.4860 -0.1461
29821SOL    HW194310   9.609   8.024   3.105 -1.5886 -1.1422  0.5257
29821SOL    HW294311   9.541   8.100   3.216  0.1238  0.2284  0.6562
29822SOL     OW94312   9.058   9.378   3.166 -0.5018 -0.2068  0.0526
29822SOL    HW194313   9.075   9.316   3.095  1.1380 -0.3886  0.5941
29822SOL    HW294314   9.131   9.366   3.227 -0.2599  2.1471  0.2518
29823SOL     OW94315   9.324   9.679   3.533 -0.6118 -0.3201 -0.3186
29823SOL    HW194316   9.318   9.765   3.491 -0.6302  0.4757  1.2504
29823SOL    HW294317   9.286   9.693   3.620 -0.0770 -1.7781  0.1583
29824SOL     OW94318   9.209   7.884   1.800 -0.4719  0.6713  0.7008
29824SOL    HW194319   9.285   7.921   1.844 -0.6015 -0.1294  1.6152
29824SOL    HW294320   9.140   7.884   1.867 -0.8837  0.1489  0.2808
29825SOL     OW94321   8.295   7.873   2.371 -0.0595  0.3050  0.6122
29825SOL    HW194322   8.390   7.884   2.371 -0.1096  0.9118  2.4595
29825SOL    HW294323   8.261   7.955   2.406 -1.1329 -0.6711  1.9193
29826SOL     OW94324   1.390   8.326   2.927  0.3388 -0.0626  0.0425
29826SOL    HW194325   1.428   8.243   2.956 -2.0200 -0.6368  1.6449
29826SOL    HW294326   1.462   8.372   2.884  2.6174 -1.4680  2.2086
29827SOL     OW94327   8.902   7.562   1.771  0.3146 -0.2167  0.2820
29827SOL    HW194328   8.904   7.468   1.793  0.3626 -0.5640 -1.1634
29827SOL    HW294329   8.956   7.603   1.838  0.8596 -1.3155  0.5301
29828SOL     OW94330   0.921   6.846   4.212  0.2783  0.0372 -0.1539
29828SOL    HW194331   0.841   6.806   4.244  0.7410 -0.9332 -0.2098
29828SOL    HW294332   0.912   6.845   4.116 -0.2617  1.2111 -0.1233
29829SOL     OW94333   9.360   8.599   1.214 -0.1364 -0.4570 -0.0803
29829SOL    HW194334   9.372   8.683   1.258  0.9832  0.0345 -1.2997
29829SOL    HW294335   9.272   8.604   1.176  0.1570  0.3832 -0.6397
29830SOL     OW94336   0.368   7.591   2.543 -0.0150  0.0888  0.2282
29830SOL    HW194337   0.366   7.624   2.453 -1.2944  0.7808  0.4991
29830SOL    HW294338   0.295   7.529   2.547 -0.3589  0.5421  0.9744
29831SOL     OW94339   8.794   8.605   3.002  0.4340 -0.4747 -0.4799
29831SOL    HW194340   8.762   8.666   2.936 -0.8858 -0.9839 -0.3216
29831SOL    HW294341   8.866   8.559   2.959  1.1602  0.8924 -0.7401
29832SOL     OW94342   9.183   7.919   3.481 -0.1595 -0.0480 -0.0416
29832SOL    HW194343   9.195   7.964   3.397  1.8402  2.8555  1.6973
29832SOL    HW294344   9.253   7.854   3.484  0.9449  1.1223  0.1296
29833SOL     OW94345   1.266   7.426   0.654  0.2000 -0.0819 -0.0618
29833SOL    HW194346   1.226   7.416   0.568  0.3451  1.7039 -0.3613
29833SOL    HW294347   1.194   7.454   0.711  0.1277 -1.1448  0.3687
29834SOL     OW94348   9.447   9.325   1.525  1.1773  1.0742  0.5290
29834SOL    HW194349   9.462   9.231   1.514  1.7325  1.0566  1.3532
29834SOL    HW294350   9.442   9.337   1.620  1.3060  1.9048  0.4331
29835SOL     OW94351   0.148   8.167   2.446  0.3209  0.0447 -0.2173
29835SOL    HW194352   0.177   8.079   2.470  1.5909  0.3928 -0.4017
29835SOL    HW294353   0.208   8.194   2.376  1.1916  1.7712  1.1379
29836SOL     OW94354   8.602   8.872   2.966  0.1603  0.3007  0.2126
29836SOL    HW194355   8.688   8.912   2.957  0.3984  0.2724  2.0467
29836SOL    HW294356   8.554   8.899   2.887  0.9731  2.5278  0.4394
29837SOL     OW94357   9.913   7.326   3.588 -0.7172  0.6681 -0.2881
29837SOL    HW194358   9.889   7.260   3.654  0.8760  1.7180  1.3820
29837SOL    HW294359   9.830   7.352   3.550 -1.3286 -2.9085 -1.5909
29838SOL     OW94360   9.033   8.890   4.751  0.6483 -0.6195 -0.6591
29838SOL    HW194361   8.938   8.885   4.744  0.6321  0.1768 -1.0994
29838SOL    HW294362   9.062   8.921   4.665  1.0343  2.4118  0.5056
29839SOL     OW94363   9.845   7.155   3.997  0.1290 -0.0500 -0.0544
29839SOL    HW194364   9.850   7.085   4.062  0.6650 -1.2200 -1.3112
29839SOL    HW294365   9.751   7.170   3.984 -0.0139 -1.7265 -1.0080
29840SOL     OW94366   0.223   8.332   5.762  0.6807 -0.0505  0.5581
29840SOL    HW194367   0.179   8.248   5.748 -3.4961  1.9533  0.6742
29840SOL    HW294368   0.281   8.317   5.836 -0.1971 -2.7411  0.7702
29841SOL     OW94369   0.347   7.082   6.130 -0.2424 -0.0032 -0.0016
29841SOL    HW194370   0.376   7.033   6.053  1.2189 -0.6855  0.9684
29841SOL    HW294371   0.304   7.159   6.094  0.4003 -0.3274 -1.5059
29842SOL     OW94372   9.887   9.929   4.846 -0.0571  0.5654 -0.0287
29842SOL    HW194373   9.864   9.941   4.754 -2.1476  0.7763  0.4908
29842SOL    HW294374   9.983   9.926   4.847 -0.0319 -0.1832 -2.2885
29843SOL     OW94375   9.289   8.599   5.272 -0.0497 -0.3344 -0.4141
29843SOL    HW194376   9.362   8.546   5.304  0.5885  0.8166  0.1048
29843SOL    HW294377   9.239   8.540   5.216  1.3563 -1.1230 -0.8898
29844SOL     OW94378   9.623   9.172   4.315 -0.0984 -0.4764  0.1826
29844SOL    HW194379   9.594   9.200   4.228  0.6694  0.8808  0.3564
29844SOL    HW294380   9.679   9.096   4.297 -1.7021 -1.5750 -0.3282
29845SOL     OW94381   9.555   9.053   3.769 -0.5306 -0.0317  0.1478
29845SOL    HW194382   9.473   9.040   3.816 -0.6757  0.0610 -0.0817
29845SOL    HW294383   9.530   9.058   3.677 -0.3017  0.2761  0.1009
29846SOL     OW94384   0.185   8.947   4.819 -0.7128  0.5638 -0.6295
29846SOL    HW194385   0.258   9.003   4.847 -0.1281 -1.0015  1.0279
29846SOL    HW294386   0.160   8.983   4.734  1.2387  1.8449 -0.7111
29847SOL     OW94387   8.394   7.499   4.219 -0.0463  0.4853 -0.2041
29847SOL    HW194388   8.357   7.412   4.233  1.8020 -0.0359  1.6541
29847SOL    HW294389   8.476   7.482   4.172 -0.3849  1.3484 -1.1246
29848SOL     OW94390   9.331   8.765   3.316 -0.2743  0.3862 -0.4698
29848SOL    HW194391   9.271   8.700   3.352 -0.9731  0.7127 -1.0010
29848SOL    HW294392   9.395   8.714   3.267  2.7241 -0.3159  3.9435
29849SOL     OW94393   9.245   7.846   5.251 -0.1302 -0.2298 -0.3694
29849SOL    HW194394   9.300   7.876   5.178  2.0468 -2.4892  0.2442
29849SOL    HW294395   9.225   7.755   5.230 -1.3759 -0.2311  0.7650
29850SOL     OW94396   2.105   5.451   6.102  0.4018 -0.5384 -0.8182
29850SOL    HW194397   2.010   5.462   6.097  0.3391 -0.4561  0.4776
29850SOL    HW294398   2.138   5.494   6.023 -0.4420  1.7190  0.0140
29851SOL     OW94399   0.079   9.833   4.551 -0.2870 -0.1084  0.6061
29851SOL    HW194400   0.112   9.754   4.507 -1.9435 -0.0559 -0.8054
29851SOL    HW294401   0.145   9.853   4.617  0.3720 -2.4368  0.7071
29852SOL     OW94402   9.045   8.272   5.779  0.5743  0.0133 -0.6354
29852SOL    HW194403   9.119   8.312   5.824 -0.5371 -0.5236  1.7507
29852SOL    HW294404   8.999   8.344   5.738  1.2807  0.5970 -0.4012
29853SOL     OW94405   9.813   8.137   3.903 -0.4241 -0.4183 -0.2953
29853SOL    HW194406   9.719   8.148   3.891 -0.3959 -0.3623 -0.4661
29853SOL    HW294407   9.849   8.226   3.896 -0.3920 -0.4014  0.0688
29854SOL     OW94408   0.042   9.226   5.288  0.7224  0.5630 -0.2213
29854SOL    HW194409   0.052   9.317   5.315  3.5120 -0.3331  2.1156
29854SOL    HW294410   0.126   9.204   5.247  0.4419 -1.1943  0.0761
29855SOL     OW94411   9.340   8.038   5.449  0.1374 -0.3188  0.0579
29855SOL    HW194412   9.328   7.995   5.364  0.6163  0.3578 -0.3487
29855SOL    HW294413   9.299   8.124   5.439 -0.0085 -0.3251  0.5883
29856SOL     OW94414   2.159   7.869   4.485  0.1775  0.0968  0.1409
29856SOL    HW194415   2.233   7.809   4.478 -0.7382 -0.9047 -1.2617
29856SOL    HW294416   2.091   7.819   4.531 -0.9941 -0.3984 -2.0325
29857SOL     OW94417   9.958   8.865   3.837 -0.2489  0.5234 -0.9436
29857SOL    HW194418   9.958   8.785   3.784 -0.1662  0.7095 -1.2290
29857SOL    HW294419   9.982   8.934   3.775 -0.9414  0.8591 -0.8355
29858SOL     OW94420   9.114   8.691   4.908  0.0687 -0.2325 -0.1589
29858SOL    HW194421   9.089   8.750   4.837  1.2522  0.8277  0.2757
29858SOL    HW294422   9.082   8.735   4.987  1.3074  0.0333  0.2001
29859SOL     OW94423   0.610   6.626   6.537  0.1502 -0.0311 -0.4748
29859SOL    HW194424   0.623   6.698   6.599  0.0691  0.3913 -0.9496
29859SOL    HW294425   0.697   6.609   6.501  0.1072  0.0631 -0.6228
29860SOL     OW94426   8.812   0.541   5.108  0.0307 -0.0169 -0.2742
29860SOL    HW194427   8.887   0.498   5.149 -0.2511  0.7669  1.1099
29860SOL    HW294428   8.756   0.566   5.181 -1.4865 -0.4035 -1.2793
29861SOL     OW94429   9.987   7.403   4.044  0.2185 -0.3395 -0.4148
29861SOL    HW194430  10.024   7.322   4.079 -1.1204 -0.3253  1.0786
29861SOL    HW294431   9.936   7.375   3.969 -1.1942 -1.0543  0.7863
29862SOL     OW94432   0.477   7.664   4.254  0.2153  0.1486 -0.1617
29862SOL    HW194433   0.460   7.585   4.305  1.3003 -0.9400 -1.4482
29862SOL    HW294434   0.475   7.635   4.163  1.8643  1.3340 -0.6017
29863SOL     OW94435   8.937   8.328   4.482  0.7024  0.2930 -0.0347
29863SOL    HW194436   8.935   8.232   4.491 -2.5931  0.4474  1.5528
29863SOL    HW294437   8.896   8.345   4.398  1.8863  0.2962 -0.6172
29864SOL     OW94438   9.077   7.407   5.377 -0.6487  0.0408 -0.3407
29864SOL    HW194439   9.148   7.406   5.442 -0.9329 -0.0629 -0.0312
29864SOL    HW294440   9.108   7.469   5.310  1.0508 -2.2356 -1.7279
29865SOL     OW94441   0.022   8.902   5.084 -0.2808  0.0450  0.2761
29865SOL    HW194442   0.109   8.928   5.115 -0.2588 -0.4341  0.6203
29865SOL    HW294443  -0.038   8.939   5.149 -0.2515 -0.7364  0.7552
29866SOL     OW94444   0.620   7.210   3.137  0.0727  0.1905 -0.2378
29866SOL    HW194445   0.684   7.226   3.067  0.0419 -2.0112 -0.7982
29866SOL    HW294446   0.671   7.214   3.218  0.6831 -0.2277 -0.5956
29867SOL     OW94447   0.311   6.889   4.332 -0.0338  0.4850  0.5375
29867SOL    HW194448   0.316   6.913   4.240 -1.5562 -0.0372  0.3116
29867SOL    HW294449   0.233   6.834   4.339 -0.0227  0.6462  2.1592
29868SOL     OW94450   1.651   7.480   7.817  0.6505 -0.2220  0.6287
29868SOL    HW194451   1.677   7.480   7.910 -0.7322 -2.1649  1.0362
29868SOL    HW294452   1.731   7.506   7.771  0.9229  2.4220  2.4513
29869SOL     OW94453   9.792   7.509   5.635 -0.1841  0.4167 -0.5399
29869SOL    HW194454   9.855   7.475   5.698 -0.2609 -0.6532 -1.0399
29869SOL    HW294455   9.845   7.540   5.562 -0.1849  0.4372 -0.5325
29870SOL     OW94456   9.348   7.399   4.467 -0.0080  0.5692  0.1991
29870SOL    HW194457   9.296   7.352   4.402  0.2141  0.6867 -0.0634
29870SOL    HW294458   9.368   7.484   4.427 -1.6837  1.4968  1.2621
29871SOL     OW94459   1.032   7.895   5.313 -0.2648  0.5215  0.2434
29871SOL    HW194460   1.060   7.861   5.398  1.9977 -0.1075 -0.7361
29871SOL    HW294461   1.005   7.818   5.264 -2.7514  0.9994  0.7591
29872SOL     OW94462   9.545   0.045   5.993  0.0218 -0.0557 -0.1566
29872SOL    HW194463   9.516   0.121   5.943 -2.2872 -1.4047 -0.9594
29872SOL    HW294464   9.538  -0.029   5.932  1.7279 -1.0016  0.7565
29873SOL     OW94465   9.245   9.137   5.159  0.4842  0.1895 -0.4695
29873SOL    HW194466   9.151   9.146   5.174  0.3868 -2.2265  0.5764
29873SOL    HW294467   9.255   9.137   5.064 -0.4027  1.8652 -0.5728
29874SOL     OW94468   9.855   8.680   4.176 -0.2098  0.4963 -0.5629
29874SOL    HW194469   9.824   8.596   4.140  1.4155 -0.2650 -0.2440
29874SOL    HW294470   9.915   8.713   4.109  0.8783  0.3091  0.3156
29875SOL     OW94471   9.414   9.670   4.758 -0.1916  0.4120 -0.4164
29875SOL    HW194472   9.507   9.660   4.738 -0.2559  0.3143 -0.6693
29875SOL    HW294473   9.407   9.755   4.801 -0.3851  1.6908 -2.8979
29876SOL     OW94474   0.474   6.827   4.534  0.1081 -0.0126 -0.0652
29876SOL    HW194475   0.394   6.826   4.481 -0.0217 -1.8296  0.1330
29876SOL    HW294476   0.487   6.920   4.556 -1.8246  0.3242 -0.2551
29877SOL     OW94477   0.669   7.321   3.406  0.2064 -0.7828 -0.4011
29877SOL    HW194478   0.596   7.367   3.447 -0.0755 -0.7226 -0.9612
29877SOL    HW294479   0.672   7.236   3.450 -0.0354 -0.6837 -0.1963
29878SOL     OW94480   9.451   8.035   4.031  0.1707 -0.1545 -0.1933
29878SOL    HW194481   9.385   8.063   4.094 -0.5891 -2.4212  0.0364
29878SOL    HW294482   9.459   8.109   3.971 -0.7306  1.1373  1.2252
29879SOL     OW94483   9.900   8.306   5.365 -0.0817  0.2589 -0.2984
29879SOL    HW194484   9.921   8.358   5.443 -0.2537  0.3306 -0.2970
29879SOL    HW294485   9.982   8.302   5.316  0.4272 -1.1164  0.6487
29880SOL     OW94486   9.053   8.083   5.127 -0.2531  0.3717  0.2202
29880SOL    HW194487   9.108   8.059   5.052  0.5442  0.6663  0.7134
29880SOL    HW294488   9.081   8.023   5.197 -1.5983 -0.4917  0.0373
29881SOL     OW94489   9.250   7.144   5.869 -0.6078 -0.4962 -0.2897
29881SOL    HW194490   9.311   7.214   5.892  1.5808 -1.9164 -1.6014
29881SOL    HW294491   9.268   7.074   5.933 -2.5848  0.0112  0.8436
29882SOL     OW94492   8.718   8.407   5.506 -0.1465  0.1851  0.5050
29882SOL    HW194493   8.696   8.314   5.500 -0.2518  0.2477 -0.1407
29882SOL    HW294494   8.635   8.452   5.489 -0.0405  0.3991  0.5575
29883SOL     OW94495   9.880   7.477   6.689 -0.1777  0.1372 -0.0329
29883SOL    HW194496   9.820   7.432   6.748 -0.7944  1.7395  0.5631
29883SOL    HW294497   9.841   7.467   6.602 -0.8075  0.3476  0.2247
29884SOL     OW94498   8.667   9.030   3.378 -0.2292  0.2952  1.0119
29884SOL    HW194499   8.741   9.031   3.440 -1.5885 -1.9219  2.7302
29884SOL    HW294500   8.593   9.061   3.430 -0.1888  4.4873 -1.2459
29885SOL     OW94501   0.661   8.443   4.553  0.1566 -0.3643 -0.2152
29885SOL    HW194502   0.596   8.469   4.618  0.0212 -1.4279  0.0850
29885SOL    HW294503   0.720   8.519   4.546 -0.2604  0.0357  0.6008
29886SOL     OW94504   9.681   8.234   4.945  0.0244  0.1598 -0.8448
29886SOL    HW194505   9.724   8.315   4.917  0.9537 -0.1290 -0.2811
29886SOL    HW294506   9.691   8.234   5.040 -2.4209  0.7606 -0.5475
29887SOL     OW94507   9.228   7.664   3.267  0.0904  0.2933 -0.1305
29887SOL    HW194508   9.321   7.650   3.288  0.2291  2.4405  0.8006
29887SOL    HW294509   9.188   7.577   3.278  1.7122 -0.3488  0.9655
29888SOL     OW94510   9.836   8.011   5.282 -0.2056  0.7223 -0.0865
29888SOL    HW194511   9.879   8.078   5.335  0.0616  0.3891  0.1238
29888SOL    HW294512   9.878   8.017   5.196  0.8606 -0.1652  0.3607
29889SOL     OW94513   8.780   8.835   5.990 -0.0717  0.3068 -0.1685
29889SOL    HW194514   8.766   8.817   5.897  1.2042 -3.7103  0.3182
29889SOL    HW294515   8.705   8.796   6.034 -0.0349  1.0728  0.5867
29890SOL     OW94516   0.055   8.012   3.727 -0.3657  0.7058 -0.3725
29890SOL    HW194517   0.069   8.107   3.728 -0.9056  0.7846  0.9905
29890SOL    HW294518  -0.038   8.002   3.705 -0.7427  0.5783  1.1582
29891SOL     OW94519   0.700   9.838   4.418 -0.8308 -0.6759  0.3949
29891SOL    HW194520   0.623   9.794   4.453 -2.7148  0.0245 -2.6120
29891SOL    HW294521   0.693   9.928   4.452  0.5749 -1.4678  2.8880
29892SOL     OW94522   1.669   7.520   7.524  0.1770 -0.2926  0.2326
29892SOL    HW194523   1.611   7.444   7.523 -1.3824  0.8579  0.8837
29892SOL    HW294524   1.613   7.592   7.551  2.0160  0.7837  1.2721
29893SOL     OW94525   0.262   0.705   4.911 -0.6235  0.4777  0.5169
29893SOL    HW194526   0.353   0.715   4.884 -0.6506 -0.2641  0.1412
29893SOL    HW294527   0.232   0.627   4.866 -1.8923  1.5387 -0.5257
29894SOL     OW94528   0.773   7.354   4.413 -0.5831 -0.2764 -0.2394
29894SOL    HW194529   0.763   7.416   4.340  0.2128 -1.1469 -1.1053
29894SOL    HW294530   0.803   7.408   4.486  1.4397  0.1996 -1.3624
29895SOL     OW94531   9.528   9.492   4.197  0.1348  0.0936  0.3122
29895SOL    HW194532   9.433   9.490   4.208  0.1893  0.0612  0.7670
29895SOL    HW294533   9.551   9.583   4.214  0.2553 -0.0234  0.7642
29896SOL     OW94534   0.391   9.342   4.516  0.5168 -0.1089  0.1292
29896SOL    HW194535   0.303   9.365   4.545  1.0660  0.9966  0.9308
29896SOL    HW294536   0.422   9.279   4.581 -0.2649 -1.7105 -1.0204
29897SOL     OW94537   9.729   8.882   4.326 -0.0785  0.1482 -0.2264
29897SOL    HW194538   9.750   8.816   4.260 -0.0261 -0.4629  0.3942
29897SOL    HW294539   9.812   8.928   4.342 -0.0627  0.2135 -0.4965
29898SOL     OW94540   9.169   7.282   4.656 -0.8339  0.1794 -0.8417
29898SOL    HW194541   9.240   7.316   4.601  1.2012 -2.4783 -0.0063
29898SOL    HW294542   9.184   7.323   4.741 -0.2857 -0.4020 -0.6581
29899SOL     OW94543   0.542   5.691   6.316 -0.4095  0.2551  0.3013
29899SOL    HW194544   0.513   5.625   6.253 -0.3274 -0.5794  1.1310
29899SOL    HW294545   0.634   5.704   6.297 -0.5184  0.4223 -0.1178
29900SOL     OW94546   9.494   8.655   4.480  0.3103 -0.2337 -0.3755
29900SOL    HW194547   9.425   8.699   4.430  0.1545 -0.4025 -0.3100
29900SOL    HW294548   9.517   8.717   4.549 -0.3240 -0.4999  0.0754
29901SOL     OW94549   0.142   7.187   4.158  0.3290 -0.4645  0.4678
29901SOL    HW194550   0.205   7.208   4.227 -0.1559  1.4325  0.3555
29901SOL    HW294551   0.083   7.123   4.198  0.6720 -0.1533  1.4789
29902SOL     OW94552   7.939   8.549   5.306  0.1663  0.6305 -0.2176
29902SOL    HW194553   7.958   8.532   5.214  1.7117  2.7102 -0.3062
29902SOL    HW294554   8.025   8.565   5.345 -0.4234 -0.6965  1.6980
29903SOL     OW94555   9.183   8.127   3.723  0.0736 -0.3741 -0.2717
29903SOL    HW194556   9.252   8.193   3.728 -1.4856  1.3412 -0.8559
29903SOL    HW294557   9.227   8.049   3.689  1.9785  0.2775  0.6054
29904SOL     OW94558   9.431   7.314   6.517  0.3874  0.0953  0.6689
29904SOL    HW194559   9.466   7.230   6.548 -0.8514  0.1036  2.1521
29904SOL    HW294560   9.355   7.330   6.574 -0.5405  1.2689 -0.8872
29905SOL     OW94561   9.831   9.931   4.540 -0.0649  0.0855  0.0442
29905SOL    HW194562   9.854  10.024   4.538 -1.8771  0.5413 -0.6120
29905SOL    HW294563   9.914   9.886   4.558  1.0022  1.7645 -0.5615
29906SOL     OW94564   9.578   8.019   4.803 -0.5507 -0.1905  0.8431
29906SOL    HW194565   9.514   8.055   4.742 -0.7368  0.6073  1.4971
29906SOL    HW294566   9.632   8.094   4.828  1.5774 -1.1407 -0.8217
29907SOL     OW94567   9.214   8.136   4.382 -0.2779 -0.0769  0.5677
29907SOL    HW194568   9.299   8.105   4.351 -0.5078  0.2208 -0.3863
29907SOL    HW294569   9.165   8.153   4.302 -2.1818 -2.8196  1.0756
29908SOL     OW94570   0.642   8.068   5.009 -0.0453  0.0460  0.1263
29908SOL    HW194571   0.599   8.153   5.021  0.3971 -0.0888  2.7938
29908SOL    HW294572   0.627   8.048   4.916 -0.8340  2.6459 -0.3721
29909SOL     OW94573   8.602   7.857   3.892  0.2013 -0.0826 -0.7473
29909SOL    HW194574   8.661   7.920   3.851  2.7642 -0.8910  1.5708
29909SOL    HW294575   8.637   7.771   3.867 -0.3815 -0.5684  0.0700
29910SOL     OW94576   9.836   6.392   5.366  0.3837  0.1724 -0.7275
29910SOL    HW194577   9.912   6.353   5.410  0.9116 -0.0056 -1.7841
29910SOL    HW294578   9.786   6.432   5.437  0.6789 -1.0174  0.1714
29911SOL     OW94579   0.324   7.524   6.579  0.0139 -0.1587  0.3468
29911SOL    HW194580   0.372   7.540   6.498  1.0394  1.1119  1.1815
29911SOL    HW294581   0.247   7.475   6.552  1.2413 -1.3210 -1.1667
29912SOL     OW94582   8.918   6.499   6.667  0.1964  0.6068 -0.5210
29912SOL    HW194583   8.973   6.545   6.730  0.0902  0.7507 -0.5341
29912SOL    HW294584   8.950   6.528   6.581  0.1634  0.6181 -0.5295
29913SOL     OW94585   9.997   0.012   6.347 -0.6803  0.5560  0.5787
29913SOL    HW194586  10.026   0.082   6.289  1.0991 -0.0620  0.6763
29913SOL    HW294587   9.948  -0.048   6.292 -0.5506  0.8974  0.0937
29914SOL     OW94588   9.584   9.973   6.406 -0.6345 -0.2539 -0.4611
29914SOL    HW194589   9.496  10.005   6.389 -1.6441 -1.6001  1.9482
29914SOL    HW294590   9.594   9.897   6.349 -1.9970 -1.5958  1.0523
29915SOL     OW94591   0.365   9.741   6.290  0.0233 -0.0488  0.0915
29915SOL    HW194592   0.318   9.697   6.219  1.6550 -0.6964 -0.6308
29915SOL    HW294593   0.455   9.747   6.258  0.9246 -0.9316  2.3582
29916SOL     OW94594   0.055   7.570   7.329 -0.0954  0.7773 -0.2644
29916SOL    HW194595   0.103   7.488   7.333 -1.6745 -0.1613 -0.3685
29916SOL    HW294596   0.025   7.584   7.419 -0.8747  0.6049 -0.4957
29917SOL     OW94597   9.605   8.159   6.095  0.4778 -0.3799  0.5109
29917SOL    HW194598   9.622   8.226   6.029  0.0573 -0.0665  0.7126
29917SOL    HW294599   9.644   8.195   6.175  0.5396 -0.5233  0.5447
29918SOL     OW94600   9.132   9.359   7.878  0.3045 -0.2674 -0.0124
29918SOL    HW194601   9.202   9.420   7.901  0.3888 -0.5134  0.3872
29918SOL    HW294602   9.101   9.326   7.962  1.3343 -1.9766 -0.2981
29919SOL     OW94603   0.359   6.916   5.918 -0.1247 -0.3635  0.1669
29919SOL    HW194604   0.274   6.905   5.876 -0.5602 -0.3451  1.0284
29919SOL    HW294605   0.422   6.885   5.853 -0.7498  0.1019 -0.6721
29920SOL     OW94606   0.694   7.527   6.818 -0.2900  0.2949 -0.1279
29920SOL    HW194607   0.611   7.495   6.854  1.0044 -0.7559  1.9930
29920SOL    HW294608   0.757   7.518   6.889  1.5821  1.4684 -1.5771
29921SOL     OW94609   0.328   8.561   7.258  0.2956 -0.5550  0.4862
29921SOL    HW194610   0.360   8.652   7.259  0.3319 -0.5024 -1.8762
29921SOL    HW294611   0.402   8.510   7.290  0.6235  0.1503  0.8802
29922SOL     OW94612   0.067   7.807   8.803  0.0214 -0.8738 -0.8400
29922SOL    HW194613   0.141   7.842   8.752 -0.0653  1.4977  0.5931
29922SOL    HW294614   0.104   7.732   8.850  0.5503 -1.9983 -2.9581
29923SOL     OW94615   1.350   8.228   5.775  0.4672  0.0459 -0.4452
29923SOL    HW194616   1.369   8.187   5.860  0.1991  2.0973  0.6306
29923SOL    HW294617   1.422   8.289   5.762 -0.9019  1.6801 -0.4093
29924SOL     OW94618   8.895   8.094   7.689  0.1864 -0.9140 -0.5729
29924SOL    HW194619   8.865   8.161   7.751 -0.2028 -0.4861 -1.2232
29924SOL    HW294620   8.947   8.142   7.625  0.7362 -1.3841 -0.4789
29925SOL     OW94621   9.530   9.365   7.100 -0.0003 -0.1853  0.0886
29925SOL    HW194622   9.516   9.302   7.029  0.5458 -1.1124  0.7993
29925SOL    HW294623   9.617   9.400   7.084  0.5626 -1.1916  0.9080
29926SOL     OW94624   0.494   7.321   6.036  0.1284 -0.0496 -0.1655
29926SOL    HW194625   0.579   7.346   6.074 -0.5483 -0.8758  1.9525
29926SOL    HW294626   0.514   7.249   5.976  1.3291  1.8132 -2.0751
29927SOL     OW94627   9.626   6.855   5.133 -0.4473  0.0670  0.2737
29927SOL    HW194628   9.675   6.794   5.189 -0.5531  1.1175  1.5401
29927SOL    HW294629   9.690   6.885   5.069 -0.4583 -1.5620 -0.5353
29928SOL     OW94630   0.628   9.267   6.312 -0.3822 -0.3093  0.1770
29928SOL    HW194631   0.665   9.348   6.347 -2.5716  0.8426 -0.1021
29928SOL    HW294632   0.704   9.209   6.300  1.4564  2.2923 -1.2651
29929SOL     OW94633   8.048   7.132   5.391  0.5990 -0.7231 -0.3422
29929SOL    HW194634   7.972   7.103   5.441  0.4242 -0.8335 -0.6741
29929SOL    HW294635   8.118   7.141   5.456  0.1950 -0.2129  0.0246
29930SOL     OW94636   8.160   8.146   8.294  0.0384  0.3228  0.5034
29930SOL    HW194637   8.082   8.143   8.349 -2.0879 -0.0687 -2.3823
29930SOL    HW294638   8.197   8.058   8.300 -2.2331 -0.8301 -1.4051
29931SOL     OW94639   9.397   6.048   7.256  0.0744 -0.0538 -0.0182
29931SOL    HW194640   9.352   6.049   7.340  0.6245 -3.0576  0.3717
29931SOL    HW294641   9.380   5.960   7.221  0.4893  0.8880 -2.6951
29932SOL     OW94642   9.449   9.122   6.647 -0.1956  0.2020 -0.3682
29932SOL    HW194643   9.507   9.174   6.591 -0.6098  0.0880 -0.8991
29932SOL    HW294644   9.370   9.108   6.594 -1.0019  0.9729  0.6074
29933SOL     OW94645   9.153   9.202   5.954 -0.0041 -0.4173  0.0541
29933SOL    HW194646   9.111   9.121   5.983  0.6743 -0.9523 -0.4238
29933SOL    HW294647   9.236   9.204   6.002 -0.1541  0.1625  0.2993
29934SOL     OW94648   8.074   7.323   5.724  0.2737 -0.3960  0.1690
29934SOL    HW194649   8.070   7.418   5.714 -0.2341 -0.3699  0.5851
29934SOL    HW294650   8.141   7.295   5.662  0.0426  0.1771 -0.3404
29935SOL     OW94651   1.251   9.130   4.976  0.0265  0.5457  0.0790
29935SOL    HW194652   1.231   9.121   5.069 -0.9178 -2.2419 -0.3524
29935SOL    HW294653   1.171   9.163   4.937 -0.5001 -0.9105 -0.1197
29936SOL     OW94654   8.741   6.188   6.407 -0.0313  0.1643 -0.1203
29936SOL    HW194655   8.772   6.244   6.335  0.2692  1.5042  1.0331
29936SOL    HW294656   8.646   6.189   6.398 -0.0584  1.2776  0.1826
29937SOL     OW94657   8.324   7.122   7.451 -0.2009 -0.3387  0.4665
29937SOL    HW194658   8.305   7.031   7.474  1.6137 -1.0980 -0.9423
29937SOL    HW294659   8.279   7.135   7.368  0.8084 -0.4278 -0.0970
29938SOL     OW94660   0.343   7.126   6.566  0.0678 -0.5068  0.2491
29938SOL    HW194661   0.430   7.156   6.540 -0.0234 -0.2331  0.2625
29938SOL    HW294662   0.291   7.132   6.485 -0.6264  1.8130  0.8213
29939SOL     OW94663   9.957   8.711   5.894  0.4339  0.0445  0.3854
29939SOL    HW194664  10.005   8.731   5.814 -1.8282 -1.9664 -1.5291
29939SOL    HW294665  10.023   8.673   5.952  1.6707 -0.3987 -1.2573
29940SOL     OW94666   8.683   7.904   6.804  0.1453 -0.3912 -0.7180
29940SOL    HW194667   8.702   7.810   6.806  0.3284 -0.3393 -0.0056
29940SOL    HW294668   8.590   7.910   6.827  0.6188 -0.2647  1.2423
29941SOL     OW94669   0.857   7.197   7.469 -0.0306  0.5039  0.4080
29941SOL    HW194670   0.951   7.199   7.454 -0.0619  1.4019  0.2831
29941SOL    HW294671   0.835   7.287   7.496 -0.7702  0.1862  0.8902
29942SOL     OW94672   0.620   7.853   6.141  0.5159  0.6280 -0.2786
29942SOL    HW194673   0.584   7.882   6.057  0.7322  3.2347  0.4644
29942SOL    HW294674   0.543   7.834   6.195  0.3514  0.6872 -0.4900
29943SOL     OW94675   0.197   9.471   8.047  0.2227  0.0845  0.2470
29943SOL    HW194676   0.163   9.543   7.994  0.0531 -0.3567 -0.2487
29943SOL    HW294677   0.136   9.399   8.032 -0.7013  0.4063  2.2185
29944SOL     OW94678   0.677   8.586   6.959 -0.6234 -0.8207  0.6597
29944SOL    HW194679   0.711   8.531   7.030 -1.4704 -0.4679  1.3503
29944SOL    HW294680   0.590   8.612   6.989 -0.2323  0.8956  0.3387
29945SOL     OW94681   1.168   9.058   6.520 -0.1200 -0.2478 -0.1680
29945SOL    HW194682   1.134   9.143   6.491 -1.5200 -0.5335  0.5931
29945SOL    HW294683   1.204   9.076   6.606 -0.5171 -0.4476  0.0392
29946SOL     OW94684   8.636   6.910   7.049 -0.2315 -0.1981 -0.3285
29946SOL    HW194685   8.705   6.856   7.086 -1.8038 -2.1640 -0.1646
29946SOL    HW294686   8.573   6.921   7.120  0.0885  1.9344 -0.3387
29947SOL     OW94687   0.150   7.830   7.575 -0.1806  0.1851  0.4060
29947SOL    HW194688   0.076   7.889   7.563  0.4343  0.7935 -0.4499
29947SOL    HW294689   0.212   7.879   7.628  1.2003  1.0969 -1.9873
29948SOL     OW94690   8.863   8.745   6.659 -0.8112  0.1080 -0.3442
29948SOL    HW194691   8.952   8.750   6.623 -0.2951 -1.2190  0.7183
29948SOL    HW294692   8.857   8.819   6.719 -0.1601 -0.2444  0.1569
29949SOL     OW94693   9.634   6.012   6.961  0.2841  0.3143  0.0136
29949SOL    HW194694   9.619   6.100   6.927  0.7411  0.7201  0.8261
29949SOL    HW294695   9.585   6.010   7.044 -0.3649 -0.4629 -0.3838
29950SOL     OW94696   9.026   7.940   5.386 -0.7034  0.4940  0.0851
29950SOL    HW194697   9.018   7.921   5.480  1.8886  0.4911  0.3456
29950SOL    HW294698   9.118   7.924   5.367 -1.2741  0.2284 -2.5427
29951SOL     OW94699   9.061   7.097   6.232  0.3168 -0.2978 -0.3297
29951SOL    HW194700   9.142   7.148   6.242  0.5187 -0.7743  0.5645
29951SOL    HW294701   9.087   7.008   6.253 -0.6297 -0.3168  0.7937
29952SOL     OW94702   9.513   8.749   7.588 -1.0230  0.1950  0.6708
29952SOL    HW194703   9.417   8.746   7.584 -1.0416  0.3607  0.9584
29952SOL    HW294704   9.536   8.830   7.542 -0.9360 -0.6273 -0.7574
29953SOL     OW94705   1.930   8.076   5.848  0.1279 -0.4320 -0.2507
29953SOL    HW194706   1.881   8.152   5.880  2.4421  2.2734 -2.7935
29953SOL    HW294707   1.893   8.060   5.761  0.2796 -1.6596 -0.0907
29954SOL     OW94708   9.749   7.388   7.263  0.0023 -0.0490 -0.4169
29954SOL    HW194709   9.673   7.380   7.205  0.2252  1.3472 -0.9068
29954SOL    HW294710   9.813   7.436   7.211  0.8757 -0.3933  0.3438
29955SOL     OW94711   9.084   9.314   4.604  0.1998  0.1305 -0.5290
29955SOL    HW194712   9.145   9.246   4.576 -0.3855  0.0071 -1.5204
29955SOL    HW294713   9.131   9.396   4.588  0.4850  0.0014 -0.3560
29956SOL     OW94714   7.864   9.673   6.267  0.2865 -0.2361 -0.3584
29956SOL    HW194715   7.813   9.613   6.322 -0.5977  0.9139  0.0906
29956SOL    HW294716   7.951   9.633   6.262  0.3968 -0.3292  1.9261
29957SOL     OW94717   8.725   9.069   7.435 -0.3583  0.9021  0.2158
29957SOL    HW194718   8.761   9.085   7.348  0.5947 -1.7142  0.0693
29957SOL    HW294719   8.661   9.138   7.448 -1.0232  0.9407 -2.8442
29958SOL     OW94720   9.115   8.884   4.503  0.6406  0.0764 -0.0638
29958SOL    HW194721   9.142   8.793   4.490  2.0860  0.6747 -1.3053
29958SOL    HW294722   9.068   8.907   4.423 -2.2901 -0.4718  1.4464
29959SOL     OW94723   0.619   0.939   4.857 -0.1055  0.1334 -0.4174
29959SOL    HW194724   0.651   0.952   4.947  2.2737 -0.1555 -1.1884
29959SOL    HW294725   0.581   0.851   4.858  1.7399 -0.6766 -0.1801
29960SOL     OW94726   8.476   9.590   7.534  0.0505  0.5588  0.0261
29960SOL    HW194727   8.386   9.598   7.501  0.5472  0.9362 -1.2878
29960SOL    HW294728   8.521   9.539   7.467  1.0883  1.3488  0.1178
29961SOL     OW94729   0.352   6.789   5.539 -0.0765 -0.1439  0.1405
29961SOL    HW194730   0.442   6.821   5.541 -0.2449  0.3101  0.5303
29961SOL    HW294731   0.300   6.863   5.507 -0.3353 -0.3462  0.0867
29962SOL     OW94732   9.226   9.506   7.434 -0.0241 -0.3930 -0.2243
29962SOL    HW194733   9.318   9.508   7.407  0.2599 -0.8196  0.6828
29962SOL    HW294734   9.184   9.447   7.372  0.8670 -2.3409  0.9700
29963SOL     OW94735   8.761   7.814   6.523 -0.7396  0.0967  0.2917
29963SOL    HW194736   8.800   7.758   6.457 -1.6239 -0.4672  0.2401
29963SOL    HW294737   8.748   7.757   6.599 -0.4294  0.5545  0.6924
29964SOL     OW94738   9.965   7.350   6.152  0.1016  0.3933 -0.1594
29964SOL    HW194739   9.963   7.272   6.096 -0.9235  0.1950  0.1461
29964SOL    HW294740   9.943   7.318   6.239  0.6975  0.8699  0.1678
29965SOL     OW94741   8.379   8.295   6.073  0.4226  0.4484 -0.5807
29965SOL    HW194742   8.314   8.227   6.091 -0.4391  0.7039 -2.6428
29965SOL    HW294743   8.379   8.350   6.152 -2.4021  0.8748 -0.8512
29966SOL     OW94744   9.030   7.841   7.635  0.5219 -0.0448 -0.1294
29966SOL    HW194745   9.001   7.844   7.544 -1.4054 -0.3272  0.4443
29966SOL    HW294746   8.975   7.906   7.680 -2.9284 -4.1327  1.9606
29967SOL     OW94747   1.625   9.492   5.107 -0.4477 -0.0120 -0.5728
29967SOL    HW194748   1.616   9.557   5.038  0.0626 -0.9960 -1.5914
29967SOL    HW294749   1.615   9.408   5.062  2.1184 -0.7453  0.1719
29968SOL     OW94750   9.487   7.306   5.951  0.1706  0.2785  0.0185
29968SOL    HW194751   9.530   7.265   5.876 -0.1141  0.3261 -0.1705
29968SOL    HW294752   9.460   7.392   5.919 -0.8510 -0.0864 -0.1320
29969SOL     OW94753   9.211   1.168   8.019 -0.2735  0.1596  0.4656
29969SOL    HW194754   9.197   1.242   8.079 -0.1437 -0.7617  1.6493
29969SOL    HW294755   9.293   1.189   7.975 -0.7967  1.2537 -0.0057
29970SOL     OW94756   0.026   7.790   5.321 -0.1514 -0.1830  0.7589
29970SOL    HW194757  -0.059   7.822   5.291  0.6290  1.6493  0.4452
29970SOL    HW294758   0.050   7.848   5.393 -0.2750 -2.2312  2.5212
29971SOL     OW94759   9.793   8.008   5.719 -0.2059  0.1147 -0.5546
29971SOL    HW194760   9.709   8.031   5.681 -1.3518 -2.5883  0.2024
29971SOL    HW294761   9.788   8.039   5.809 -0.9649 -1.2622 -0.1087
29972SOL     OW94762   1.342   8.362   6.251 -0.3614  0.4430  0.6309
29972SOL    HW194763   1.412   8.310   6.289 -0.2829 -0.6910 -1.0137
29972SOL    HW294764   1.387   8.437   6.211 -0.0630 -0.2852 -0.4246
29973SOL     OW94765   0.544   7.823   7.255 -0.1487 -0.0380 -0.4856
29973SOL    HW194766   0.552   7.883   7.328 -0.9275 -1.2976  0.6518
29973SOL    HW294767   0.571   7.738   7.290  1.2491 -0.3262 -2.1458
29974SOL     OW94768   8.888   8.071   6.567 -0.5668  0.8203  0.5699
29974SOL    HW194769   8.860   8.096   6.655 -0.3356  0.0479  0.8718
29974SOL    HW294770   8.841   7.989   6.549  0.9487 -0.1220  0.8135
29975SOL     OW94771   9.602   7.527   7.870  0.9055  0.2934  0.2085
29975SOL    HW194772   9.524   7.537   7.816  1.5047  1.5601 -0.4332
29975SOL    HW294773   9.584   7.579   7.948  0.4730 -0.6905  0.7782
29976SOL     OW94774   0.841   8.657   6.514 -0.3412  0.4566  0.0354
29976SOL    HW194775   0.876   8.739   6.547  0.4050 -0.0122  0.4176
29976SOL    HW294776   0.849   8.663   6.419  0.1160  0.6418  0.0872
29977SOL     OW94777   0.735   8.414   5.280  0.3573  0.5249 -0.1809
29977SOL    HW194778   0.688   8.480   5.332 -0.9671 -0.5514  0.0117
29977SOL    HW294779   0.698   8.422   5.192  0.7668  0.5773 -0.3506
29978SOL     OW94780   9.668   7.657   4.515  0.5320 -0.3506  0.0745
29978SOL    HW194781   9.719   7.701   4.448 -0.2667  0.2335 -0.1654
29978SOL    HW294782   9.626   7.729   4.564  0.4700 -0.7924  0.6821
29979SOL     OW94783   0.041   8.163   6.582  0.2434 -0.2055 -0.2027
29979SOL    HW194784   0.095   8.241   6.591 -2.6052  1.9459 -0.9695
29979SOL    HW294785   0.071   8.105   6.652  2.5061  1.4854  0.3025
29980SOL     OW94786   9.504   8.575   6.154  0.1208  0.4906  0.1355
29980SOL    HW194787   9.569   8.551   6.219  0.7563  1.0710 -0.2814
29980SOL    HW294788   9.543   8.649   6.107 -0.0120 -0.3996 -1.4005
29981SOL     OW94789   9.604   9.334   8.120  0.2283 -0.3317 -0.1650
29981SOL    HW194790   9.583   9.250   8.160 -0.2897  0.3471  1.0181
29981SOL    HW294791   9.621   9.393   8.194 -0.9699  0.9945 -0.9203
29982SOL     OW94792   6.660   7.466   8.662 -0.1924 -0.1287  0.0385
29982SOL    HW194793   6.640   7.376   8.640  0.6230 -0.2909 -0.0458
29982SOL    HW294794   6.747   7.463   8.702 -0.7665  0.4185  1.3959
29983SOL     OW94795   0.942   8.584   6.945  0.2279 -0.3320  0.1274
29983SOL    HW194796   0.856   8.600   6.907 -0.9006  1.6912  3.3297
29983SOL    HW294797   0.928   8.507   7.001  0.6736 -0.3505  0.2094
29984SOL     OW94798   0.461   9.558   9.157 -0.2979  0.3224 -0.1726
29984SOL    HW194799   0.529   9.490   9.155 -1.1286 -0.5009 -2.1413
29984SOL    HW294800   0.394   9.523   9.216 -1.4274 -1.3390 -2.3426
29985SOL     OW94801   0.436   7.291   9.518 -0.2135 -0.3897 -0.4896
29985SOL    HW194802   0.506   7.343   9.557 -1.1839  1.1778 -0.7795
29985SOL    HW294803   0.427   7.326   9.430 -1.1567 -0.7855 -0.5549
29986SOL     OW94804   0.079   8.487   9.890 -0.1939 -0.4027  0.3844
29986SOL    HW194805  -0.001   8.462   9.844  0.1613 -0.9337  0.0566
29986SOL    HW294806   0.104   8.570   9.851 -0.1954 -0.5841 -0.0026
29987SOL     OW94807   9.938   9.959   7.179  0.6160  0.4740  0.0071
29987SOL    HW194808   9.976   9.887   7.229 -1.2704  0.5155  1.5869
29987SOL    HW294809   9.879  10.002   7.241  0.0696  2.0425 -1.5618
29988SOL     OW94810   9.542   0.651   8.566 -0.5134 -0.0995  0.0161
29988SOL    HW194811   9.578   0.738   8.549  1.1149 -0.6761  0.4087
29988SOL    HW294812   9.580   0.626   8.650 -1.7224 -0.8075  0.3652
29989SOL     OW94813   9.759   0.062   7.359 -0.1643 -0.9023  0.3577
29989SOL    HW194814   9.736   0.129   7.294 -0.5503  0.5932  1.9898
29989SOL    HW294815   9.676   0.033   7.395  0.1779  1.3451  3.1463
29990SOL     OW94816   0.391   8.440   8.561 -0.3506  0.1879 -0.3008
29990SOL    HW194817   0.387   8.371   8.494 -1.7944 -1.0486  1.0493
29990SOL    HW294818   0.481   8.474   8.554 -0.1217 -0.7001 -2.0684
29991SOL     OW94819   0.823   0.136   8.989  0.0803  0.3884 -0.5735
29991SOL    HW194820   0.873   0.055   8.991  0.0832  0.3826 -0.9483
29991SOL    HW294821   0.876   0.197   8.939  0.5835  0.9614  0.6328
29992SOL     OW94822   8.730   8.529   9.448  0.3032 -0.1598 -0.0767
29992SOL    HW194823   8.722   8.460   9.382  3.8002  0.8383 -1.6490
29992SOL    HW294824   8.778   8.488   9.520  0.0911 -0.0793  0.1131
29993SOL     OW94825   0.556   9.475   7.324 -0.0331 -0.1626  0.4998
29993SOL    HW194826   0.557   9.381   7.339  2.1225 -0.4173 -0.9770
29993SOL    HW294827   0.518   9.512   7.404  0.4577 -2.1803  1.7013
29994SOL     OW94828   8.563   7.640   7.410 -0.0070 -0.0914 -0.4203
29994SOL    HW194829   8.612   7.639   7.328  1.3868  1.5126  0.3687
29994SOL    HW294830   8.603   7.571   7.463 -0.9447 -1.1648 -1.0776
29995SOL     OW94831   9.647   8.406   8.753  0.2014 -0.6164 -0.4986
29995SOL    HW194832   9.700   8.377   8.828  0.7202 -2.7538 -1.6867
29995SOL    HW294833   9.674   8.497   8.740 -0.4030  0.0353  2.3377
29996SOL     OW94834   8.628   8.605   8.205 -0.2689 -0.1319  0.1768
29996SOL    HW194835   8.686   8.675   8.177 -2.2549  1.3889 -0.2212
29996SOL    HW294836   8.552   8.650   8.243 -1.4345 -2.0540  0.1869
29997SOL     OW94837   9.010   7.465   9.444 -0.4470 -0.7268  0.1058
29997SOL    HW194838   9.101   7.472   9.474 -0.4894 -0.6818  0.2258
29997SOL    HW294839   8.977   7.555   9.448  0.7573 -0.0170 -3.9408
29998SOL     OW94840   8.104   9.167   0.018  0.4701  0.1538 -0.0715
29998SOL    HW194841   8.154   9.161  -0.063  0.8868  1.1044  0.1021
29998SOL    HW294842   8.027   9.113   0.003 -0.9756  2.7189 -2.2298
29999SOL     OW94843   1.211   8.719   7.817 -0.1197  0.2556 -0.5633
29999SOL    HW194844   1.238   8.807   7.791 -0.2344  0.8784  1.3609
29999SOL    HW294845   1.212   8.721   7.913 -0.3003 -1.7844 -0.4997
30000SOL     OW94846   9.021   8.517   9.846  0.1949  0.3341  0.3923
30000SOL    HW194847   9.108   8.480   9.857  0.3068  0.6707  0.6587
30000SOL    HW294848   9.037   8.608   9.819 -0.0570  1.1482  2.8573
30001SOL     OW94849   9.932   0.146   8.743 -0.2042  0.1025  0.1507
30001SOL    HW194850   9.989   0.115   8.673 -0.9990 -0.5911 -0.1861
30001SOL    HW294851   9.901   0.231   8.712 -0.0009  0.1158 -0.0215
30002SOL     OW94852   1.187   9.257  10.000  0.2824  0.1347  0.4164
30002SOL    HW194853   1.280   9.241  10.014  0.4464  0.5230 -0.1957
30002SOL    HW294854   1.143   9.182  10.041  0.9170 -0.6207 -0.2636
30003SOL     OW94855   0.103   8.192   8.933 -0.5270  0.3539 -0.5308
30003SOL    HW194856   0.181   8.218   8.883 -0.0765 -0.7535 -0.4167
30003SOL    HW294857   0.030   8.211   8.874 -0.2275  1.9052 -0.4372
30004SOL     OW94858   9.241   0.598   7.405  0.0605  0.0004  0.6452
30004SOL    HW194859   9.264   0.691   7.413 -0.4503  0.2903 -1.1399
30004SOL    HW294860   9.174   0.584   7.472 -1.1012  1.3474 -0.1933
30005SOL     OW94861   1.747   6.918   8.464 -0.5632 -0.0493 -0.1890
30005SOL    HW194862   1.809   6.874   8.406 -0.6989 -0.6157  0.0947
30005SOL    HW294863   1.732   7.003   8.422 -0.8653 -0.5547 -1.1386
30006SOL     OW94864   1.014   8.626   8.916 -0.0613  0.1211  0.1252
30006SOL    HW194865   1.065   8.575   8.853  0.9521  1.3269 -0.0589
30006SOL    HW294866   1.030   8.584   9.000  0.2199 -0.2670 -0.1182
30007SOL     OW94867   1.874   0.268   7.031 -0.3718 -0.2574  0.2893
30007SOL    HW194868   1.809   0.199   7.020  0.1911 -0.6630 -0.5447
30007SOL    HW294869   1.927   0.239   7.105  0.5197 -1.2627 -0.7124
30008SOL     OW94870   1.227   7.745   7.367 -0.0152 -0.2102  0.0909
30008SOL    HW194871   1.151   7.746   7.425 -1.2951  0.2751 -1.5430
30008SOL    HW294872   1.198   7.793   7.289  2.1880  0.5683 -0.2905
30009SOL     OW94873   0.282   7.061   7.630 -0.0867 -0.0247  0.3417
30009SOL    HW194874   0.317   7.023   7.711 -0.0290 -0.7557 -0.0165
30009SOL    HW294875   0.332   7.018   7.560 -0.8284 -0.1403 -0.1208
30010SOL     OW94876   0.326   6.386   8.626 -0.2840  0.4397  0.1815
30010SOL    HW194877   0.233   6.364   8.630 -0.6657  2.0285  0.5940
30010SOL    HW294878   0.331   6.474   8.663  1.0470  1.3534 -2.0365
30011SOL     OW94879   0.870   7.896   8.307  0.3158 -1.1639 -0.1626
30011SOL    HW194880   0.807   7.874   8.239 -0.0883 -1.2576  0.2398
30011SOL    HW294881   0.820   7.945   8.372  0.7131 -1.0087  0.0293
30012SOL     OW94882   9.342   8.926   8.188  0.6851 -0.1431  0.2689
30012SOL    HW194883   9.335   8.989   8.117 -1.7495 -1.6932 -0.9622
30012SOL    HW294884   9.402   8.966   8.251  1.1666  2.2286 -1.6392
30013SOL     OW94885   9.805   8.177   9.614 -0.3031 -0.0248  0.1364
30013SOL    HW194886   9.784   8.114   9.683 -0.7442 -0.1254 -0.0954
30013SOL    HW294887   9.885   8.142   9.574 -0.8518 -0.7161 -0.3506
30014SOL     OW94888   9.892   6.733   7.624  0.1107  0.0810 -0.1090
30014SOL    HW194889   9.801   6.755   7.604 -0.3136  0.2247  1.9506
30014SOL    HW294890   9.940   6.815   7.611 -0.4754  0.6686  1.4255
30015SOL     OW94891   9.182   8.521   8.451 -0.2705 -0.3069 -0.0794
30015SOL    HW194892   9.186   8.563   8.365 -0.4202 -0.0089  0.0584
30015SOL    HW294893   9.176   8.593   8.513  0.2712 -0.5094  0.2125
30016SOL     OW94894   9.786   9.860   7.908 -0.3821  0.5472  0.2892
30016SOL    HW194895   9.792   9.952   7.933 -1.5018  0.8305 -0.4523
30016SOL    HW294896   9.753   9.815   7.986 -0.3046  0.8517  0.4952
30017SOL     OW94897   0.557   0.532   9.533  0.1008  0.6255  0.4725
30017SOL    HW194898   0.607   0.538   9.614 -0.4974 -1.8979  1.0934
30017SOL    HW294899   0.468   0.559   9.557  0.2460  1.2574  0.3087
30018SOL     OW94900   0.545   7.652   7.028  0.4089  0.0753  0.4408
30018SOL    HW194901   0.566   7.720   7.092  1.8272 -0.5571  0.6777
30018SOL    HW294902   0.544   7.698   6.944 -0.9078  0.8063  0.8549
30019SOL     OW94903   9.708   8.032   8.087  0.5558 -0.1488  0.0326
30019SOL    HW194904   9.692   8.126   8.084  0.2272 -0.2111 -0.2605
30019SOL    HW294905   9.718   8.012   8.180 -1.6571 -0.1843  0.3054
30020SOL     OW94906   8.909   6.482   7.435  0.4301  0.2783  0.1985
30020SOL    HW194907   9.001   6.459   7.420  0.9514  2.2408  0.1854
30020SOL    HW294908   8.912   6.555   7.497 -1.0683  0.9803 -0.5228
30021SOL     OW94909   9.497   9.010   8.433  0.6548  0.2480 -0.3365
30021SOL    HW194910   9.470   9.101   8.450  0.5018  0.4352 -1.5373
30021SOL    HW294911   9.566   8.993   8.498 -1.2913  0.2550  1.8059
30022SOL     OW94912   9.230   7.277   9.705  0.0257 -0.5167 -0.0012
30022SOL    HW194913   9.228   7.191   9.663 -1.4125  0.1656 -1.3779
30022SOL    HW294914   9.235   7.257   9.799 -0.3415 -2.0970 -0.2953
30023SOL     OW94915   1.331   9.519   8.016  0.1650  0.4938 -0.0011
30023SOL    HW194916   1.343   9.543   8.108  0.1144  0.2239  0.0759
30023SOL    HW294917   1.363   9.429   8.010 -0.7189  0.1815 -0.0518
30024SOL     OW94918   8.844   8.227   7.929 -0.6035  0.0056  0.5072
30024SOL    HW194919   8.851   8.323   7.933 -0.1691 -0.0771  1.8890
30024SOL    HW294920   8.793   8.204   8.006  0.5097 -0.9993  0.9548
30025SOL     OW94921   9.197   8.293   0.582  0.2426 -0.0931  0.1774
30025SOL    HW194922   9.186   8.266   0.673  1.5507  1.5296  0.8504
30025SOL    HW294923   9.212   8.212   0.535 -0.1300 -0.9246  1.4570
30026SOL     OW94924   9.774   8.563   8.984 -0.3859 -0.4373 -0.4384
30026SOL    HW194925   9.821   8.514   9.051 -0.0188 -1.2831 -1.3071
30026SOL    HW294926   9.843   8.610   8.937 -0.6034 -0.1920 -0.5129
30027SOL     OW94927   0.933   0.357   8.556  0.1033 -0.3149  0.5310
30027SOL    HW194928   0.987   0.385   8.481  0.2981  0.4376  0.9495
30027SOL    HW294929   0.931   0.262   8.549 -1.6941 -0.1513 -1.7038
30028SOL     OW94930   1.076   9.379   8.118  0.1046  0.0054 -0.1002
30028SOL    HW194931   1.108   9.292   8.141  0.7260  0.8898  2.5702
30028SOL    HW294932   1.155   9.430   8.101 -0.1547  0.6294  0.5499
30029SOL     OW94933   9.869   0.108   7.977 -0.2637 -0.2327  0.1740
30029SOL    HW194934   9.963   0.116   7.965 -0.4598 -0.4913 -1.7033
30029SOL    HW294935   9.851   0.155   8.059  1.4719 -0.1339  0.5087
30030SOL     OW94936   9.710   7.122   9.420 -0.4118  0.3985  0.0482
30030SOL    HW194937   9.744   7.036   9.397 -1.1828 -0.2125  1.1311
30030SOL    HW294938   9.774   7.158   9.481 -1.1391 -0.3000  1.2431
30031SOL     OW94939   9.831   8.963   7.846  0.4736 -0.0919  0.1446
30031SOL    HW194940   9.785   9.039   7.810  1.5557  0.1101 -0.8206
30031SOL    HW294941   9.770   8.890   7.832  0.4816  0.1491 -1.2663
30032SOL     OW94942   9.273   8.405   9.860  0.2415 -0.1847  0.5324
30032SOL    HW194943   9.293   8.498   9.875 -0.9927  0.4610 -1.5594
30032SOL    HW294944   9.271   8.366   9.948  2.1091  1.4731  1.3441
30033SOL     OW94945   0.369   8.267   7.868  0.2300  0.2091  0.5021
30033SOL    HW194946   0.393   8.278   7.776  1.2119 -1.5423  0.5281
30033SOL    HW294947   0.298   8.329   7.882  2.9530  3.7217 -0.2824
30034SOL     OW94948   0.620   9.460   8.478  0.3243  0.5420 -0.4750
30034SOL    HW194949   0.594   9.370   8.456 -0.4636  0.7958 -0.5842
30034SOL    HW294950   0.633   9.458   8.572  0.2803  0.3210 -0.4724
30035SOL     OW94951   8.304   9.381   8.270  0.2148  0.1030 -0.0225
30035SOL    HW194952   8.214   9.401   8.296  0.1893  0.0883 -0.1040
30035SOL    HW294953   8.347   9.355   8.351  0.4074  1.0463  0.1825
30036SOL     OW94954   9.916   9.240   8.925  0.0195 -0.3143 -0.1307
30036SOL    HW194955   9.892   9.149   8.906 -1.1765 -0.3345  1.3145
30036SOL    HW294956   9.833   9.287   8.927  0.3793  0.2969  1.6369
30037SOL     OW94957   7.289   9.730   0.262 -0.1153  0.1986  0.0516
30037SOL    HW194958   7.283   9.650   0.210 -2.1625  0.3430  0.0244
30037SOL    HW294959   7.260   9.800   0.203 -3.0911  0.2851  1.4941
30038SOL     OW94960   9.910   9.208   7.534  0.3834  0.4666  0.3610
30038SOL    HW194961   9.917   9.129   7.480  0.2807 -0.6554  1.9643
30038SOL    HW294962   9.851   9.183   7.605  2.0931  1.3070  2.0890
30039SOL     OW94963   0.488   0.759   9.770  0.0661 -0.3769 -0.5801
30039SOL    HW194964   0.403   0.722   9.795  1.0036 -2.0473  0.2394
30039SOL    HW294965   0.547   0.684   9.771  1.6346  0.8410 -0.7639
30040SOL     OW94966   9.930   8.012   7.560  0.7430 -0.1215 -0.1315
30040SOL    HW194967   9.878   8.004   7.479  1.0167  0.7076 -0.3969
30040SOL    HW294968   9.883   7.958   7.624  0.0398 -0.0859 -0.6081
30041SOL     OW94969   9.696   8.787   8.139 -0.2869 -0.7402  0.1046
30041SOL    HW194970   9.717   8.746   8.055  1.2923 -2.4927  1.3176
30041SOL    HW294971   9.618   8.740   8.168 -1.0298  0.0916 -0.5236
30042SOL     OW94972   1.116   7.458   7.429 -0.6982 -0.4386  0.3483
30042SOL    HW194973   1.037   7.511   7.438 -0.7654 -0.1298 -1.7767
30042SOL    HW294974   1.182   7.504   7.481 -1.9256 -0.7825  2.2636
30043SOL     OW94975   9.525   8.412   7.796 -0.3072 -0.1255  0.3499
30043SOL    HW194976   9.616   8.381   7.792  0.2275  1.3073  1.1798
30043SOL    HW294977   9.521   8.467   7.874 -1.4755  1.1144 -0.5431
30044SOL     OW94978   8.603   1.302   6.562 -0.1041  0.1150 -0.2006
30044SOL    HW194979   8.545   1.323   6.488  0.7645  0.7525 -0.7136
30044SOL    HW294980   8.549   1.250   6.621 -1.0324  0.2242 -0.9417
30045SOL     OW94981   1.636   0.333   7.963  0.2379  0.6033  0.6323
30045SOL    HW194982   1.729   0.344   7.981  0.4420  1.3441 -0.8262
30045SOL    HW294983   1.597   0.417   7.985 -0.2527  0.0043  2.1417
30046SOL     OW94984   9.272   9.331   8.937  0.3830 -0.4774  0.5437
30046SOL    HW194985   9.313   9.407   8.897  3.2672 -1.4428  1.5233
30046SOL    HW294986   9.208   9.300   8.872 -0.1293  2.1434 -0.2571
30047SOL     OW94987   9.095   8.055   8.751 -0.0231 -0.1083  0.4273
30047SOL    HW194988   9.161   8.114   8.713  0.8810 -0.2129  1.7890
30047SOL    HW294989   9.013   8.103   8.745  0.4689  0.7242  0.2779
30048SOL     OW94990   8.701   8.810   9.733 -0.1703 -0.1630  0.3979
30048SOL    HW194991   8.751   8.780   9.658 -0.6152 -2.3701  0.9646
30048SOL    HW294992   8.724   8.903   9.741  2.5574 -0.7265 -0.3503
30049SOL     OW94993   9.445   7.977   0.303 -0.6040  0.6348  0.0908
30049SOL    HW194994   9.501   7.903   0.330 -2.2919 -0.3684  0.9338
30049SOL    HW294995   9.394   7.943   0.230  1.6738  2.3602 -2.3680
30050SOL     OW94996   8.385   7.305   9.549 -0.3951  0.3638  0.1638
30050SOL    HW194997   8.461   7.333   9.600  0.1265 -0.4851 -0.1417
30050SOL    HW294998   8.391   7.209   9.546 -1.7842  0.2422  0.6196
30051SOL     OW94999   9.792   0.362   8.608 -0.5162  0.0141  0.6302
30051SOL    HW195000   9.816   0.438   8.662 -1.5349  1.0274 -0.3073
30051SOL    HW295001   9.697   0.357   8.615 -0.6289 -0.0574 -0.7933
30052SOL     OW95002   9.350   0.137   7.640  0.4083 -0.7735  0.2180
30052SOL    HW195003   9.367   0.213   7.585 -1.7152 -0.7794 -0.4823
30052SOL    HW295004   9.420   0.138   7.705  0.6913  1.4889 -0.1016
30053SOL     OW95005   9.736   9.591   7.717 -0.4051  0.1171  0.0570
30053SOL    HW195006   9.735   9.669   7.773 -0.7200 -0.4653  0.8540
30053SOL    HW295007   9.690   9.619   7.638  0.7168  1.1811 -0.2530
30054SOL     OW95008   2.063   6.143   1.138  0.3394 -0.0090  0.5880
30054SOL    HW195009   2.098   6.055   1.152  0.8512  0.2997  1.3098
30054SOL    HW295010   2.139   6.201   1.151 -0.8528  0.8368  4.2214
30055SOL     OW95011   8.475   0.115   1.641 -0.1447 -0.1994  0.2742
30055SOL    HW195012   8.400   0.116   1.581  0.2990  0.3909 -0.2773
30055SOL    HW295013   8.447   0.170   1.714 -0.4604 -0.4393  0.3381
30056SOL     OW95014   9.271   9.119   0.360  0.1659  0.2987 -0.4669
30056SOL    HW195015   9.212   9.104   0.286  1.1433  2.0042 -1.6428
30056SOL    HW295016   9.297   9.032   0.388 -2.2882 -0.4384 -0.4398
30057SOL     OW95017   8.935   7.436   9.181 -0.4268 -0.3213 -0.1045
30057SOL    HW195018   8.842   7.460   9.192 -0.3548 -1.1070  2.5309
30057SOL    HW295019   8.975   7.455   9.266  1.4398 -1.7512 -0.6294
30058SOL     OW95020   7.417   9.637   9.831 -0.5617 -0.7404 -0.0211
30058SOL    HW195021   7.465   9.594   9.761  0.1513 -0.2639  0.1744
30058SOL    HW295022   7.478   9.638   9.905 -0.3755  1.0455 -0.1725
30059SOL     OW95023   9.436   8.007   8.758 -0.1189 -0.1706 -0.4685
30059SOL    HW195024   9.356   7.992   8.708 -0.0650 -1.4322 -0.1796
30059SOL    HW295025   9.407   8.008   8.850  0.1911 -0.6395 -0.3623
30060SOL     OW95026   1.080   8.407   8.727 -0.3722 -0.1403  0.5754
30060SOL    HW195027   1.078   8.400   8.631 -1.0120 -0.3344  0.6000
30060SOL    HW295028   1.095   8.318   8.757  1.9128  0.2259  0.6121
30061SOL     OW95029   9.858   7.797   0.791  0.0094 -0.2584  0.1557
30061SOL    HW195030   9.790   7.823   0.853  0.2606 -0.4105  0.4921
30061SOL    HW295031   9.921   7.868   0.792 -0.9174  0.6342 -1.3266
30062SOL     OW95032   1.926   7.694   9.425 -0.3169  0.3961 -0.1358
30062SOL    HW195033   1.959   7.646   9.349  1.2111  0.8258  0.2351
30062SOL    HW295034   1.851   7.643   9.456  0.8948 -1.3921 -0.1224
30063SOL     OW95035   9.375   8.165   1.454  0.4548  0.2766 -0.4081
30063SOL    HW195036   9.309   8.229   1.478  0.2093 -0.1853  0.1486
30063SOL    HW295037   9.332   8.110   1.389 -0.0919 -0.7290  0.7908
30064SOL     OW95038   0.311   9.944   9.809  0.0773  0.2796  0.5935
30064SOL    HW195039   0.363   9.869   9.836 -0.9944 -0.1534  1.4847
30064SOL    HW295040   0.242   9.950   9.874  0.0692  1.9553  0.4447
30065SOL     OW95041   1.597   9.464   0.872  0.5327 -0.6583  0.1650
30065SOL    HW195042   1.590   9.558   0.890  1.7782 -0.1446 -1.8401
30065SOL    HW295043   1.657   9.459   0.798 -0.4832 -2.9513 -0.5401
30066SOL     OW95044   1.315   7.715   9.591  0.2490 -0.2815  0.3803
30066SOL    HW195045   1.333   7.670   9.508 -1.2533 -0.8910  0.3772
30066SOL    HW295046   1.220   7.725   9.593  0.1619 -1.1992  2.4930
30067SOL     OW95047   9.648   9.120   7.210 -0.2128 -0.0635 -0.3877
30067SOL    HW195048   9.614   9.178   7.142 -0.1189 -0.4305 -0.7516
30067SOL    HW295049   9.719   9.072   7.167 -0.0751 -0.2129  0.0052
30068SOL     OW95050   2.430   6.610   9.833 -0.3173 -0.6292 -0.7836
30068SOL    HW195051   2.454   6.569   9.750 -0.4881  0.4121 -1.3607
30068SOL    HW295052   2.406   6.537   9.890 -0.9936 -1.3051 -1.9096
30069SOL     OW95053   0.792   8.494   8.762 -0.2172  0.0388  0.2087
30069SOL    HW195054   0.878   8.529   8.738 -0.3422 -0.4055 -0.9287
30069SOL    HW295055   0.811   8.405   8.792 -0.2750 -0.0472 -0.0110
30070SOL     OW95056   0.819   8.235   8.863  0.0244  0.0969  0.2942
30070SOL    HW195057   0.914   8.238   8.873  0.1728 -0.1105 -0.9534
30070SOL    HW295058   0.794   8.150   8.900  0.5826 -0.7797 -1.3159
30071SOL     OW95059   9.186   8.778   8.528 -0.4583  0.2053 -0.4787
30071SOL    HW195060   9.126   8.801   8.600 -0.0060 -1.5765  0.5181
30071SOL    HW295061   9.146   8.816   8.450 -1.0618  2.0209  0.6812
30072SOL     OW95062   0.856   9.591   0.190 -0.1280  0.1607  0.5903
30072SOL    HW195063   0.832   9.681   0.215  1.8653  1.2421 -1.2102
30072SOL    HW295064   0.939   9.601   0.143  0.7289 -2.7789  1.4055
30073SOL     OW95065   1.585   7.818   9.855 -0.0674  0.3443 -0.1297
30073SOL    HW195066   1.539   7.738   9.829  1.2934 -0.8222  0.9896
30073SOL    HW295067   1.580   7.817   9.951  2.5913  0.0131  0.0233
30074SOL     OW95068   9.810   8.674   9.341 -0.1516  0.3810  0.0614
30074SOL    HW195069   9.769   8.703   9.259  0.1848  1.6251  0.3301
30074SOL    HW295070   9.737   8.664   9.402 -0.5666 -1.7964 -0.7205
30075SOL     OW95071   8.846   7.332   8.085  0.0593  0.2745 -0.6186
30075SOL    HW195072   8.763   7.369   8.054 -0.0149 -0.2263 -1.0249
30075SOL    HW295073   8.891   7.406   8.126 -0.4430  0.6271 -0.6896
30076SOL     OW95074   9.490   7.665   9.660  0.0925 -0.2028  0.0135
30076SOL    HW195075   9.553   7.661   9.732  0.9600  0.6735 -0.6891
30076SOL    HW295076   9.525   7.732   9.601 -1.8644  0.8021 -0.0353
30077SOL     OW95077   9.637   7.376   9.141  0.0406  0.1932 -0.4988
30077SOL    HW195078   9.574   7.406   9.076 -0.9885  0.8595  0.7840
30077SOL    HW295079   9.649   7.283   9.121 -0.2551  0.3902 -1.6317
30078SOL     OW95080   0.872   7.567   9.378 -0.3286  0.1033 -0.6173
30078SOL    HW195081   0.889   7.485   9.333  0.7205  0.5661 -1.0766
30078SOL    HW295082   0.822   7.542   9.456  0.3991 -1.0168 -0.4993
30079SOL     OW95083   9.868   7.934   8.639 -0.0108  0.1639  0.5126
30079SOL    HW195084   9.787   7.890   8.663 -0.3308  0.6391  0.2978
30079SOL    HW295085   9.936   7.889   8.690 -0.2885 -0.7826  0.0527
30080SOL     OW95086   9.584   7.079   8.777 -0.5107  0.1204  0.0233
30080SOL    HW195087   9.541   7.149   8.826 -0.4218 -0.2020  0.5605
30080SOL    HW295088   9.523   7.005   8.783  0.6782 -0.7461  1.8659
30081SOL     OW95089   0.259   7.886   1.535 -0.1432  0.0169 -0.7052
30081SOL    HW195090   0.175   7.841   1.531  0.0490 -0.2477 -1.9859
30081SOL    HW295091   0.269   7.909   1.628 -0.2651 -2.4737 -0.0486
30082SOL     OW95092   0.215   7.394   9.814 -0.4633 -0.3603 -0.0957
30082SOL    HW195093   0.233   7.417   9.723 -1.2264  1.1850  0.1261
30082SOL    HW295094   0.300   7.368   9.850  0.1642  0.7138 -0.7775
30083SOL     OW95095   9.509   8.663   9.028 -0.1382 -0.2916 -1.0749
30083SOL    HW195096   9.537   8.754   9.024  1.3521 -0.6825  0.1201
30083SOL    HW295097   9.585   8.612   8.999  0.2092 -1.3154  1.4665
30084SOL     OW95098   9.567   8.117   9.483 -0.7676 -0.4284  0.7776
30084SOL    HW195099   9.581   8.154   9.396 -2.3802 -0.3064  0.5483
30084SOL    HW295100   9.650   8.131   9.529 -0.1448  0.1549 -0.5004
30085SOL     OW95101   0.137   0.120   2.257  0.0034  0.1323  0.0842
30085SOL    HW195102   0.186   0.117   2.339 -0.3955 -0.2994  0.3119
30085SOL    HW295103   0.177   0.052   2.202 -1.4162 -1.4344  0.8992
30086SOL     OW95104   8.327   8.593   0.745 -0.0616  0.1427 -0.2400
30086SOL    HW195105   8.307   8.655   0.675  1.0705 -0.5782 -1.2265
30086SOL    HW295106   8.420   8.603   0.761 -0.2191 -0.0557  0.8228
30087SOL     OW95107   9.591   0.681   1.168 -0.2582 -0.5954 -0.4070
30087SOL    HW195108   9.660   0.636   1.118  1.5870 -1.0290  2.4123
30087SOL    HW295109   9.552   0.613   1.221  0.0144  0.4295  1.1333
30088SOL     OW95110   0.901   8.101   0.091  0.8305 -0.8108 -0.1088
30088SOL    HW195111   0.864   8.181   0.053  1.0598  0.1132  1.5310
30088SOL    HW295112   0.982   8.087   0.043  1.6747  0.9664  0.7421
30089SOL     OW95113   0.137   9.441   1.272 -0.5999  0.3102  1.0710
30089SOL    HW195114   0.076   9.386   1.223 -1.6419  3.3535 -1.1892
30089SOL    HW295115   0.219   9.391   1.272 -1.5223 -1.2807 -0.7920
30090SOL     OW95116   0.964   0.971   0.627  0.1138 -0.2869 -0.0255
30090SOL    HW195117   1.052   1.008   0.621 -0.0070 -0.4565 -3.8821
30090SOL    HW295118   0.907   1.046   0.643  0.7674 -0.0129  1.1265
30091SOL     OW95119   6.823   7.852   2.441 -0.4579  0.5001 -0.5417
30091SOL    HW195120   6.732   7.880   2.445 -0.3497  0.7504  0.3278
30091SOL    HW295121   6.871   7.931   2.416 -0.2430  0.9372  1.1428
30092SOL     OW95122   1.551   9.894   1.510  0.4576  0.2153 -0.2300
30092SOL    HW195123   1.501   9.948   1.449 -0.1749 -0.0322  0.0774
30092SOL    HW295124   1.514   9.912   1.596 -0.2319 -1.2536 -0.2116
30093SOL     OW95125   1.057   8.730   2.017  0.6963  0.3012 -0.0366
30093SOL    HW195126   0.969   8.766   2.026  0.9478  0.9974 -0.3434
30093SOL    HW295127   1.055   8.679   1.936  1.3869  2.7522 -1.6577
30094SOL     OW95128   8.751   0.097   0.800  0.1490 -0.1902  0.1606
30094SOL    HW195129   8.699   0.085   0.720 -1.2474  2.0814  0.6692
30094SOL    HW295130   8.695   0.065   0.870 -0.0350  0.9728  0.5623
30095SOL     OW95131   1.365   8.058   0.758  0.6108 -0.4895  0.2464
30095SOL    HW195132   1.297   8.126   0.755  0.5713 -0.6375 -2.9036
30095SOL    HW295133   1.447   8.107   0.752  0.6939 -0.5275  1.0180
30096SOL     OW95134   8.898   9.492   9.541  0.5415  0.3356  0.5931
30096SOL    HW195135   8.929   9.518   9.628 -0.8275 -0.6957  1.4175
30096SOL    HW295136   8.807   9.521   9.539  0.8845  1.3482 -0.9394
30097SOL     OW95137   0.692   0.112   0.706 -0.0614 -0.4977  0.3775
30097SOL    HW195138   0.769   0.168   0.695  0.3282 -1.2664 -0.9134
30097SOL    HW295139   0.720   0.044   0.766  0.4197 -1.0511 -0.4723
30098SOL     OW95140   0.864   9.784   0.837  0.1046  0.1960  0.0758
30098SOL    HW195141   0.900   9.751   0.919  0.3638  0.6275  0.1395
30098SOL    HW295142   0.771   9.763   0.841  0.2339 -0.3572  0.1954
30099SOL     OW95143   8.164   9.553   9.805 -1.3660 -0.4519  0.3734
30099SOL    HW195144   8.074   9.522   9.809 -2.4792  2.6551  0.7152
30099SOL    HW295145   8.178   9.594   9.890  0.2528 -0.5491  0.1662
30100SOL     OW95146   1.573   8.743   8.639  0.1865 -0.2927  0.2642
30100SOL    HW195147   1.508   8.807   8.669 -0.3869 -0.1863 -1.1567
30100SOL    HW295148   1.639   8.796   8.594 -0.2015 -0.6750 -0.7673
30101SOL     OW95149   9.383   2.165   1.277 -0.0747 -0.2229 -0.3442
30101SOL    HW195150   9.432   2.183   1.196 -1.0866 -0.9698 -1.1335
30101SOL    HW295151   9.432   2.094   1.319 -0.3888 -0.8644 -1.0547
30102SOL     OW95152   0.514   9.341   1.070 -0.6108 -0.5850 -0.0523
30102SOL    HW195153   0.587   9.403   1.076 -1.9386  0.9032  0.9485
30102SOL    HW295154   0.461   9.359   1.147 -1.8395 -1.9453 -0.5543
30103SOL     OW95155   9.187   0.342   0.718  0.7057 -0.1868  0.5064
30103SOL    HW195156   9.278   0.362   0.740  0.8096 -0.5260  0.3962
30103SOL    HW295157   9.153   0.294   0.794 -0.0932  1.9744  1.5460
30104SOL     OW95158   9.774   8.670   1.735  0.3951 -0.1565 -0.2771
30104SOL    HW195159   9.869   8.667   1.725  0.5572 -2.0589  1.4549
30104SOL    HW295160   9.759   8.736   1.802  0.7220 -1.8994  1.5459
30105SOL     OW95161   8.622   9.825   1.863  0.3926 -0.4711 -0.4269
30105SOL    HW195162   8.635   9.738   1.828 -1.4319 -1.7002  1.7755
30105SOL    HW295163   8.703   9.844   1.911  0.9275 -0.8013 -1.1921
30106SOL     OW95164   0.563   9.872   0.974 -0.5480 -0.3835  0.5066
30106SOL    HW195165   0.568   9.802   1.039  0.1921 -1.7937 -1.0344
30106SOL    HW295166   0.479   9.860   0.931 -0.3510 -0.4244  0.1287
30107SOL     OW95167   8.375   0.201   0.968  0.0366 -0.2094  0.1083
30107SOL    HW195168   8.379   0.269   0.900  1.8134 -1.4014 -1.0408
30107SOL    HW295169   8.418   0.239   1.044  0.8338  0.0510 -0.4652
30108SOL     OW95170   8.796   0.740   1.441  0.2072  0.1560 -0.1033
30108SOL    HW195171   8.763   0.700   1.521 -0.0020 -0.3072 -0.4183
30108SOL    HW295172   8.872   0.687   1.417 -0.2651 -0.2560 -0.7008
30109SOL     OW95173   1.714   0.282   1.775 -0.2663 -0.3535  0.1570
30109SOL    HW195174   1.765   0.223   1.721  1.2535 -1.8854  3.1654
30109SOL    HW295175   1.626   0.280   1.736  1.0639 -0.2830 -3.0334
30110SOL     OW95176   9.096   0.131   2.260  0.7814  0.7089 -0.0421
30110SOL    HW195177   9.192   0.125   2.257  0.8486  0.7578  1.4074
30110SOL    HW295178   9.067   0.041   2.276  0.5715  0.6731 -0.6145
30111SOL     OW95179   9.756   0.349   1.426 -0.2972  0.0308  0.7498
30111SOL    HW195180   9.759   0.364   1.520  0.1536 -0.5254  0.8283
30111SOL    HW295181   9.732   0.256   1.417  0.7431 -0.2082  0.3390
30112SOL     OW95182   9.152   8.972   9.401 -0.3351 -0.6310 -0.0337
30112SOL    HW195183   9.060   8.952   9.385 -0.8737  2.0354 -0.5559
30112SOL    HW295184   9.183   9.012   9.320  1.2237 -1.2600  0.2203
30113SOL     OW95185   9.665   9.330   9.718 -0.3476 -0.0392  0.3291
30113SOL    HW195186   9.616   9.270   9.661  0.5261 -0.7731  0.3369
30113SOL    HW295187   9.612   9.336   9.798 -0.6943 -0.3967  0.1255
30114SOL     OW95188   7.606   8.643   0.402 -0.6955 -0.3593 -0.3816
30114SOL    HW195189   7.663   8.580   0.446  0.3808  2.0462  1.8416
30114SOL    HW295190   7.518   8.606   0.410 -0.2712 -0.8888  2.2562
30115SOL     OW95191   8.026   9.182   2.158  0.0774  0.3949  0.1368
30115SOL    HW195192   7.936   9.152   2.172  0.5769 -1.8454 -1.2921
30115SOL    HW295193   8.035   9.188   2.063  1.8865 -0.7815  0.2226
30116SOL     OW95194   8.343   9.824   3.088 -0.0752 -0.3143  0.9467
30116SOL    HW195195   8.311   9.871   3.011 -2.3045 -0.3352  1.8302
30116SOL    HW295196   8.415   9.770   3.055 -0.4981  0.2571 -0.9553
30117SOL     OW95197   9.668   0.146   2.533 -0.2682  0.1686  0.2084
30117SOL    HW195198   9.645   0.210   2.600  0.5268  2.0822 -1.2992
30117SOL    HW295199   9.745   0.102   2.568 -0.4713  0.4347  1.0064
30118SOL     OW95200   9.660   9.380   3.089  0.0015  0.3177  0.1174
30118SOL    HW195201   9.722   9.343   3.151 -0.3736 -0.2681  0.1495
30118SOL    HW295202   9.585   9.408   3.143  0.0494  0.6241  0.0294
30119SOL     OW95203   9.088   8.655   1.422  0.6701 -0.2193 -0.1734
30119SOL    HW195204   9.022   8.725   1.422  0.0828 -0.7572  1.1911
30119SOL    HW295205   9.170   8.700   1.400  0.3779  0.9848  1.1310
30120SOL     OW95206   0.629   0.836   1.204 -0.1271 -0.4138  0.3766
30120SOL    HW195207   0.547   0.796   1.231 -1.1463  1.2130 -0.2131
30120SOL    HW295208   0.647   0.902   1.272  0.4220 -0.4064  0.2287
30121SOL     OW95209   0.062   9.861   2.102  0.5876  0.0318  0.6227
30121SOL    HW195210  -0.025   9.900   2.097  0.2544 -0.8851 -1.2094
30121SOL    HW295211   0.051   9.771   2.071  2.2542  0.0644 -0.1742
30122SOL     OW95212   8.224   9.669   4.624 -0.4001 -0.4073 -0.5276
30122SOL    HW195213   8.295   9.722   4.586  0.1524 -0.4066  0.4726
30122SOL    HW295214   8.185   9.624   4.550  1.4143 -1.3157 -0.9685
30123SOL     OW95215   9.549   0.538   2.929  0.0290  0.4893  0.1888
30123SOL    HW195216   9.624   0.585   2.893  1.5137 -0.4874  1.9002
30123SOL    HW295217   9.585   0.490   3.004 -2.1653 -0.5738  0.5974
30124SOL     OW95218   0.848   8.804   9.190  0.4764  0.2934  0.4441
30124SOL    HW195219   0.864   8.882   9.137  0.9503 -0.7802 -1.0523
30124SOL    HW295220   0.923   8.800   9.250  0.2872  1.1563  0.7352
30125SOL     OW95221   9.971   0.093   2.517 -0.1447  0.3735 -0.0507
30125SOL    HW195222  10.065   0.104   2.504 -0.1094  0.0372 -0.0620
30125SOL    HW295223   9.962   0.011   2.565 -0.5336 -0.5441 -1.6372
30126SOL     OW95224   0.290   9.174   1.933 -0.2436 -0.3225  0.0495
30126SOL    HW195225   0.372   9.200   1.890 -0.0747  0.9430  1.0861
30126SOL    HW295226   0.315   9.105   1.994 -0.1487 -0.7518 -0.4769
30127SOL     OW95227   9.775   9.091   3.031 -0.4508 -0.7692 -0.4517
30127SOL    HW195228   9.778   9.001   3.062  0.7921 -0.5838  0.0087
30127SOL    HW295229   9.808   9.143   3.105 -1.6003  0.1115 -0.5414
30128SOL     OW95230   9.698   9.836   1.198 -0.2643  0.3475  0.1014
30128SOL    HW195231   9.649   9.783   1.136  1.4779  0.3290 -1.3051
30128SOL    HW295232   9.690   9.789   1.281  0.1257 -1.4084 -0.8342
30129SOL     OW95233   9.654   0.361   3.641 -0.0103  0.4542 -0.0691
30129SOL    HW195234   9.599   0.436   3.662 -1.1840 -0.6358  0.7905
30129SOL    HW295235   9.644   0.302   3.716 -1.4213 -1.8981 -2.0497
30130SOL     OW95236   9.091   9.682   2.490 -0.2303 -0.6083 -0.2850
30130SOL    HW195237   9.100   9.763   2.440 -0.0827  0.1698  0.9699
30130SOL    HW295238   9.029   9.703   2.560  2.0560 -0.6570  1.8422
30131SOL     OW95239   0.638   9.547   2.271  0.1741  0.0761 -0.4767
30131SOL    HW195240   0.683   9.581   2.193 -0.8498  0.6149 -0.8506
30131SOL    HW295241   0.610   9.460   2.246  0.7932 -0.1698 -0.3277
30132SOL     OW95242   9.670   0.933   1.688 -0.1177 -0.5471 -0.2812
30132SOL    HW195243   9.582   0.906   1.714 -0.0462 -0.6681 -0.1697
30132SOL    HW295244   9.691   0.876   1.614  0.3990 -1.4099  0.5414
30133SOL     OW95245   9.351   0.094   2.853 -0.0264  0.4634 -0.2434
30133SOL    HW195246   9.387   0.107   2.765 -1.4697 -1.3204 -1.1406
30133SOL    HW295247   9.423   0.054   2.902  0.3886  0.2774 -0.9908
30134SOL     OW95248   9.139   0.194   3.816  0.2303  0.0218  0.0847
30134SOL    HW195249   9.191   0.134   3.870  0.0231 -0.4620 -0.2505
30134SOL    HW295250   9.204   0.243   3.765  0.3289 -1.1869 -0.9740
30135SOL     OW95251   9.803   9.002   3.481 -0.0463  0.2667  0.0405
30135SOL    HW195252   9.717   9.039   3.501  0.7481  2.2224 -0.0004
30135SOL    HW295253   9.865   9.060   3.525  1.2774 -0.7524 -0.4436
30136SOL     OW95254   9.892   0.709   2.167  0.1040 -0.0069 -0.1525
30136SOL    HW195255   9.818   0.767   2.188  0.2463  0.4181 -0.8039
30136SOL    HW295256   9.876   0.683   2.076  0.6378 -0.1013 -0.2176
30137SOL     OW95257   7.742   0.682   1.887  0.4405 -0.0566  0.5258
30137SOL    HW195258   7.831   0.675   1.853 -0.1874  0.9491 -1.3881
30137SOL    HW295259   7.744   0.635   1.970  2.1827 -2.0011 -0.5805
30138SOL     OW95260   9.319   0.830   2.329  0.3411 -0.0113 -0.5044
30138SOL    HW195261   9.373   0.757   2.358  0.4280  0.6358  1.0270
30138SOL    HW295262   9.364   0.908   2.361  0.3272  0.7276 -2.2544
30139SOL     OW95263   8.858   9.227   2.891  0.0066  0.3396  0.2372
30139SOL    HW195264   8.888   9.317   2.880 -0.6423  0.8346  2.2596
30139SOL    HW295265   8.938   9.178   2.912  0.4773  0.2764 -1.6026
30140SOL     OW95266   0.111   0.062   3.242 -0.7999 -0.8453  0.4343
30140SOL    HW195267   0.090  -0.027   3.269  0.1180 -1.6493 -1.3998
30140SOL    HW295268   0.076   0.117   3.311 -0.4786 -2.6861  2.1024
30141SOL     OW95269   0.096   9.496   6.307  1.0062 -0.7639 -0.7264
30141SOL    HW195270   0.038   9.421   6.324  1.5137 -1.2005 -0.9114
30141SOL    HW295271   0.165   9.488   6.373  1.6956 -1.1208 -1.4854
30142SOL     OW95272   9.489   9.778   5.522 -0.0410 -0.0606  0.8089
30142SOL    HW195273   9.403   9.819   5.521  1.5388  3.4332 -1.6546
30142SOL    HW295274   9.543   9.837   5.574  2.0086  0.3932 -1.7515
30143SOL     OW95275   9.815   9.965   6.083  0.1311  0.1675  0.8009
30143SOL    HW195276   9.739  10.023   6.082  0.1349  0.1606  0.3603
30143SOL    HW295277   9.845   9.962   5.992  0.5964  0.0866  0.9556
30144SOL     OW95278   9.540   9.256   4.041  0.4268 -0.1974 -0.0714
30144SOL    HW195279   9.559   9.344   4.072  2.0703 -0.2154 -0.9744
30144SOL    HW295280   9.482   9.269   3.965  1.3674  0.1603 -0.7367
30145SOL     OW95281   1.698   9.419   3.703 -0.2041 -0.1116 -0.2849
30145SOL    HW195282   1.671   9.418   3.795 -2.5339 -1.9356 -0.9342
30145SOL    HW295283   1.788   9.452   3.704  0.1490 -1.0550  2.7414
30146SOL     OW95284   9.920   0.358   6.399 -0.0558  0.3647 -0.2697
30146SOL    HW195285   9.947   0.440   6.357  0.6705  1.2245  1.7958
30146SOL    HW295286   9.972   0.290   6.356  1.8615  1.4264  0.3153
30147SOL     OW95287   0.716   8.884   3.707 -0.0834  0.0440  0.0523
30147SOL    HW195288   0.688   8.958   3.761  0.0929  0.2906 -0.1924
30147SOL    HW295289   0.686   8.906   3.619 -3.2852 -1.8731  0.5842
30148SOL     OW95290   9.193   0.242   4.983 -0.0633  0.1088 -0.5047
30148SOL    HW195291   9.194   0.177   4.913 -0.9696  0.7148 -1.0796
30148SOL    HW295292   9.143   0.201   5.054 -2.7214  1.0766 -1.7540
30149SOL     OW95293   9.815   9.629   4.054 -0.4557 -0.0015  0.5646
30149SOL    HW195294   9.868   9.705   4.081 -1.1337  0.2620  1.1638
30149SOL    HW295295   9.861   9.594   3.978  0.9599 -0.1738  1.4804
30150SOL     OW95296   9.724   9.520   3.430 -0.1668 -0.4325 -0.0208
30150SOL    HW195297   9.766   9.514   3.515  1.1596  0.7144 -0.5769
30150SOL    HW295298   9.789   9.486   3.368  0.0524  1.5414 -0.9101
30151SOL     OW95299   0.313   9.579   4.785 -0.1207 -0.4568 -0.2913
30151SOL    HW195300   0.244   9.518   4.809  0.6991 -1.0935  0.4673
30151SOL    HW295301   0.266   9.659   4.759 -1.1553 -1.0800 -0.3747
30152SOL     OW95302   8.424   0.085   4.637  0.6176 -0.2336  0.4361
30152SOL    HW195303   8.452   0.038   4.715  1.1462  1.3297  1.2042
30152SOL    HW295304   8.335   0.054   4.621  1.4935 -2.6741 -0.0129
30153SOL     OW95305   9.781   9.286   5.092 -0.2960  0.2679  0.1974
30153SOL    HW195306   9.795   9.194   5.069 -2.5210 -0.2951  0.9062
30153SOL    HW295307   9.840   9.335   5.036 -0.4086 -1.4928 -1.4900
30154SOL     OW95308   9.937   9.726   3.549  0.3162 -0.1023  0.3950
30154SOL    HW195309   9.964   9.634   3.551 -1.6672 -0.6866  0.7196
30154SOL    HW295310   9.906   9.744   3.637  0.9915  0.9886  0.4207
30155SOL     OW95311   9.419   9.420   4.618 -0.0103 -0.4700  0.1874
30155SOL    HW195312   9.437   9.505   4.660  1.3455  0.0970 -1.4646
30155SOL    HW295313   9.328   9.426   4.590  0.4525  0.9955 -1.0998
30156SOL     OW95314   8.816   9.376   6.401  1.0988 -0.1625 -0.2539
30156SOL    HW195315   8.871   9.420   6.336  0.3785 -0.5753 -1.1441
30156SOL    HW295316   8.783   9.299   6.357 -1.9654  1.2082 -0.4809
30157SOL     OW95317   8.913   9.011   5.357  0.0252 -0.6051  0.2128
30157SOL    HW195318   8.858   9.087   5.340  0.8602 -0.6271 -2.7535
30157SOL    HW295319   8.852   8.944   5.389 -1.1082  0.4849  0.3831
30158SOL     OW95320   1.425   0.200   5.776  0.3127 -0.2228  0.0774
30158SOL    HW195321   1.475   0.137   5.723  0.2595 -0.1857 -0.0174
30158SOL    HW295322   1.345   0.152   5.799  1.3357 -1.0619  2.0530
30159SOL     OW95323   0.417   8.798   5.452 -0.2211 -0.3127 -0.3285
30159SOL    HW195324   0.463   8.735   5.396  1.6230 -0.2064  1.0306
30159SOL    HW295325   0.372   8.745   5.517  2.3441 -0.2347  1.5781
30160SOL     OW95326   7.709   9.584   5.099 -0.2951  0.1367  0.9247
30160SOL    HW195327   7.681   9.638   5.173  0.4543 -0.6023  1.7631
30160SOL    HW295328   7.643   9.600   5.031 -0.5267  1.4806  1.4396
30161SOL     OW95329   0.913   0.468   5.030 -0.3445  0.0843 -0.6728
30161SOL    HW195330   0.983   0.504   5.085 -0.7792 -1.0988  0.6650
30161SOL    HW295331   0.832   0.486   5.078 -0.9191  0.7399 -1.8422
30162SOL     OW95332   0.231   8.788   3.609  0.7502  0.1329 -0.2486
30162SOL    HW195333   0.164   8.840   3.566 -0.7738 -0.0490  1.7852
30162SOL    HW295334   0.212   8.698   3.582 -0.1440  0.0285  0.6893
30163SOL     OW95335   9.038   9.460   3.664 -0.2056 -0.1956  0.4730
30163SOL    HW195336   9.060   9.484   3.754 -0.1149  0.9050  0.1707
30163SOL    HW295337   9.120   9.430   3.626 -0.4153 -1.4367  0.9962
30164SOL     OW95338   0.733   8.691   7.229 -0.0088  0.9800  0.4780
30164SOL    HW195339   0.745   8.609   7.183 -3.2630  1.1243 -0.7465
30164SOL    HW295340   0.688   8.667   7.311  0.5762  1.3476  0.9121
30165SOL     OW95341   8.380   8.690   4.623  0.0057 -0.1129  0.0707
30165SOL    HW195342   8.386   8.598   4.648  1.6283 -0.4571 -1.4436
30165SOL    HW295343   8.468   8.724   4.638  0.1620  0.4643 -1.9976
30166SOL     OW95344   9.085   0.149   3.235  0.2857 -0.0933  0.0081
30166SOL    HW195345   9.117   0.074   3.285 -0.2150 -0.7687 -0.6632
30166SOL    HW295346   9.021   0.191   3.293 -0.9902 -1.4132 -0.3969
30167SOL     OW95347   0.381   0.111   5.219 -0.3492 -0.0108  0.2450
30167SOL    HW195348   0.411   0.038   5.166  0.5724  0.2050  0.4497
30167SOL    HW295349   0.420   0.096   5.305 -0.2354  0.6556  0.3185
30168SOL     OW95350   0.782   9.956   5.311 -0.2634  0.4396  0.3264
30168SOL    HW195351   0.691   9.979   5.330 -0.2895  1.0610 -0.5097
30168SOL    HW295352   0.827  10.040   5.304 -0.0103  0.1959 -1.0959
30169SOL     OW95353   8.790   8.957   6.404 -0.1795 -0.2312 -0.5810
30169SOL    HW195354   8.795   9.001   6.489  1.3117  0.7337 -1.1466
30169SOL    HW295355   8.734   8.881   6.420 -0.1784  0.1118  1.1925
30170SOL     OW95356   9.669   0.468   8.344 -0.0974 -0.0758  0.0719
30170SOL    HW195357   9.594   0.411   8.327 -2.2096  3.1168 -1.8770
30170SOL    HW295358   9.642   0.524   8.416  0.9575  0.1397  0.3119
30171SOL     OW95359   9.101   9.647   8.224  0.3928  0.2225  0.7990
30171SOL    HW195360   9.183   9.597   8.226  0.9085  1.0941  1.4991
30171SOL    HW295361   9.111   9.708   8.151  0.3665  0.3373  0.8910
30172SOL     OW95362   9.006   0.669   7.568  0.2427 -0.4161  0.1761
30172SOL    HW195363   8.992   0.746   7.624  0.5511 -0.7872  0.7685
30172SOL    HW295364   8.985   0.700   7.480  1.0686  0.5572  0.3038
30173SOL     OW95365   0.913   7.904   6.962 -0.2559 -0.0823  0.8127
30173SOL    HW195366   0.931   7.981   6.909  0.0579 -0.6773  0.0486
30173SOL    HW295367   0.825   7.919   6.997 -0.6230  0.1345 -0.1939
30174SOL     OW95368   0.815   9.081   7.401 -0.5213  0.0974 -0.0015
30174SOL    HW195369   0.894   9.134   7.389 -0.5817  0.4258  0.9987
30174SOL    HW295370   0.742   9.142   7.388 -0.6399 -0.5076 -2.3045
30175SOL     OW95371   1.347   9.290   5.776 -0.0366  0.1884 -0.3332
30175SOL    HW195372   1.303   9.370   5.804 -1.1550  0.1792 -1.9636
30175SOL    HW295373   1.275   9.229   5.756  0.7526 -0.4295 -1.3230
30176SOL     OW95374   0.263   9.386   7.361  0.0249 -0.5513  0.0144
30176SOL    HW195375   0.297   9.445   7.429 -0.2624 -0.6607  0.2522
30176SOL    HW295376   0.250   9.303   7.407  1.3750 -1.0899 -0.5429
30177SOL     OW95377   9.498   0.202   6.807 -0.0669 -0.2197  0.1179
30177SOL    HW195378   9.492   0.127   6.748 -0.3816  1.4200 -2.0223
30177SOL    HW295379   9.555   0.173   6.878  1.3989 -1.8339 -1.6615
30178SOL     OW95380   9.918   0.486   5.296 -0.2919 -0.6675 -0.4579
30178SOL    HW195381   9.906   0.394   5.273  0.7098 -1.2035  1.0847
30178SOL    HW295382   9.831   0.515   5.324 -0.8248 -0.8592 -1.8740
30179SOL     OW95383   9.547   9.474   5.115  0.4625 -0.3749  0.7198
30179SOL    HW195384   9.454   9.464   5.133  0.1183  0.3214 -0.6309
30179SOL    HW295385   9.573   9.390   5.075  0.2825 -0.3400  0.5306
30180SOL     OW95386   9.529   1.193   8.069 -0.4638  0.0869 -0.2074
30180SOL    HW195387   9.499   1.176   8.158  0.2326  0.8103  0.1746
30180SOL    HW295388   9.572   1.112   8.042  1.4361  0.6466  1.0102
30181SOL     OW95389   9.691   8.558   6.362  0.2257 -0.0153 -0.1706
30181SOL    HW195390   9.739   8.640   6.369 -0.5530  0.3941  0.4731
30181SOL    HW295391   9.624   8.563   6.430  1.0935 -1.8359  0.8499
30182SOL     OW95392   8.802   8.776   9.217 -0.7131 -0.5931  0.2525
30182SOL    HW195393   8.787   8.709   9.150 -1.2159 -0.6403  0.4132
30182SOL    HW295394   8.867   8.834   9.179 -1.1061 -0.5404 -0.3384
30183SOL     OW95395   7.886   9.294   6.253 -0.2333  0.0018  0.2768
30183SOL    HW195396   7.965   9.340   6.282 -0.6531  1.1054 -0.3086
30183SOL    HW295397   7.890   9.295   6.158 -1.7530  1.5084  0.2010
30184SOL     OW95398   9.294   8.403   7.638 -0.0025  0.7754  0.5753
30184SOL    HW195399   9.371   8.411   7.695 -0.4821  1.1026  1.1792
30184SOL    HW295400   9.329   8.415   7.549  1.2969 -3.0397  0.4838
30185SOL     OW95401   0.452   0.125   5.713 -0.0983 -0.1490 -0.2782
30185SOL    HW195402   0.371   0.075   5.704  0.4499 -1.6983  3.0105
30185SOL    HW295403   0.425   0.207   5.755  0.0956 -0.8888  1.3089
30186SOL     OW95404   0.179   9.565   6.731  0.5423 -0.4454  0.5056
30186SOL    HW195405   0.216   9.540   6.646  1.8666 -0.7843  1.1604
30186SOL    HW295406   0.251   9.610   6.775 -0.8264  1.7003  0.5935
30187SOL     OW95407   8.661   9.449   4.167  0.7522  0.4179  0.5994
30187SOL    HW195408   8.675   9.542   4.185  0.8892  0.1811  1.7799
30187SOL    HW295409   8.646   9.410   4.253  2.8768 -1.0071  0.3669
30188SOL     OW95410   9.409   0.075   5.507  0.2402  0.1645  0.1173
30188SOL    HW195411   9.463   0.138   5.556  0.8305 -0.5880  0.4321
30188SOL    HW295412   9.448   0.072   5.420  1.1893 -0.9729  0.5785
30189SOL     OW95413   7.724   2.463   7.092  0.1739 -0.5745 -0.1743
30189SOL    HW195414   7.805   2.418   7.071  0.3930 -0.5790  0.6538
30189SOL    HW295415   7.694   2.500   7.009  2.5530  1.9139 -0.0107
30190SOL     OW95416   9.243   1.006   5.432  0.1525 -0.1356  0.2202
30190SOL    HW195417   9.188   1.074   5.471 -1.3523 -1.1530 -0.0836
30190SOL    HW295418   9.198   0.924   5.452  2.2808 -1.1325  1.1658
30191SOL     OW95419   9.920   0.939   6.010  0.5374  0.5980  0.2427
30191SOL    HW195420   9.877   0.893   6.082  0.8508  0.1254  0.1306
30191SOL    HW295421   9.909   1.032   6.031  0.5833  0.4637  0.8699
30192SOL     OW95422   9.468   9.748   5.846  0.3791  0.2452 -0.6368
30192SOL    HW195423   9.393   9.690   5.855  0.3671  0.2818 -0.5073
30192SOL    HW295424   9.436   9.822   5.795  0.5670 -0.1820 -1.3792
30193SOL     OW95425   9.880   9.544   6.142  0.3214  0.4653 -0.2734
30193SOL    HW195426   9.889   9.637   6.123  2.1006  0.6578  1.2929
30193SOL    HW295427   9.964   9.520   6.182 -0.3538 -1.6540 -0.0816
30194SOL     OW95428   0.601   9.532   6.533  0.7427  0.0352 -0.4333
30194SOL    HW195429   0.607   9.507   6.625 -0.9634 -1.2111 -0.6155
30194SOL    HW295430   0.658   9.471   6.488 -0.1930 -0.8746 -0.4210
30195SOL     OW95431   1.182   0.916   8.157 -0.5698 -0.0863 -0.1824
30195SOL    HW195432   1.208   1.006   8.177  1.5558 -0.8622  0.7151
30195SOL    HW295433   1.177   0.912   8.062  2.3571  0.2058 -0.3828
30196SOL     OW95434   0.445   9.050   9.420 -0.1894 -0.3090  0.4441
30196SOL    HW195435   0.444   8.989   9.494 -1.0473  0.4980  1.1184
30196SOL    HW295436   0.365   9.030   9.371  0.3778 -0.8413 -0.2760
30197SOL     OW95437   0.574   9.204   7.399 -0.3526 -0.2970  0.3840
30197SOL    HW195438   0.519   9.127   7.387 -1.5987  0.5149  0.8052
30197SOL    HW295439   0.551   9.237   7.486 -1.3517  1.7445 -0.6244
30198SOL     OW95440   9.572   8.064   8.444  0.5225 -0.7416  0.2740
30198SOL    HW195441   9.626   8.126   8.493 -0.5838  0.5517 -0.1392
30198SOL    HW295442   9.598   8.075   8.353 -0.2929 -0.2603  0.0957
30199SOL     OW95443   0.088   8.667   9.497  0.3055  0.6649  0.4452
30199SOL    HW195444   0.035   8.746   9.505 -0.8793 -0.0340 -0.1920
30199SOL    HW295445   0.023   8.596   9.494  1.2799 -0.1929 -0.5377
30200SOL     OW95446   1.167   9.623   5.349  0.0350 -0.3894 -0.4185
30200SOL    HW195447   1.233   9.604   5.416  1.8252  4.5533 -0.6357
30200SOL    HW295448   1.211   9.607   5.266  0.6025  1.6624 -0.5356
30201SOL     OW95449   1.185   8.752   5.309  0.8655 -0.3750  0.3392
30201SOL    HW195450   1.233   8.752   5.226  2.6883  0.0557  1.3568
30201SOL    HW295451   1.164   8.845   5.324 -1.2485 -0.6752 -0.6206
30202SOL     OW95452   0.184   9.480   0.878 -0.3018  0.3162 -0.1093
30202SOL    HW195453   0.232   9.415   0.827 -1.1537  1.4501 -2.4431
30202SOL    HW295454   0.121   9.429   0.929  1.3904 -0.9352  0.7833
30203SOL     OW95455   8.937   1.246   7.810 -0.6436  0.1420  0.0426
30203SOL    HW195456   8.940   1.285   7.723 -2.0911  0.8586  0.2879
30203SOL    HW295457   9.002   1.295   7.861 -0.2168  0.1236 -0.4900
30204SOL     OW95458   9.982   9.600   7.883 -0.1376  0.0021  0.1641
30204SOL    HW195459   9.953   9.685   7.850  0.3233  0.1707  0.1884
30204SOL    HW295460   9.967   9.539   7.810 -0.3177  0.1350  0.0911
30205SOL     OW95461   0.534   9.182   0.405 -0.8076  0.9731  0.1454
30205SOL    HW195462   0.495   9.251   0.458  0.2432  1.7977 -0.1325
30205SOL    HW295463   0.583   9.128   0.467 -2.0637  0.1597  0.4385
30206SOL     OW95464   0.129   8.509   6.802 -0.3881 -0.1882 -0.0299
30206SOL    HW195465   0.065   8.576   6.824  0.4054  0.9619 -1.1716
30206SOL    HW295466   0.079   8.427   6.800 -1.6082  0.5513  0.0775
30207SOL     OW95467   8.558   9.885   8.146  0.0170  0.4981  0.0736
30207SOL    HW195468   8.489   9.864   8.209  0.7184  0.6840  0.9119
30207SOL    HW295469   8.581   9.976   8.166  0.3805  0.4926 -0.3283
30208SOL     OW95470   9.287   8.889   9.092  0.1832 -0.1057 -0.0180
30208SOL    HW195471   9.226   8.835   9.142  2.0776 -2.4094 -0.0798
30208SOL    HW295472   9.308   8.835   9.015  1.1606  1.2738 -0.7415
30209SOL     OW95473   9.709   1.497   8.814  0.4441 -0.2031  0.1200
30209SOL    HW195474   9.745   1.529   8.731 -1.3131  0.6949 -0.3171
30209SOL    HW295475   9.629   1.451   8.789  0.6272 -1.1281  1.1998
30210SOL     OW95476   1.213   8.527   7.088  0.0405 -0.0502  0.5696
30210SOL    HW195477   1.225   8.520   7.182  1.1630 -0.4099  0.4128
30210SOL    HW295478   1.121   8.503   7.073  0.1065 -0.8846  1.4719
30211SOL     OW95479   0.574   8.813   9.088 -0.0558  0.0286 -0.6146
30211SOL    HW195480   0.632   8.882   9.055  0.3034  0.5124  1.0019
30211SOL    HW295481   0.486   8.843   9.065  0.0968  1.0592  0.1502
30212SOL     OW95482   8.085   9.361   8.972  0.2408 -0.3292 -0.2439
30212SOL    HW195483   7.998   9.381   8.939  0.6547  1.8743 -0.0787
30212SOL    HW295484   8.141   9.358   8.895  0.4953  0.8850 -0.1072
30213SOL     OW95485   0.425   9.434   9.765 -0.4203  0.1437 -0.0641
30213SOL    HW195486   0.423   9.483   9.683 -0.3856  0.3277  0.0441
30213SOL    HW295487   0.513   9.396   9.768 -0.3559  0.2904 -0.0255
30214SOL     OW95488   9.096   9.715   9.232 -0.0182 -0.1624  0.0852
30214SOL    HW195489   9.131   9.804   9.233 -2.4626  0.8324  0.1405
30214SOL    HW295490   9.112   9.685   9.142  0.3948  0.4868 -0.0671
30215SOL     OW95491   0.212   8.913   6.265 -0.7043 -0.3357 -0.4031
30215SOL    HW195492   0.144   8.847   6.281 -1.5264  1.0019  1.8030
30215SOL    HW295493   0.272   8.904   6.339 -0.2287  0.6558 -0.6613
30216SOL     OW95494   0.639   9.794   7.331  0.1860  0.3912  0.0235
30216SOL    HW195495   0.598   9.709   7.314  2.7576 -0.2843 -3.3289
30216SOL    HW295496   0.571   9.858   7.306 -0.9093 -0.6620  0.2395
30217SOL     OW95497   7.954   0.463   7.862 -0.1119 -0.5026 -0.0602
30217SOL    HW195498   8.035   0.414   7.850 -0.2305 -0.8231  0.4217
30217SOL    HW295499   7.929   0.447   7.954 -0.0673  0.5841  0.1526
30218SOL     OW95500   8.937   9.666   7.928 -0.1555 -0.0709  0.7149
30218SOL    HW195501   8.911   9.575   7.943 -0.6232 -0.2321 -0.9857
30218SOL    HW295502   8.916   9.682   7.836 -0.7084  1.9583  1.1655
30219SOL     OW95503   8.812   9.167   0.247 -0.0520 -0.1660  0.7296
30219SOL    HW195504   8.888   9.115   0.274  0.2160 -0.3776 -0.3958
30219SOL    HW295505   8.836   9.201   0.161 -1.8013 -1.4206 -0.2927
30220SOL     OW95506   9.722   0.918   8.310 -0.0325  0.0065  0.4155
30220SOL    HW195507   9.708   0.970   8.231 -0.8733 -0.3901  0.2977
30220SOL    HW295508   9.645   0.937   8.365 -0.4935 -1.3128  0.2518
30221SOL     OW95509   9.826   8.587   0.057 -0.2747  0.7764 -0.0757
30221SOL    HW195510   9.801   8.567  -0.033 -0.5365  1.3810 -0.1442
30221SOL    HW295511   9.901   8.646   0.048  0.8790 -0.6485  0.1218
30222SOL     OW95512   9.752   8.580   6.758 -0.3033  0.7480  0.2818
30222SOL    HW195513   9.809   8.624   6.821  0.5877 -0.3036  0.2048
30222SOL    HW295514   9.749   8.640   6.683  0.6642  0.8216  0.2984
30223SOL     OW95515   1.639   9.551   6.706  0.2639  0.0166  0.1207
30223SOL    HW195516   1.570   9.487   6.687 -0.5235  0.3594  1.7005
30223SOL    HW295517   1.591   9.632   6.724  1.1126  0.4241  0.5623
30224SOL     OW95518   9.329   1.310   7.605 -0.1915 -0.1239  0.1288
30224SOL    HW195519   9.384   1.356   7.669 -0.1425 -1.7096  1.2660
30224SOL    HW295520   9.245   1.356   7.609  0.2820  0.7563  0.2077
30225SOL     OW95521   9.381   0.110   8.075  0.4668  0.1273  0.4152
30225SOL    HW195522   9.293   0.095   8.041  0.8485 -0.9902 -0.1057
30225SOL    HW295523   9.422   0.023   8.077  1.9200  0.7639 -0.3801
30226SOL     OW95524   9.677   3.109   0.390  0.6451 -0.1410  0.0119
30226SOL    HW195525   9.618   3.035   0.378  2.0944 -1.2534 -0.3561
30226SOL    HW295526   9.764   3.070   0.392  1.4565  1.5921 -0.6033
30227SOL     OW95527   0.898   0.655   1.616 -0.3769 -0.4403  0.2714
30227SOL    HW195528   0.803   0.657   1.622 -0.3889 -1.3379  0.4374
30227SOL    HW295529   0.924   0.583   1.674  0.3548 -0.6213 -0.2824
30228SOL     OW95530   9.797   9.179   0.500  0.3724  0.1679  0.3954
30228SOL    HW195531   9.708   9.206   0.521  0.5913  1.4306 -0.2338
30228SOL    HW295532   9.829   9.139   0.581 -0.4214  0.6274  0.9495
30229SOL     OW95533   8.028   9.055   0.847 -0.3325 -0.6676  0.1273
30229SOL    HW195534   8.119   9.043   0.818 -0.5514 -0.1851 -0.8078
30229SOL    HW295535   8.003   8.971   0.885  0.4704 -0.8364  0.2922
30230SOL     OW95536   0.636   0.139   0.045  0.0151 -0.0663 -0.2456
30230SOL    HW195537   0.681   0.077  -0.014 -1.0631 -0.4049 -0.7305
30230SOL    HW295538   0.706   0.175   0.099  0.6019 -2.1307  0.4341
30231SOL     OW95539   0.342   0.132   9.116  0.4101  0.4969 -0.5041
30231SOL    HW195540   0.414   0.128   9.178  0.6564  1.8919 -0.6786
30231SOL    HW295541   0.364   0.205   9.058 -0.7953  0.4969 -0.9852
30232SOL     OW95542   1.118   9.643   0.198 -0.0161 -0.1752  0.3116
30232SOL    HW195543   1.156   9.713   0.251 -2.6909  0.3696  1.6215
30232SOL    HW295544   1.100   9.573   0.261  0.7224 -1.2354 -0.6399
30233SOL     OW95545   8.702   0.292   9.901  0.1199 -0.5201  0.4869
30233SOL    HW195546   8.753   0.260   9.975 -1.4059 -0.5615  1.5625
30233SOL    HW295547   8.631   0.343   9.941 -0.2403  0.1685 -0.9816
30234SOL     OW95548   9.742   8.322   0.234 -0.2423 -0.3380 -0.0760
30234SOL    HW195549   9.825   8.281   0.258  1.4210  2.4806 -0.8174
30234SOL    HW295550   9.751   8.342   0.140 -1.0886  1.4448  0.1991
30235SOL     OW95551   9.662   0.849   1.371 -0.1596  0.0336 -0.5168
30235SOL    HW195552   9.626   0.796   1.300 -1.3956  0.2077 -0.0396
30235SOL    HW295553   9.723   0.791   1.416  0.2017 -0.2570 -1.3557
30236SOL     OW95554   9.147   9.277   9.225 -0.2607  0.2304 -0.4791
30236SOL    HW195555   9.199   9.279   9.145  1.9320  1.2197  0.9097
30236SOL    HW295556   9.081   9.344   9.213  0.0525  0.3706 -1.4608
30237SOL     OW95557   9.825   2.068   1.486  0.4916  0.1278 -0.7646
30237SOL    HW195558   9.857   1.987   1.526 -0.4466 -0.2022 -0.6607
30237SOL    HW295559   9.806   2.126   1.560  0.7415  0.2803 -0.8197
30238SOL     OW95560   9.137   0.527   1.677  0.6322  0.4282  0.1168
30238SOL    HW195561   9.072   0.597   1.680  0.5308  0.3260  0.2775
30238SOL    HW295562   9.208   0.563   1.624  0.1598  0.3057 -0.6214
30239SOL     OW95563   9.468   9.166   9.057 -0.2480  0.4090  0.0021
30239SOL    HW195564   9.418   9.089   9.084  0.5831  0.6239  2.2021
30239SOL    HW295565   9.401   9.229   9.028 -1.1467  0.0632  1.2959
30240SOD    SOD95566   9.326   1.055   1.543 -0.3109 -0.6964  0.2088
30241SOD    SOD95567   0.076   0.938   3.738  0.1205  0.2407  0.2901
30242SOD    SOD95568   1.538   1.104   7.206 -0.1802 -0.5824 -0.2818
30243SOD    SOD95569   9.786   1.427   9.264 -0.2213  0.3734  0.0274
30244SOD    SOD95570   0.168   9.960   9.115  0.3321  0.6469 -0.4086
30245SOD    SOD95571   0.627   0.864   0.129 -0.2276  0.1930  0.3125
30246SOD    SOD95572   0.335   2.105   7.472 -0.3491 -0.0902 -0.1616
30247SOD    SOD95573   9.958   2.016   8.402 -0.1992  0.0884  0.4763
30248SOD    SOD95574   9.926   1.193   0.532 -0.2578 -0.1449  0.4192
30249SOD    SOD95575   1.042   2.352   9.387 -0.2683  0.1190  0.0302
30250SOD    SOD95576   0.246   5.911   0.384 -0.0685  0.3415 -0.1412
30251SOD    SOD95577   0.822   3.579   1.740  0.2220 -0.5633  0.1138
30252SOD    SOD95578   0.829   5.851   0.614 -0.1043  0.0009 -0.0058
30253SOD    SOD95579   9.714   4.617   2.428  0.2486 -0.2512  0.3180
30254SOD    SOD95580   0.364   4.540   8.161 -0.3221  0.0010 -0.0306
30255SOD    SOD95581   0.948   7.839   9.665 -0.0309 -0.0130  0.0718
30256SOD    SOD95582   0.212   5.697   3.377 -0.4654  0.2522 -0.0077
30257SOD    SOD95583   0.390   7.871   4.248 -0.2674  0.2687 -0.3751
30258SOD    SOD95584   0.520   7.607   2.956  0.2396 -0.3159  0.0160
30259SOD    SOD95585   9.803   6.512   5.155  0.1043 -0.6175  0.0792
30260SOD    SOD95586   0.580   7.906   5.176  0.0562 -0.1765 -0.1533
30261SOD    SOD95587   9.669   7.326   7.489 -0.1367 -0.1178 -0.4320
30262SOD    SOD95588   0.033   4.789   6.449  0.6014 -0.6658 -0.2613
30263SOD    SOD95589   1.403   5.810   6.381  0.0050  0.8008 -0.0514
30264SOD    SOD95590   0.301   6.756   7.359  0.2812 -0.5252  0.0483
30265SOD    SOD95591   0.735   6.413   8.738 -0.4105 -0.2438  0.2574
30266SOD    SOD95592   0.708   7.088   7.605 -0.2405 -0.5118 -0.4123
30267SOD    SOD95593   1.216   8.862   2.107 -0.0695 -0.4199  0.4749
30268SOD    SOD95594   2.127   8.977   3.778  0.2449  0.2416 -0.5296
30269SOD    SOD95595   0.691   8.639   3.800  0.0828 -0.6810 -0.3040
30270SOD    SOD95596   0.953   8.358   5.291 -0.1461  0.2018  0.0010
30271SOD    SOD95597   1.993   8.752   7.735 -0.1174 -0.8711 -0.3312
30272SOD    SOD95598   9.928   7.586   6.178 -0.1606  0.2089 -0.1703
30273SOD    SOD95599   1.381   0.590   0.339 -0.4564 -0.2497  0.7334
30274SOD    SOD95600   0.779   0.591   8.875  0.0419  0.3375  0.1849
30275SOD    SOD95601   2.706   0.079   3.524  0.5678 -0.0560 -0.2380
30276SOD    SOD95602   2.084   0.691   2.193 -0.1622 -0.5868  0.1083
30277SOD    SOD95603   1.606   1.451   5.623  0.3181 -0.3854  0.2671
30278SOD    SOD95604   1.648   0.264   4.082 -0.0018  0.5422 -0.4406
30279SOD    SOD95605   2.869   0.690   4.227 -0.4942  0.2190 -0.5051
30280SOD    SOD95606   0.636   0.040   2.851  0.4215 -0.3169  0.1829
30281SOD    SOD95607   1.989   0.624   5.962  0.2456 -0.0667  0.5018
30282SOD    SOD95608   2.515   1.215   4.038 -0.7739 -0.2053 -0.3606
30283SOD    SOD95609   0.734   1.231   5.283 -0.0458  0.1177 -0.0800
30284SOD    SOD95610   3.088   0.905   6.552  0.3080 -0.6249 -0.1133
30285SOD    SOD95611   2.283   0.140   8.504 -0.3028 -0.2551 -0.2456
30286SOD    SOD95612   2.800   0.801   9.167  0.6267 -0.1047  0.1805
30287SOD    SOD95613   2.801   1.234   1.310 -0.4847 -0.1597  0.1844
30288SOD    SOD95614   1.277   2.529   0.471 -0.2340 -0.2067  0.3169
30289SOD    SOD95615   1.346   2.973   1.850 -0.1673  0.4046  0.5435
30290SOD    SOD95616   0.425   1.371   2.688  0.1027  0.2737  0.0201
30291SOD    SOD95617   1.344   0.997   6.306 -0.3785  0.2940  0.8224
30292SOD    SOD95618   3.203   0.972   5.129  0.2856 -0.0333  0.0117
30293SOD    SOD95619   1.865   1.844   4.003 -0.1199  0.2556 -0.3746
30294SOD    SOD95620   2.367   3.278   3.487 -0.1333 -0.0836  0.3828
30295SOD    SOD95621   1.843   3.337   4.051  0.1755  0.7512  0.2291
30296SOD    SOD95622   3.341   2.184   5.473 -0.4962 -0.2933  0.0217
30297SOD    SOD95623   2.550   1.834   6.704  0.0640 -0.1047  0.0384
30298SOD    SOD95624   1.376   2.602   7.085  0.4395 -0.0806  0.3625
30299SOD    SOD95625   1.455   2.062   6.669 -0.1501 -0.1887  0.0076
30300SOD    SOD95626   1.282   1.696   7.848  0.2845  0.4573  0.5525
30301SOD    SOD95627   1.374   2.561   7.799 -0.3274 -0.2309  0.4460
30302SOD    SOD95628   2.561   2.405   8.131 -0.2752 -0.0177  0.0334
30303SOD    SOD95629   1.391   3.061   9.058  0.1091 -0.4104  0.0694
30304SOD    SOD95630   1.789   1.584   0.419 -0.1204 -0.7698 -0.3497
30305SOD    SOD95631   1.225   6.388   0.395  0.0873  0.2631 -0.1257
30306SOD    SOD95632   2.789   2.793   2.124  0.7033 -0.6728  0.6041
30307SOD    SOD95633   2.205   3.810   0.310 -0.4569  0.1245 -0.1760
30308SOD    SOD95634   1.098   4.207   1.304  0.7737 -0.1041  0.2235
30309SOD    SOD95635   2.192   5.387   1.907  0.9435  0.6533 -0.1907
30310SOD    SOD95636   0.866   4.998   1.750  0.0357 -0.0833  0.1636
30311SOD    SOD95637   1.904   4.753   3.482  0.6274 -0.5332 -0.3463
30312SOD    SOD95638   0.992   2.759   2.738 -0.0607  0.3983  0.4141
30313SOD    SOD95639   1.675   3.484   2.168 -0.2913  0.4124 -0.1219
30314SOD    SOD95640   1.732   5.345   2.551  0.4466  0.2361 -0.4017
30315SOD    SOD95641   1.026   5.093   4.468 -0.4704 -0.0907  0.1879
30316SOD    SOD95642   2.060   5.083   4.636  0.0566 -0.0026 -0.0809
30317SOD    SOD95643   1.056   3.167   5.532  0.2262  0.2507  0.0039
30318SOD    SOD95644   0.914   3.717   3.351 -0.2327  0.1658 -0.3273
30319SOD    SOD95645   1.311   4.556   3.657 -0.1382  0.0509 -0.1999
30320SOD    SOD95646   2.163   2.369   4.120 -0.2435 -0.4563 -0.1192
30321SOD    SOD95647   2.661   5.146   7.116 -0.0697  0.1966  0.0870
30322SOD    SOD95648   0.749   3.711   6.600 -0.0940  0.4946  0.2152
30323SOD    SOD95649   0.715   4.111   7.370  0.3303  0.3261 -0.2650
30324SOD    SOD95650   2.359   4.625   6.117 -0.3952  0.4359 -0.0969
30325SOD    SOD95651   0.644   4.150   8.030  0.0563  0.1723  0.4331
30326SOD    SOD95652   2.036   2.556   9.879 -0.3040  0.1670 -0.5424
30327SOD    SOD95653   1.603   3.920   9.814  0.0440 -0.4551  0.6756
30328SOD    SOD95654   1.149   3.506   9.986 -0.2111 -0.2095  0.2031
30329SOD    SOD95655   1.903   3.013   9.262  0.3620  0.1247  0.5702
30330SOD    SOD95656   1.097   8.113   0.961  0.4088 -0.3246 -0.2273
30331SOD    SOD95657   0.778   6.743   2.482  0.7749  0.2852 -0.0111
30332SOD    SOD95658   2.344   7.437   0.681  0.6315  0.0022  0.0554
30333SOD    SOD95659   2.125   8.096   2.278  0.4746  0.3652  0.5281
30334SOD    SOD95660   2.650   6.734   1.080 -0.5426 -0.4454 -0.1511
30335SOD    SOD95661   3.814   7.768   4.422  0.0081  0.1093  0.5437
30336SOD    SOD95662   9.888   6.271   2.791  0.0101 -0.0323  0.3622
30337SOD    SOD95663   2.808   6.476   4.673 -0.0878 -0.2651  0.3858
30338SOD    SOD95664   1.662   7.138   2.510  0.1453  0.3645 -0.2127
30339SOD    SOD95665   2.376   6.686   4.443 -0.7743 -0.4095  0.1278
30340SOD    SOD95666   2.188   4.489   4.676  0.3621 -0.1362 -0.2357
30341SOD    SOD95667   3.179   8.597   4.360  0.0646  0.0972 -0.0059
30342SOD    SOD95668   1.681   8.124   7.484  0.1775 -0.2139 -0.5303
30343SOD    SOD95669   2.421   7.558   4.746 -0.2677 -0.7078  0.3134
30344SOD    SOD95670   2.868   7.290   7.418  0.2160 -0.4830 -0.1692
30345SOD    SOD95671   0.342   6.631   5.000  0.3699 -0.0575 -0.2605
30346SOD    SOD95672   1.727   5.199   7.012  0.1795 -0.4870  0.2106
30347SOD    SOD95673   2.022   7.089   8.875  0.0203  0.0304 -0.1357
30348SOD    SOD95674   1.455   6.563   7.331 -0.0779 -0.4211  0.8716
30349SOD    SOD95675   3.291   7.374   0.225 -0.4348  0.2087 -0.5155
30350SOD    SOD95676   2.759   7.585   9.550 -0.4727 -0.1272 -0.3995
30351SOD    SOD95677   3.924   9.068   8.681  0.0346  0.5848  0.6726
30352SOD    SOD95678   3.448   6.697   9.076  0.2615  0.5108 -0.6180
30353SOD    SOD95679   1.662   7.885   9.409  0.3571  0.2088  0.0300
30354SOD    SOD95680   3.793   9.575   0.021  0.1557 -0.4031  0.4322
30355SOD    SOD95681   1.451   9.844   2.533  0.3849 -0.2496  0.0651
30356SOD    SOD95682   2.417   8.919   2.884 -0.0311  0.1133  0.1026
30357SOD    SOD95683   3.226   9.797   1.439  0.1596 -0.3858 -0.0802
30358SOD    SOD95684   1.282   8.617   3.466  0.0589 -0.2926  0.5386
30359SOD    SOD95685   2.456   8.558   5.202  0.0478 -0.0398 -0.0037
30360SOD    SOD95686   1.555   8.180   4.637  0.0660 -0.1862  0.0847
30361SOD    SOD95687   2.773   8.577   7.006 -0.2895 -0.2385 -0.1370
30362SOD    SOD95688   2.768   9.437   5.615  0.1685 -0.3235 -0.0920
30363SOD    SOD95689   2.951   9.016   6.329  0.3740 -0.0783  0.1981
30364SOD    SOD95690   2.589   7.778   6.753  0.6992  0.1710 -0.6887
30365SOD    SOD95691   2.694   8.386   8.982  0.5160 -0.1970 -0.3388
30366SOD    SOD95692   3.269   8.515   0.157 -0.2728 -0.2807 -0.1274
30367SOD    SOD95693   3.037   9.911   9.148  0.0581 -0.4057  0.0801
30368SOD    SOD95694   5.253   0.056   3.947 -0.0111 -0.0797 -0.1653
30369SOD    SOD95695   4.973   0.289   4.479  0.3249  0.0552  0.1339
30370SOD    SOD95696   3.203   1.115   7.868  0.1268  0.1748  0.0937
30371SOD    SOD95697   5.373   2.368   0.811 -0.1676  0.0329 -0.0450
30372SOD    SOD95698   4.615   1.172   0.813 -0.1241  0.4467 -0.2090
30373SOD    SOD95699   4.866   1.693   0.711  0.1526 -0.2373 -0.0123
30374SOD    SOD95700   5.343   1.900   1.773 -0.1338 -0.0608 -0.1029
30375SOD    SOD95701   5.555   1.390   2.512  0.2507  0.4474 -0.1712
30376SOD    SOD95702   3.809   2.497   1.731 -0.3460  0.5573  0.4772
30377SOD    SOD95703   4.582   2.117   3.247  0.1181 -0.1364  0.2104
30378SOD    SOD95704   4.739   1.164   3.371 -0.5768  0.0347  0.5102
30379SOD    SOD95705   4.581   1.063   5.073 -0.2837 -0.0715 -0.3078
30380SOD    SOD95706   5.405   1.735   5.663 -0.2192  0.0538 -0.3528
30381SOD    SOD95707   3.648   1.552   4.680 -0.2417 -0.0020  0.8216
30382SOD    SOD95708   3.371   3.216   6.951  0.0904  0.2655  0.1369
30383SOD    SOD95709   4.724   2.867   7.403 -0.0540 -0.1820  0.1185
30384SOD    SOD95710   5.543   1.819   6.821  0.3681  0.0819  0.7423
30385SOD    SOD95711   4.247   2.806   5.175  0.1647  0.3612  0.0935
30386SOD    SOD95712   4.173   3.013   9.258  0.0596 -0.1601 -0.1526
30387SOD    SOD95713   3.319   1.982   8.380 -0.1838  0.2653  0.2113
30388SOD    SOD95714   5.149   1.817   9.066  0.4760 -0.4357  0.4965
30389SOD    SOD95715   5.753   2.458   9.850  0.0415 -0.7445  0.0029
30390SOD    SOD95716   4.883   1.123   7.251 -0.1097 -0.2780 -0.0540
30391SOD    SOD95717   5.294   3.321   9.091  0.1784  0.7047 -0.3947
30392SOD    SOD95718   3.126   1.651   8.723 -0.4582  0.6354  0.0494
30393SOD    SOD95719   4.047   1.915   9.498 -0.1064  0.1951 -0.4140
30394SOD    SOD95720   4.410   3.998   0.281  0.2330 -0.0939 -0.0881
30395SOD    SOD95721   4.452   5.547   1.627  0.0924  0.2086 -0.3242
30396SOD    SOD95722   3.007   2.759   1.408 -0.4665 -0.0393  0.5656
30397SOD    SOD95723   3.819   4.404   9.944 -0.0038 -0.2700  0.2415
30398SOD    SOD95724   3.175   4.373   2.209 -0.0235 -0.2103  0.3365
30399SOD    SOD95725   3.383   3.715   1.596  0.0581  0.0561 -0.1991
30400SOD    SOD95726   4.735   3.529   2.483 -0.1290 -0.6909 -0.1681
30401SOD    SOD95727   6.118   3.447   1.209  0.1091  0.3234 -0.4678
30402SOD    SOD95728   2.295   4.667   3.163 -0.0387 -0.3194  0.1958
30403SOD    SOD95729   4.260   3.115   1.883 -0.1787  0.1950  0.1422
30404SOD    SOD95730   4.143   2.706   4.561 -0.7157  0.0053  0.0047
30405SOD    SOD95731   4.882   2.516   1.948 -0.0214  0.4961  0.0514
30406SOD    SOD95732   5.694   4.840   3.042 -0.4527 -1.0530 -0.1428
30407SOD    SOD95733   4.628   4.342   3.006 -0.2616 -0.0471 -0.4634
30408SOD    SOD95734   4.763   5.124   9.289 -0.1595  0.6784 -0.2919
30409SOD    SOD95735   5.718   6.511   8.967  0.1646  0.4186 -0.2525
30410SOD    SOD95736   5.508   2.023   8.436 -0.2662 -0.1842 -0.1198
30411SOD    SOD95737   7.309   4.605   8.016 -0.3423  0.1535 -0.2534
30412SOD    SOD95738   1.965   3.307   7.264 -0.0105 -0.1491 -0.2888
30413SOD    SOD95739   2.594   3.235   5.339  0.2512  0.0234  0.3475
30414SOD    SOD95740   2.339   4.672   6.759 -0.4525 -0.7159 -0.2453
30415SOD    SOD95741   7.033   5.813   8.179  0.4349  0.5967 -0.2655
30416SOD    SOD95742   2.194   4.684   7.563  0.1112 -0.2208 -0.1782
30417SOD    SOD95743   4.730   3.344   9.480 -0.0246  0.3935 -0.3213
30418SOD    SOD95744   4.243   5.217   0.189  0.1140  0.2361 -0.3388
30419SOD    SOD95745   2.706   4.177   8.650 -0.4414 -0.0538 -0.1422
30420SOD    SOD95746   2.226   6.838   0.798 -0.4308  0.3071  0.0528
30421SOD    SOD95747   3.294   6.433   0.934 -0.1296 -0.2923 -0.6220
30422SOD    SOD95748   2.547   7.771   1.626  0.3188 -0.2823  0.4953
30423SOD    SOD95749   4.747   8.718   0.740 -0.0726 -0.4704 -0.1761
30424SOD    SOD95750   4.179   8.492   2.121 -0.0958 -0.0908 -0.4479
30425SOD    SOD95751   6.207   6.549   1.864  0.0867  0.4082  0.0971
30426SOD    SOD95752   3.753   6.403   3.008  0.2295 -0.3497 -0.1571
30427SOD    SOD95753   5.879   5.967   2.846  0.1135 -0.2652 -0.0126
30428SOD    SOD95754   6.328   6.432   2.402 -0.1234  0.4890  0.1311
30429SOD    SOD95755   4.423   7.477   3.667 -0.3332  0.1438  0.4799
30430SOD    SOD95756   4.489   7.019   1.024  0.1069 -0.5247  0.6628
30431SOD    SOD95757   3.205   7.637   7.069 -0.0966  0.1748 -0.1566
30432SOD    SOD95758   6.967   5.819   5.583 -0.5290  0.4765  0.2100
30433SOD    SOD95759   3.216   8.022   4.419 -0.1557 -0.0125  0.0168
30434SOD    SOD95760   7.240   4.496   3.315 -0.1157 -0.0324  0.9599
30435SOD    SOD95761   3.755   4.428   3.015 -0.3129 -0.3741 -0.0699
30436SOD    SOD95762   2.327   6.712   8.535  0.1194  0.0973  0.0485
30437SOD    SOD95763   1.953   7.156   6.437 -0.3116  0.2763 -0.3862
30438SOD    SOD95764   3.659   5.815   9.437 -0.3952 -0.3703  0.1707
30439SOD    SOD95765   5.380   7.707   6.584  0.0444  0.3318 -0.2943
30440SOD    SOD95766   7.306   7.781   6.404 -0.2602  0.0293 -0.1210
30441SOD    SOD95767   5.230   8.611   7.987 -0.2027  0.2500  0.1596
30442SOD    SOD95768   2.795   5.856   8.888  1.1437 -0.0211  0.1729
30443SOD    SOD95769   6.177   5.917   8.741  0.3878 -0.3724  0.3560
30444SOD    SOD95770   4.094   7.902   9.256  0.1084 -0.2180  0.4713
30445SOD    SOD95771   4.153   7.695   8.921  0.0181 -0.0309  0.4698
30446SOD    SOD95772   4.835   7.862   9.234  0.1874  0.6808  0.2761
30447SOD    SOD95773   4.540   8.177   7.508  0.2717 -0.2404  0.2225
30448SOD    SOD95774   4.706   5.886   9.787 -0.2679  0.3754  0.1883
30449SOD    SOD95775   4.969   8.656   0.097 -0.5718  0.1437  0.1765
30450SOD    SOD95776   4.588   8.249   0.119 -0.1631  0.0838 -0.3790
30451SOD    SOD95777   2.934   0.834   3.405  0.0288  0.3501 -0.0148
30452SOD    SOD95778   4.368   9.860   2.453  0.0419  0.2061  0.4354
30453SOD    SOD95779   6.991   9.792   3.768  0.2366  0.7771  0.2873
30454SOD    SOD95780   4.363   9.000   2.333 -0.0554  0.4246  0.1754
30455SOD    SOD95781   3.076   9.464   3.428  0.1468 -0.1496 -0.2627
30456SOD    SOD95782   4.028   8.131   5.509  0.3011  0.2305  0.1744
30457SOD    SOD95783   3.485   8.612   5.549  0.0748  0.7190 -0.7431
30458SOD    SOD95784   5.528   8.777   3.761  0.8766 -0.6213 -0.3149
30459SOD    SOD95785   3.754   9.534   5.987 -0.1136  0.4033 -0.0661
30460SOD    SOD95786   7.280   0.436   5.738 -0.4444  0.1985  0.0451
30461SOD    SOD95787   4.246   9.984   5.820 -0.2662  0.2354 -0.2079
30462SOD    SOD95788   3.460   0.197   8.190 -0.2048  0.2197  0.3053
30463SOD    SOD95789   4.714   8.293   9.234 -0.3379  0.2026 -0.2093
30464SOD    SOD95790   3.125   8.579   8.088 -0.0774 -0.3755 -0.1897
30465SOD    SOD95791   5.305   0.292   7.887  0.2608  0.3857 -0.2519
30466SOD    SOD95792   4.404   9.463   8.596  0.2110 -0.3041 -0.4488
30467SOD    SOD95793   4.927   0.058   9.668 -0.0101 -0.3209  0.2217
30468SOD    SOD95794   5.937   0.626   0.533 -0.1973 -0.0224 -0.3351
30469SOD    SOD95795   8.257   0.291   0.437  0.0051 -0.5040  0.1410
30470SOD    SOD95796   7.096   1.216   0.444  0.6564  0.5527  0.1676
30471SOD    SOD95797   6.457   1.361   1.770  0.3391  0.0038 -0.3528
30472SOD    SOD95798   6.422   1.660   4.647 -0.2112  0.0307 -0.1806
30473SOD    SOD95799   7.799   0.833   5.102  0.1747  0.4279  0.1125
30474SOD    SOD95800   5.650   0.268   6.176 -0.2614  0.2205  0.2539
30475SOD    SOD95801   5.929   0.341   7.710  0.0835 -0.2517  0.2504
30476SOD    SOD95802   5.408   0.378   9.363  0.0898  0.3842 -0.0353
30477SOD    SOD95803   6.483   1.451   9.235  0.0689 -0.6745 -0.2107
30478SOD    SOD95804   7.751   2.513   1.164 -0.0294  0.0977 -0.0282
30479SOD    SOD95805   7.569   2.320   0.553  0.4668 -0.0954  0.1924
30480SOD    SOD95806   8.012   0.532   2.800  0.2236  0.3521 -0.1913
30481SOD    SOD95807   7.981   2.389   1.931 -0.1810  0.7286 -0.6458
30482SOD    SOD95808   7.973   2.733   3.044  0.0442 -0.2581  0.2949
30483SOD    SOD95809   8.616   1.989   1.856 -0.4167  0.3178  0.0998
30484SOD    SOD95810   9.281   1.683   2.649 -0.4108 -0.1034 -0.0892
30485SOD    SOD95811   5.736   1.049   3.487 -0.0371 -0.2172 -0.1595
30486SOD    SOD95812   8.742   1.279   4.656  0.8830 -0.0647 -0.0973
30487SOD    SOD95813   7.012   1.130   3.987  0.1128 -0.1066  0.2424
30488SOD    SOD95814   7.309   2.190   3.924  0.6578 -0.4151 -0.0691
30489SOD    SOD95815   5.396   0.462   6.699  0.4770 -0.3608  0.3037
30490SOD    SOD95816   7.421   3.358   5.301  0.1054 -0.2488 -0.1190
30491SOD    SOD95817   7.838   1.783   5.589  0.2767  0.1977 -0.3993
30492SOD    SOD95818   6.735   1.662   6.708 -0.2614 -0.0676 -0.2132
30493SOD    SOD95819   6.522   2.182   5.429  0.4744 -0.0186 -0.2174
30494SOD    SOD95820   7.435   2.631   6.361  0.2856  0.4990  0.1069
30495SOD    SOD95821   6.199   2.056   7.623 -0.5858  0.2626  0.4581
30496SOD    SOD95822   7.239   1.438   9.009  0.0252  0.2731 -0.0281
30497SOD    SOD95823   6.868   2.676   8.872 -0.0292 -0.0727  0.1734
30498SOD    SOD95824   6.427   0.378   8.753 -0.2779  0.0928  0.2257
30499SOD    SOD95825   7.365   2.095   7.677  0.5039  0.0091 -0.1464
30500SOD    SOD95826   7.266   2.090   9.812  0.3059 -0.1094  0.0381
30501SOD    SOD95827   6.601   2.456   8.655  0.9748  0.1274 -0.0228
30502SOD    SOD95828   6.200   3.565   9.872 -0.4236 -0.4196  0.0536
30503SOD    SOD95829   7.742   3.406   1.125  0.2661  0.4100 -0.2892
30504SOD    SOD95830   7.487   3.152   3.783  0.3860  0.0334 -0.3784
30505SOD    SOD95831   7.733   4.675   2.815 -0.8361 -0.3823  0.4203
30506SOD    SOD95832   7.815   3.996   2.095  0.1264  0.1399  0.0935
30507SOD    SOD95833   6.574   3.796   2.579 -0.1586  0.1317 -0.1440
30508SOD    SOD95834   8.155   5.456   4.649 -0.6281 -0.1236  0.2022
30509SOD    SOD95835   8.607   4.599   5.317  0.6334 -0.1854  0.1073
30510SOD    SOD95836   6.100   4.332   2.597  0.1166 -0.0757 -0.0503
30511SOD    SOD95837   8.625   4.617   4.103 -0.1678 -0.0368 -0.0518
30512SOD    SOD95838   7.373   4.004   3.802  0.0088 -0.3211  0.0420
30513SOD    SOD95839   6.623   3.207   5.897  0.4125  0.1384 -0.3719
30514SOD    SOD95840   8.775   4.896   6.236  0.1613  0.2313 -0.1631
30515SOD    SOD95841   7.550   3.071   8.460 -0.2382 -0.0094  0.4149
30516SOD    SOD95842   6.699   2.848   7.866  0.3950  0.0543 -0.1206
30517SOD    SOD95843   8.052   5.585   6.803 -0.1155 -0.0456 -0.3574
30518SOD    SOD95844   8.250   3.668   5.148  0.1857 -0.6725  0.0052
30519SOD    SOD95845   8.209   5.369   7.739 -0.2907  0.5676 -0.0980
30520SOD    SOD95846   7.950   5.033   9.055  0.4194  0.3595 -0.2117
30521SOD    SOD95847   7.803   2.793   8.959  0.0929 -0.0409  0.2072
30522SOD    SOD95848   7.878   3.675   9.452 -0.0342  0.4957  0.6866
30523SOD    SOD95849   6.272   3.243   8.390 -0.7194 -0.2441 -0.4016
30524SOD    SOD95850   8.468   4.993   8.534 -0.3965 -0.0138 -0.3744
30525SOD    SOD95851   9.063   4.394   9.321  0.2399  0.3132  0.1837
30526SOD    SOD95852   7.934   4.809   1.331  0.0299 -0.3316  0.2047
30527SOD    SOD95853   6.941   7.242   0.762 -0.2746  0.1937 -0.5981
30528SOD    SOD95854   5.707   9.073   1.152 -0.3312  0.3825 -0.5443
30529SOD    SOD95855   5.816   7.649   9.890  0.1614  0.0697 -0.5248
30530SOD    SOD95856   5.124   7.091   1.359 -0.3024 -0.3421 -0.2259
30531SOD    SOD95857   8.059   8.615   1.809 -0.2481  0.1046  0.1094
30532SOD    SOD95858   8.686   5.342   2.052 -0.3343 -0.4247  0.4085
30533SOD    SOD95859   7.658   6.968   1.707 -0.2446 -0.0281 -0.6223
30534SOD    SOD95860   7.555   7.496   2.313 -0.2692  0.0460 -0.0515
30535SOD    SOD95861   7.422   6.169   2.693 -0.3785  0.1800  0.1611
30536SOD    SOD95862   5.770   7.607   2.041  0.3743 -0.0905  0.1094
30537SOD    SOD95863   7.072   7.862   2.959  0.6936 -0.5629 -0.4807
30538SOD    SOD95864   6.596   7.020   1.771 -0.2836 -0.2448  0.5768
30539SOD    SOD95865   6.738   7.885   5.372 -0.1743  0.0903  0.5092
30540SOD    SOD95866   8.656   7.873   4.956  0.1768  0.5436  0.2586
30541SOD    SOD95867   8.022   7.675   7.443 -0.2598 -0.6395 -0.0768
30542SOD    SOD95868   6.502   8.511   7.285 -0.4713  0.3578 -0.2024
30543SOD    SOD95869   7.882   8.566   4.721 -0.5782  0.0615 -0.6458
30544SOD    SOD95870   7.600   6.652   7.288 -0.1204 -0.8931 -0.1574
30545SOD    SOD95871   6.206   5.907   9.759 -0.1159  0.2179 -0.0186
30546SOD    SOD95872   7.205   7.121   7.761 -0.0995 -0.6273 -0.4320
30547SOD    SOD95873   8.234   7.670   9.832 -0.1634  0.2022 -0.1134
30548SOD    SOD95874   5.383   9.208   8.736 -0.3634 -0.1348  0.2010
30549SOD    SOD95875   7.014   8.326   8.421 -0.6403  0.1330  0.1173
30550SOD    SOD95876   5.801   7.262   7.769  0.1406 -0.2281  0.7792
30551SOD    SOD95877   8.231   8.570   8.563  0.5260  0.0282  0.0509
30552SOD    SOD95878   5.578   8.800   0.274 -0.0989  0.6336 -0.3315
30553SOD    SOD95879   8.386   7.833   3.782 -0.1114 -0.0743  0.1316
30554SOD    SOD95880   7.785   7.806   3.165  0.2624  0.5502 -0.2125
30555SOD    SOD95881   7.916   9.229   3.150 -0.2810  0.2200  0.4226
30556SOD    SOD95882   6.927   9.329   1.846 -0.0618  0.3672  0.3521
30557SOD    SOD95883   6.508   7.557   4.089  0.3128  0.4823  0.0646
30558SOD    SOD95884   6.222   9.218   4.679  0.3812  0.4180 -0.6253
30559SOD    SOD95885   4.523   9.272   4.270 -0.2048 -0.1848 -1.0717
30560SOD    SOD95886   6.241   9.012   6.577 -0.3803  0.3317  0.1339
30561SOD    SOD95887   6.759   0.171   6.661 -0.5462  0.4567  0.1179
30562SOD    SOD95888   7.859   8.410   6.549 -0.1690  0.2424 -0.4744
30563SOD    SOD95889   7.911   0.101   5.744  0.2031 -0.0977  0.1662
30564SOD    SOD95890   7.885   9.927   7.662  0.2461  0.0708  1.0002
30565SOD    SOD95891   5.711   8.890   6.859 -0.0658  0.0810 -0.1237
30566SOD    SOD95892   7.706   9.050   7.571  0.0241 -0.1121  0.3290
30567SOD    SOD95893   6.623   9.286   9.594  0.1123 -0.3775  0.0405
30568SOD    SOD95894   6.898   0.026   1.570 -0.0925  0.0708 -0.2139
30569SOD    SOD95895   7.211   9.973   2.302  0.0936 -0.0242 -0.1078
30570SOD    SOD95896   7.929   9.605   5.037 -0.6153  0.1854  0.1453
30571SOD    SOD95897   8.007   0.043   6.149 -0.4640 -0.1567 -0.0006
30572SOD    SOD95898   6.294   9.494   9.839  0.2728 -0.2866  0.3237
30573SOD    SOD95899   8.487   1.185   3.087  0.4195 -0.1719  0.1257
30574SOD    SOD95900   9.298   1.276   4.191 -0.2113 -0.1423 -0.3331
30575SOD    SOD95901   8.746   9.796   3.760  0.0842 -0.1976  0.2017
30576SOD    SOD95902   9.951   0.011   6.740 -0.3809 -0.0292 -0.1672
30577SOD    SOD95903   8.108   0.784   9.769  0.2700 -0.5733  0.2036
30578SOD    SOD95904   8.334   0.880   8.969  0.5677  0.1276  0.0975
30579SOD    SOD95905   8.639   1.628   1.052 -0.7553  0.0029  0.3922
30580SOD    SOD95906   9.560   2.776   2.519  0.2019  0.2250  0.1886
30581SOD    SOD95907   9.359   2.583   3.843 -0.5812  0.4338  0.3615
30582SOD    SOD95908   8.632   2.523   5.625 -0.2346 -0.0480  0.2106
30583SOD    SOD95909   9.709   3.464   7.131  0.0260  0.4663 -0.7716
30584SOD    SOD95910   9.118   2.896   9.013 -0.0339 -0.0012 -0.1506
30585SOD    SOD95911   9.327   3.111   9.875 -0.1884 -0.4034  0.4194
30586SOD    SOD95912   8.371   2.336   9.357 -0.8232 -0.0865  0.2450
30587SOD    SOD95913   8.320   2.086   0.557  0.5960  0.4348  0.5812
30588SOD    SOD95914   9.066   3.809   0.774  0.1595 -0.0657  0.0659
30589SOD    SOD95915   8.306   5.593   9.961 -0.3797 -0.0381  0.2633
30590SOD    SOD95916   9.004   4.036   3.916 -0.1078  0.0247 -0.1042
30591SOD    SOD95917   9.490   4.046   4.780 -0.0393 -0.1126 -0.2653
30592SOD    SOD95918   8.675   4.395   3.184 -0.0506  0.4636 -0.0178
30593SOD    SOD95919   7.824   3.683   6.728 -0.4324 -0.1307 -0.1307
30594SOD    SOD95920   8.907   5.651   4.913 -0.1727 -0.6281  0.0863
30595SOD    SOD95921   8.547   2.265   8.147  0.4655  0.2708  0.0092
30596SOD    SOD95922   9.317   5.709   8.051  0.2195  0.6096 -0.0161
30597SOD    SOD95923   8.875   6.224   6.610  0.1902 -0.0548  0.4569
30598SOD    SOD95924   9.010   4.142   0.622 -0.2133  0.4047 -0.1585
30599SOD    SOD95925   8.521   5.645   1.635 -0.5291  0.0250  0.0133
30600SOD    SOD95926   9.269   6.624   1.923  0.1093  0.2722 -0.1563
30601SOD    SOD95927   8.354   6.234   0.735 -0.1308  0.3823  0.2660
30602SOD    SOD95928   9.553   6.308   2.607 -0.0681 -0.1353  0.1158
30603SOD    SOD95929   9.172   5.486   2.498  0.7152  0.5947  0.2776
30604SOD    SOD95930   8.877   7.586   3.009  0.1592  0.7449 -0.1885
30605SOD    SOD95931   8.709   6.831   3.867  0.2967 -0.0298 -0.0961
30606SOD    SOD95932   8.601   6.690   6.362 -0.2145  0.2076  0.1521
30607SOD    SOD95933   7.589   7.123   5.253 -0.6216 -0.1696  0.0639
30608SOD    SOD95934   9.079   6.990   7.539  0.0520 -0.5744  0.0004
30609SOD    SOD95935   9.812   6.409   9.693  0.6767  0.4239 -0.3256
30610SOD    SOD95936   9.371   7.451   9.653  0.1643 -0.0346  0.2770
30611SOD    SOD95937   8.345   7.680   1.518  0.1822 -0.1450 -0.7638
30612SOD    SOD95938   9.423   0.040   0.498  0.2262 -0.3607 -0.5882
30613SOD    SOD95939   8.624   8.390   1.496 -0.2168 -0.3917 -0.4432
30614SOD    SOD95940   7.643   8.212   2.321 -0.3326 -0.0161 -0.1936
30615SOD    SOD95941   9.501   9.544   3.459  0.3953  0.7294 -0.1647
30616SOD    SOD95942   8.774   8.784   4.128  0.2353 -0.0767 -0.5900
30617SOD    SOD95943   8.954   8.553   6.251 -1.1605  0.1044  0.2667
30618SOD    SOD95944   9.319   8.194   9.456 -0.4113  0.3461  0.0203
30619SOD    SOD95945   9.322   7.931   7.492 -0.2987  0.2342 -0.1079
30620SOD    SOD95946   8.553   9.814   7.939  0.3626  0.3235  0.0699
30621SOD    SOD95947   8.671   9.974   1.658 -0.1920 -0.2993  0.4073
30622SOD    SOD95948   8.626   9.384   2.995  0.2224  0.3292 -0.1888
30623SOD    SOD95949   9.050   2.526   1.627  0.4696 -0.6195 -0.4823
30624SOD    SOD95950   9.849   2.569   4.952  0.1623 -0.1670 -0.0282
30625SOD    SOD95951   9.723   9.653   5.198  0.2825 -0.6424  0.3363
30626SOD    SOD95952   9.672   9.555   9.020  0.1959  0.1293  0.0196
30627SOD    SOD95953   9.095   0.329   9.472 -0.2356 -0.2616  0.0183
30628SOD    SOD95954   0.395   1.931   1.830 -0.2511 -0.1520  0.4739
30629SOD    SOD95955   0.006   2.926   3.587 -0.0638 -0.0173  0.3269
30630SOD    SOD95956   0.507   3.436   0.873  0.6637 -0.1331  0.2681
30631SOD    SOD95957   8.841   3.233   5.803 -0.0559 -0.1246 -0.1985
30632SOD    SOD95958   0.170   3.569   6.657 -0.1286  0.3011  0.6368
30633SOD    SOD95959   9.654   3.455   0.726 -0.4495  0.7296  0.0387
30634SOD    SOD95960   0.297   7.002   3.475  0.4269 -0.3663  0.0676
30635SOD    SOD95961   9.379   9.080   5.347  0.2545 -0.0347 -0.5106
30636SOD    SOD95962   9.238   7.637   6.694 -0.0602 -0.1957 -0.1753
30637SOD    SOD95963   0.084   5.437   9.198  0.0356 -0.1121 -0.7922
30638SOD    SOD95964   9.562   9.485   2.094  0.9596  0.1630  0.2296
30639SOD    SOD95965   9.964   8.993   4.884 -0.1813 -0.1384 -0.0980
30640SOD    SOD95966   9.058   9.570   7.598  0.0404  0.5114  0.0230
30641SOD    SOD95967   9.577   8.590   7.359 -0.1028  0.7683  0.1222
30642SOD    SOD95968   9.555   8.809   0.842 -0.3792 -0.6467  0.5748
30643SOD    SOD95969   0.811   0.022   8.026 -0.2134 -0.0476  0.9632
  10.00000  10.00000  10.00000
